LAMMPS (29 Oct 2020)
OMP_NUM_THREADS environment is not set. Defaulting to 1 thread. (../comm.cpp:94)
  using 1 OpenMP thread(s) per MPI task
OMP_NUM_THREADS environment is not set. Defaulting to 1 thread. (../comm.cpp:94)
  using 1 OpenMP thread(s) per MPI task
Reading data file ...
  orthogonal box = (-122.39241 -121.13707 -37.090501) to (122.39241 121.13707 37.090501)
  13 by 4 by 2 MPI processor grid
  reading atoms ...
  288751 atoms
  read_data CPU = 0.369 seconds
199981 atoms in group inner
88770 atoms in group outer
1 atoms in group carbon
Neighbor list info ...
  update every 1 steps, delay 0 steps, check yes
  max neighbors/atom: 2000, page size: 100000
  master list distance cutoff = 5.6
  ghost atom cutoff = 5.6
  binsize = 2.8, bins = 88 87 27
  1 neighbor lists, perpetual/occasional/extra = 1 0 0
  (1) pair eam/alloy, perpetual
      attributes: half, newton on
      pair build: half/bin/atomonly/newton
      stencil: half/bin/3d/newton
      bin: standard
Setting up cg style minimization ...
  Unit style    : metal
  Current step  : 0
Per MPI rank memory allocation (min/avg/max) = 5.441 | 5.816 | 6.074 Mbytes
Step v_fx v_fy v_fz PotEng KinEng TotEng 
       0    4.6891787    7.6912798    7.9607659   -1152446.3            0   -1152446.3 
     169 -3.5920915e-06 -7.3598621e-06 -7.4657529e-06   -1152449.3            0   -1152449.3 
Loop time of 2.00743 on 104 procs for 169 steps with 288751 atoms

99.8% CPU use with 104 MPI tasks x 1 OpenMP threads

Minimization stats:
  Stopping criterion = energy tolerance
  Energy initial, next-to-last, final = 
     -1152446.27855388  -1152449.34502384  -1152449.34502384
  Force two-norm initial, final = 22.101688 7.2903444e-05
  Force max component initial, final = 12.631118 8.8906420e-06
  Final line search alpha, max atom move = 1.0000000 8.8906420e-06
  Iterations, force evaluations = 169 336

MPI task timing breakdown:
Section |  min time  |  avg time  |  max time  |%varavg| %total
---------------------------------------------------------------
Pair    | 0.52292    | 1.4216     | 1.8351     |  31.6 | 70.82
Neigh   | 3.1966e-05 | 0.0088034  | 0.012714   |   3.9 |  0.44
Comm    | 0.032878   | 0.32559    | 0.97268    |  46.5 | 16.22
Output  | 0          | 0          | 0          |   0.0 |  0.00
Modify  | 1.8423e-05 | 0.0018143  | 0.0046303  |   2.7 |  0.09
Other   |            | 0.2496     |            |       | 12.43

Nlocal:        2776.45 ave        3959 max           0 min
Histogram: 8 4 4 0 4 12 8 2 28 34
Nghost:        3879.03 ave        5425 max         232 min
Histogram: 8 0 8 0 16 0 8 8 16 40
Neighs:        79213.5 ave      115402 max           0 min
Histogram: 8 4 4 0 10 6 8 8 24 32

Total # of neighbors = 8238209
Ave neighs/atom = 28.530495
Neighbor list builds = 3
Dangerous builds = 0
Setting atom values ...
  1 settings made for x
  1 settings made for y
  1 settings made for z
Setting up cg style minimization ...
  Unit style    : metal
  Current step  : 169
Per MPI rank memory allocation (min/avg/max) = 5.441 | 5.816 | 6.074 Mbytes
Step PotEng KinEng TotEng v_fx v_fy v_fz 
     169   -1152449.3            0   -1152449.3  0.018284851 -0.0031363968   0.01951928 
     386   -1152449.3            0   -1152449.3 8.892708e-06 1.3556035e-05 1.1625216e-05 
Loop time of 2.53544 on 104 procs for 217 steps with 288751 atoms

99.9% CPU use with 104 MPI tasks x 1 OpenMP threads

Minimization stats:
  Stopping criterion = energy tolerance
  Energy initial, next-to-last, final = 
      -1152449.3411118  -1152449.34356816  -1152449.34356816
  Force two-norm initial, final = 0.218455 5.1089957e-05
  Force max component initial, final = 0.10201307 1.3556035e-05
  Final line search alpha, max atom move = 1.0000000 1.3556035e-05
  Iterations, force evaluations = 217 434

MPI task timing breakdown:
Section |  min time  |  avg time  |  max time  |%varavg| %total
---------------------------------------------------------------
Pair    | 0.65936    | 1.8338     | 2.3639     |  36.5 | 72.33
Neigh   | 0          | 0          | 0          |   0.0 |  0.00
Comm    | 0.043106   | 0.41036    | 1.2459     |  54.3 | 16.18
Output  | 0          | 0          | 0          |   0.0 |  0.00
Modify  | 2.7122e-05 | 0.003583   | 0.0076561  |   2.8 |  0.14
Other   |            | 0.2877     |            |       | 11.35

Nlocal:        2776.45 ave        3961 max           0 min
Histogram: 8 4 4 0 6 10 8 2 28 34
Nghost:        3879.03 ave        5426 max         232 min
Histogram: 8 0 8 0 16 0 8 8 16 40
Neighs:        79213.3 ave      115455 max           0 min
Histogram: 8 4 4 0 10 6 8 8 24 32

Total # of neighbors = 8238184
Ave neighs/atom = 28.530409
Neighbor list builds = 0
Dangerous builds = 0
Setting atom values ...
  1 settings made for x
  1 settings made for y
  1 settings made for z
Setting up cg style minimization ...
  Unit style    : metal
  Current step  : 386
Per MPI rank memory allocation (min/avg/max) = 5.441 | 5.816 | 6.074 Mbytes
Step PotEng KinEng TotEng v_fx v_fy v_fz 
     386   -1152449.3            0   -1152449.3  0.022612994 -0.0069555904  0.024930981 
     594   -1152449.3            0   -1152449.3 1.3996817e-05 2.0667083e-05 1.7952366e-05 
Loop time of 2.42537 on 104 procs for 208 steps with 288751 atoms

99.9% CPU use with 104 MPI tasks x 1 OpenMP threads

Minimization stats:
  Stopping criterion = energy tolerance
  Energy initial, next-to-last, final = 
     -1152449.33501511  -1152449.33826835  -1152449.33826835
  Force two-norm initial, final = 0.25183472 9.5038270e-05
  Force max component initial, final = 0.1170516 2.2062544e-05
  Final line search alpha, max atom move = 1.0000000 2.2062544e-05
  Iterations, force evaluations = 208 416

MPI task timing breakdown:
Section |  min time  |  avg time  |  max time  |%varavg| %total
---------------------------------------------------------------
Pair    | 0.62817    | 1.7451     | 2.266      |  35.7 | 71.95
Neigh   | 0          | 0          | 0          |   0.0 |  0.00
Comm    | 0.036649   | 0.39625    | 1.189      |  52.1 | 16.34
Output  | 0          | 0          | 0          |   0.0 |  0.00
Modify  | 2.5051e-05 | 0.003437   | 0.0073517  |   2.8 |  0.14
Other   |            | 0.2806     |            |       | 11.57

Nlocal:        2776.45 ave        3961 max           0 min
Histogram: 8 4 4 0 6 10 8 2 28 34
Nghost:        3879.05 ave        5425 max         232 min
Histogram: 8 0 8 0 16 0 8 8 16 40
Neighs:        79213.3 ave      115455 max           0 min
Histogram: 8 4 4 0 10 6 8 8 24 32

Total # of neighbors = 8238183
Ave neighs/atom = 28.530405
Neighbor list builds = 0
Dangerous builds = 0
The dot product: -6.95126438704239e-08
The cos of the angle between the force vector and the displacement vector: -0.0022608557475424
The angle: 90.1295376027767
Setting atom values ...
  1 settings made for x
  1 settings made for y
  1 settings made for z
Setting up cg style minimization ...
  Unit style    : metal
  Current step  : 594
Per MPI rank memory allocation (min/avg/max) = 5.441 | 5.816 | 6.074 Mbytes
Step PotEng KinEng TotEng v_fx v_fy v_fz 
     594   -1152449.3            0   -1152449.3  0.026836575 -0.0078198872  0.031335331 
     777   -1152449.3            0   -1152449.3 1.2992449e-05 1.1803237e-05 1.6116226e-05 
Loop time of 2.16548 on 104 procs for 183 steps with 288751 atoms

99.9% CPU use with 104 MPI tasks x 1 OpenMP threads

Minimization stats:
  Stopping criterion = energy tolerance
  Energy initial, next-to-last, final = 
     -1152449.32594081  -1152449.32913754  -1152449.32913754
  Force two-norm initial, final = 0.25128537 0.00020348502
  Force max component initial, final = 0.11508321 4.4227030e-05
  Final line search alpha, max atom move = 1.0000000 4.4227030e-05
  Iterations, force evaluations = 183 366

MPI task timing breakdown:
Section |  min time  |  avg time  |  max time  |%varavg| %total
---------------------------------------------------------------
Pair    | 0.55154    | 1.5419     | 1.9968     |  33.6 | 71.20
Neigh   | 0          | 0          | 0          |   0.0 |  0.00
Comm    | 0.031404   | 0.35438    | 1.0721     |  49.3 | 16.37
Output  | 0          | 0          | 0          |   0.0 |  0.00
Modify  | 2.1995e-05 | 0.0030208  | 0.0064296  |   2.6 |  0.14
Other   |            | 0.2662     |            |       | 12.29

Nlocal:        2776.45 ave        3960 max           0 min
Histogram: 8 4 4 0 4 12 8 2 28 34
Nghost:        3879.07 ave        5425 max         232 min
Histogram: 8 0 8 0 16 0 8 8 16 40
Neighs:        79213.3 ave      115422 max           0 min
Histogram: 8 4 4 0 10 6 8 8 24 32

Total # of neighbors = 8238182
Ave neighs/atom = 28.530402
Neighbor list builds = 0
Dangerous builds = 0
The dot product: 3.77647523865051e-07
The cos of the angle between the force vector and the displacement vector: 0.0158477907271965
The angle: 89.0919504642057
Setting atom values ...
  1 settings made for x
  1 settings made for y
  1 settings made for z
Setting up cg style minimization ...
  Unit style    : metal
  Current step  : 777
Per MPI rank memory allocation (min/avg/max) = 5.441 | 5.816 | 6.074 Mbytes
Step PotEng KinEng TotEng v_fx v_fy v_fz 
     777   -1152449.3            0   -1152449.3  0.032228654 -0.0070106409   0.04052869 
     953   -1152449.3            0   -1152449.3 1.560483e-05 1.6805105e-05 2.0157006e-05 
Loop time of 2.08205 on 104 procs for 176 steps with 288751 atoms

99.9% CPU use with 104 MPI tasks x 1 OpenMP threads

Minimization stats:
  Stopping criterion = energy tolerance
  Energy initial, next-to-last, final = 
     -1152449.31355304  -1152449.31666275  -1152449.31666275
  Force two-norm initial, final = 0.2510678 0.00018124837
  Force max component initial, final = 0.11218874 2.8226069e-05
  Final line search alpha, max atom move = 1.0000000 2.8226069e-05
  Iterations, force evaluations = 176 352

MPI task timing breakdown:
Section |  min time  |  avg time  |  max time  |%varavg| %total
---------------------------------------------------------------
Pair    | 0.53048    | 1.4804     | 1.9261     |  33.1 | 71.11
Neigh   | 0          | 0          | 0          |   0.0 |  0.00
Comm    | 0.029089   | 0.33837    | 1.0122     |  47.7 | 16.25
Output  | 0          | 0          | 0          |   0.0 |  0.00
Modify  | 2.1827e-05 | 0.0029045  | 0.0062396  |   2.5 |  0.14
Other   |            | 0.2603     |            |       | 12.50

Nlocal:        2776.45 ave        3960 max           0 min
Histogram: 8 4 4 0 4 12 8 2 28 34
Nghost:        3879.11 ave        5426 max         232 min
Histogram: 8 0 8 0 16 0 8 8 16 40
Neighs:        79213.3 ave      115422 max           0 min
Histogram: 8 4 4 0 10 6 8 8 24 32

Total # of neighbors = 8238183
Ave neighs/atom = 28.530405
Neighbor list builds = 0
Dangerous builds = 0
The dot product: 1.12791544315742e-06
The cos of the angle between the force vector and the displacement vector: 0.0369415976586273
The angle: 87.8829206561561
Setting atom values ...
  1 settings made for x
  1 settings made for y
  1 settings made for z
Setting up cg style minimization ...
  Unit style    : metal
  Current step  : 953
Per MPI rank memory allocation (min/avg/max) = 5.441 | 5.816 | 6.074 Mbytes
Step PotEng KinEng TotEng v_fx v_fy v_fz 
     953   -1152449.3            0   -1152449.3  0.029650392 -0.011839558  0.041470551 
    1000   -1152449.3            0   -1152449.3 -8.038529e-05 -5.0730568e-05 -0.00011341982 
    1151   -1152449.3            0   -1152449.3 4.7186604e-06 5.2816388e-06 6.6853088e-06 
Loop time of 2.29468 on 104 procs for 198 steps with 288751 atoms

99.9% CPU use with 104 MPI tasks x 1 OpenMP threads

Minimization stats:
  Stopping criterion = energy tolerance
  Energy initial, next-to-last, final = 
     -1152449.29862361  -1152449.30166073  -1152449.30166073
  Force two-norm initial, final = 0.24894344 7.3993412e-05
  Force max component initial, final = 0.10824099 1.5375593e-05
  Final line search alpha, max atom move = 1.0000000 1.5375593e-05
  Iterations, force evaluations = 198 396

MPI task timing breakdown:
Section |  min time  |  avg time  |  max time  |%varavg| %total
---------------------------------------------------------------
Pair    | 0.59267    | 1.6643     | 2.1592     |  34.9 | 72.53
Neigh   | 0          | 0          | 0          |   0.0 |  0.00
Comm    | 0.034776   | 0.37228    | 1.1272     |  51.8 | 16.22
Output  | 0.00015693 | 0.0001599  | 0.00026102 |   0.0 |  0.01
Modify  | 2.5474e-05 | 0.0032588  | 0.0069584  |   2.7 |  0.14
Other   |            | 0.2547     |            |       | 11.10

Nlocal:        2776.45 ave        3960 max           0 min
Histogram: 8 4 4 0 4 12 8 3 27 34
Nghost:        3879.12 ave        5426 max         232 min
Histogram: 8 0 8 0 16 0 8 8 16 40
Neighs:        79213.3 ave      115422 max           0 min
Histogram: 8 4 4 0 10 6 8 8 24 32

Total # of neighbors = 8238184
Ave neighs/atom = 28.530409
Neighbor list builds = 0
Dangerous builds = 0
The dot product: 3.22792112639619e-07
The cos of the angle between the force vector and the displacement vector: 0.0331431067948905
The angle: 88.1006920316967
Setting atom values ...
  1 settings made for x
  1 settings made for y
  1 settings made for z
Setting up cg style minimization ...
  Unit style    : metal
  Current step  : 1151
Per MPI rank memory allocation (min/avg/max) = 5.441 | 5.816 | 6.074 Mbytes
Step PotEng KinEng TotEng v_fx v_fy v_fz 
    1151   -1152449.3            0   -1152449.3  0.024200426 -0.015576612  0.037665907 
    1328   -1152449.3            0   -1152449.3 -2.6395098e-06 -8.2707683e-06 -4.032616e-06 
Loop time of 2.04617 on 104 procs for 177 steps with 288751 atoms

99.9% CPU use with 104 MPI tasks x 1 OpenMP threads

Minimization stats:
  Stopping criterion = energy tolerance
  Energy initial, next-to-last, final = 
     -1152449.28128468  -1152449.28424263  -1152449.28424263
  Force two-norm initial, final = 0.24541183 0.00012914422
  Force max component initial, final = 0.1119146 8.5296514e-06
  Final line search alpha, max atom move = 1.0000000 8.5296514e-06
  Iterations, force evaluations = 177 354

MPI task timing breakdown:
Section |  min time  |  avg time  |  max time  |%varavg| %total
---------------------------------------------------------------
Pair    | 0.53588    | 1.4813     | 1.9211     |  32.8 | 72.39
Neigh   | 0          | 0          | 0          |   0.0 |  0.00
Comm    | 0.029046   | 0.33636    | 1.0191     |  48.6 | 16.44
Output  | 0          | 0          | 0          |   0.0 |  0.00
Modify  | 2.0811e-05 | 0.0029238  | 0.0063077  |   2.6 |  0.14
Other   |            | 0.2256     |            |       | 11.03

Nlocal:        2776.45 ave        3960 max           0 min
Histogram: 8 4 4 0 4 12 8 4 26 34
Nghost:        3879.09 ave        5426 max         232 min
Histogram: 8 0 8 0 16 0 8 8 16 40
Neighs:        79213.3 ave      115431 max           0 min
Histogram: 8 4 4 0 10 6 8 8 24 32

Total # of neighbors = 8238183
Ave neighs/atom = 28.530405
Neighbor list builds = 0
Dangerous builds = 0
The dot product: -7.12570489784866e-08
The cos of the angle between the force vector and the displacement vector: -0.00744385767353033
The angle: 90.4265055669025
Setting atom values ...
  1 settings made for x
  1 settings made for y
  1 settings made for z
Setting up cg style minimization ...
  Unit style    : metal
  Current step  : 1328
Per MPI rank memory allocation (min/avg/max) = 5.441 | 5.816 | 6.074 Mbytes
Step PotEng KinEng TotEng v_fx v_fy v_fz 
    1328   -1152449.3            0   -1152449.3  0.018874556 -0.017199729  0.032303616 
    1505   -1152449.3            0   -1152449.3 -2.4240536e-05 -2.225432e-05 -4.0052697e-05 
Loop time of 2.05753 on 104 procs for 177 steps with 288751 atoms

99.9% CPU use with 104 MPI tasks x 1 OpenMP threads

Minimization stats:
  Stopping criterion = energy tolerance
  Energy initial, next-to-last, final = 
     -1152449.26123475  -1152449.26410891  -1152449.26410891
  Force two-norm initial, final = 0.24235102 0.00015278124
  Force max component initial, final = 0.11759387 4.0052697e-05
  Final line search alpha, max atom move = 1.0000000 4.0052697e-05
  Iterations, force evaluations = 177 354

MPI task timing breakdown:
Section |  min time  |  avg time  |  max time  |%varavg| %total
---------------------------------------------------------------
Pair    | 0.53198    | 1.4894     | 1.9265     |  33.0 | 72.39
Neigh   | 0          | 0          | 0          |   0.0 |  0.00
Comm    | 0.029529   | 0.33495    | 1.0225     |  48.9 | 16.28
Output  | 0          | 0          | 0          |   0.0 |  0.00
Modify  | 2.1556e-05 | 0.0029176  | 0.006253   |   2.5 |  0.14
Other   |            | 0.2302     |            |       | 11.19

Nlocal:        2776.45 ave        3960 max           0 min
Histogram: 8 4 4 0 4 12 8 4 26 34
Nghost:        3879.09 ave        5426 max         232 min
Histogram: 8 0 8 0 16 0 8 8 16 40
Neighs:        79213.3 ave      115431 max           0 min
Histogram: 8 4 4 0 10 6 8 8 24 32

Total # of neighbors = 8238182
Ave neighs/atom = 28.530402
Neighbor list builds = 0
Dangerous builds = 0
The dot product: -9.51022928841102e-07
The cos of the angle between the force vector and the displacement vector: -0.0183464034711531
The angle: 91.0512304661346
Setting atom values ...
  1 settings made for x
  1 settings made for y
  1 settings made for z
Setting up cg style minimization ...
  Unit style    : metal
  Current step  : 1505
Per MPI rank memory allocation (min/avg/max) = 5.441 | 5.816 | 6.074 Mbytes
Step PotEng KinEng TotEng v_fx v_fy v_fz 
    1505   -1152449.2            0   -1152449.2  0.014419668 -0.017654895  0.026815472 
    1687   -1152449.2            0   -1152449.2 3.8941672e-06 7.1956667e-07 6.916568e-06 
Loop time of 2.11741 on 104 procs for 182 steps with 288751 atoms

99.9% CPU use with 104 MPI tasks x 1 OpenMP threads

Minimization stats:
  Stopping criterion = energy tolerance
  Energy initial, next-to-last, final = 
     -1152449.23819033  -1152449.24099476  -1152449.24099476
  Force two-norm initial, final = 0.24028097 0.00013089355
  Force max component initial, final = 0.12258305 2.4028204e-05
  Final line search alpha, max atom move = 1.0000000 2.4028204e-05
  Iterations, force evaluations = 182 364

MPI task timing breakdown:
Section |  min time  |  avg time  |  max time  |%varavg| %total
---------------------------------------------------------------
Pair    | 0.55245    | 1.5267     | 1.9791     |  33.3 | 72.10
Neigh   | 0          | 0          | 0          |   0.0 |  0.00
Comm    | 0.034892   | 0.34569    | 1.049      |  49.3 | 16.33
Output  | 0          | 0          | 0          |   0.0 |  0.00
Modify  | 2.1444e-05 | 0.0029994  | 0.006423   |   2.6 |  0.14
Other   |            | 0.242      |            |       | 11.43

Nlocal:        2776.45 ave        3960 max           0 min
Histogram: 8 4 4 0 4 12 8 5 25 34
Nghost:        3879.09 ave        5426 max         232 min
Histogram: 8 0 8 0 16 0 8 8 16 40
Neighs:        79213.3 ave      115431 max           0 min
Histogram: 8 4 4 0 10 6 8 8 24 32

Total # of neighbors = 8238181
Ave neighs/atom = 28.530398
Neighbor list builds = 0
Dangerous builds = 0
The dot product: 1.40459791867014e-07
The cos of the angle between the force vector and the displacement vector: 0.0176235169218006
The angle: 88.9901945833035
Setting atom values ...
  1 settings made for x
  1 settings made for y
  1 settings made for z
Setting up cg style minimization ...
  Unit style    : metal
  Current step  : 1687
Per MPI rank memory allocation (min/avg/max) = 5.441 | 5.816 | 6.074 Mbytes
Step PotEng KinEng TotEng v_fx v_fy v_fz 
    1687   -1152449.2            0   -1152449.2  0.011087625  -0.01733989  0.022203471 
    1892   -1152449.2            0   -1152449.2 -1.4053432e-05 -1.8509823e-05 -2.4671751e-05 
Loop time of 2.38338 on 104 procs for 205 steps with 288751 atoms

99.9% CPU use with 104 MPI tasks x 1 OpenMP threads

Minimization stats:
  Stopping criterion = energy tolerance
  Energy initial, next-to-last, final = 
     -1152449.21192991  -1152449.21468362  -1152449.21468362
  Force two-norm initial, final = 0.23911189 8.2044509e-05
  Force max component initial, final = 0.12687483 2.4671751e-05
  Final line search alpha, max atom move = 1.0000000 2.4671751e-05
  Iterations, force evaluations = 205 410

MPI task timing breakdown:
Section |  min time  |  avg time  |  max time  |%varavg| %total
---------------------------------------------------------------
Pair    | 0.61916    | 1.7276     | 2.2318     |  35.5 | 72.48
Neigh   | 0          | 0          | 0          |   0.0 |  0.00
Comm    | 0.040981   | 0.39174    | 1.2028     |  52.5 | 16.44
Output  | 0          | 0          | 0          |   0.0 |  0.00
Modify  | 2.5813e-05 | 0.0033773  | 0.007196   |   2.7 |  0.14
Other   |            | 0.2607     |            |       | 10.94

Nlocal:        2776.45 ave        3960 max           0 min
Histogram: 8 4 4 0 4 12 8 6 24 34
Nghost:        3879.09 ave        5426 max         232 min
Histogram: 8 0 8 0 16 0 8 8 16 40
Neighs:        79213.3 ave      115431 max           0 min
Histogram: 8 4 4 0 10 6 8 8 24 32

Total # of neighbors = 8238182
Ave neighs/atom = 28.530402
Neighbor list builds = 0
Dangerous builds = 0
The dot product: -1.9632668446801e-07
The cos of the angle between the force vector and the displacement vector: -0.0057923614251108
The angle: 90.3318797189318
Setting atom values ...
  1 settings made for x
  1 settings made for y
  1 settings made for z
Setting up cg style minimization ...
  Unit style    : metal
  Current step  : 1892
Per MPI rank memory allocation (min/avg/max) = 5.441 | 5.816 | 6.074 Mbytes
Step PotEng KinEng TotEng v_fx v_fy v_fz 
    1892   -1152449.2            0   -1152449.2 0.0085916199 -0.016982373  0.018473099 
    2000   -1152449.2            0   -1152449.2 7.4866982e-05 3.5370088e-05 0.00014070312 
    2074   -1152449.2            0   -1152449.2 1.1460167e-05 5.5912299e-06 2.1518381e-05 
Loop time of 2.09697 on 104 procs for 182 steps with 288751 atoms

99.9% CPU use with 104 MPI tasks x 1 OpenMP threads

Minimization stats:
  Stopping criterion = energy tolerance
  Energy initial, next-to-last, final = 
      -1152449.1822737  -1152449.18499791  -1152449.18499791
  Force two-norm initial, final = 0.23881267 0.0001472367
  Force max component initial, final = 0.13073697 2.3762181e-05
  Final line search alpha, max atom move = 1.0000000 2.3762181e-05
  Iterations, force evaluations = 182 364

MPI task timing breakdown:
Section |  min time  |  avg time  |  max time  |%varavg| %total
---------------------------------------------------------------
Pair    | 0.54796    | 1.5256     | 1.9782     |  33.5 | 72.75
Neigh   | 0          | 0          | 0          |   0.0 |  0.00
Comm    | 0.031015   | 0.34403    | 1.0401     |  49.4 | 16.41
Output  | 0.00014378 | 0.00014659 | 0.00027893 |   0.0 |  0.01
Modify  | 2.1589e-05 | 0.0029929  | 0.0064154  |   2.6 |  0.14
Other   |            | 0.2242     |            |       | 10.69

Nlocal:        2776.45 ave        3960 max           0 min
Histogram: 8 4 4 0 4 12 8 6 24 34
Nghost:        3879.17 ave        5427 max         232 min
Histogram: 8 0 8 0 16 0 8 8 16 40
Neighs:        79213.3 ave      115422 max           0 min
Histogram: 8 4 4 0 10 6 8 8 24 32

Total # of neighbors = 8238182
Ave neighs/atom = 28.530402
Neighbor list builds = 0
Dangerous builds = 0
The dot product: 2.02376189376234e-07
The cos of the angle between the force vector and the displacement vector: 0.00809091908745269
The angle: 89.5364194259197
Setting atom values ...
  1 settings made for x
  1 settings made for y
  1 settings made for z
Setting up cg style minimization ...
  Unit style    : metal
  Current step  : 2074
Per MPI rank memory allocation (min/avg/max) = 5.441 | 5.816 | 6.074 Mbytes
Step PotEng KinEng TotEng v_fx v_fy v_fz 
    2074   -1152449.1            0   -1152449.1 0.0066881092 -0.017301018  0.015577555 
    2251   -1152449.2            0   -1152449.2 7.8955632e-06 7.5994212e-06 1.4633017e-05 
Loop time of 2.05244 on 104 procs for 177 steps with 288751 atoms

99.9% CPU use with 104 MPI tasks x 1 OpenMP threads

Minimization stats:
  Stopping criterion = energy tolerance
  Energy initial, next-to-last, final = 
     -1152449.14906331  -1152449.15178131  -1152449.15178131
  Force two-norm initial, final = 0.23947327 0.00020194318
  Force max component initial, final = 0.1342771 3.4460968e-05
  Final line search alpha, max atom move = 1.0000000 3.4460968e-05
  Iterations, force evaluations = 177 354

MPI task timing breakdown:
Section |  min time  |  avg time  |  max time  |%varavg| %total
---------------------------------------------------------------
Pair    | 0.53559    | 1.4903     | 1.929      |  33.0 | 72.61
Neigh   | 0          | 0          | 0          |   0.0 |  0.00
Comm    | 0.029039   | 0.3365     | 1.0211     |  49.0 | 16.40
Output  | 0          | 0          | 0          |   0.0 |  0.00
Modify  | 2.0924e-05 | 0.0029164  | 0.0062555  |   2.6 |  0.14
Other   |            | 0.2227     |            |       | 10.85

Nlocal:        2776.45 ave        3959 max           0 min
Histogram: 8 4 4 0 4 12 8 6 24 34
Nghost:        3879.18 ave        5427 max         232 min
Histogram: 8 0 8 0 16 0 8 8 16 40
Neighs:        79213.3 ave      115372 max           0 min
Histogram: 8 4 4 0 10 6 8 8 24 32

Total # of neighbors = 8238183
Ave neighs/atom = 28.530405
Neighbor list builds = 0
Dangerous builds = 0
The dot product: 6.94774860455024e-08
The cos of the angle between the force vector and the displacement vector: 0.00380040854105028
The angle: 89.7822521060107
Setting atom values ...
  1 settings made for x
  1 settings made for y
  1 settings made for z
Setting up cg style minimization ...
  Unit style    : metal
  Current step  : 2251
Per MPI rank memory allocation (min/avg/max) = 5.441 | 5.816 | 6.074 Mbytes
Step PotEng KinEng TotEng v_fx v_fy v_fz 
    2251   -1152449.1            0   -1152449.1 0.0050955019 -0.018742195  0.013267425 
    2438   -1152449.1            0   -1152449.1 1.6771712e-06 5.1807579e-06 2.5803271e-06 
Loop time of 2.16261 on 104 procs for 187 steps with 288751 atoms

99.9% CPU use with 104 MPI tasks x 1 OpenMP threads

Minimization stats:
  Stopping criterion = energy tolerance
  Energy initial, next-to-last, final = 
     -1152449.11214611  -1152449.11488635  -1152449.11488635
  Force two-norm initial, final = 0.24131545 0.00014011042
  Force max component initial, final = 0.13769435 1.3915103e-05
  Final line search alpha, max atom move = 1.0000000 1.3915103e-05
  Iterations, force evaluations = 187 374

MPI task timing breakdown:
Section |  min time  |  avg time  |  max time  |%varavg| %total
---------------------------------------------------------------
Pair    | 0.56257    | 1.5629     | 2.0266     |  33.8 | 72.27
Neigh   | 0          | 0          | 0          |   0.0 |  0.00
Comm    | 0.031038   | 0.35563    | 1.0767     |  49.8 | 16.44
Output  | 0          | 0          | 0          |   0.0 |  0.00
Modify  | 2.1852e-05 | 0.0030808  | 0.0066944  |   2.6 |  0.14
Other   |            | 0.241      |            |       | 11.15

Nlocal:        2776.45 ave        3959 max           0 min
Histogram: 8 4 4 0 4 12 8 6 24 34
Nghost:        3879.18 ave        5427 max         232 min
Histogram: 8 0 8 0 16 0 8 8 16 40
Neighs:        79213.3 ave      115387 max           0 min
Histogram: 8 4 4 0 10 6 8 8 24 32

Total # of neighbors = 8238183
Ave neighs/atom = 28.530405
Neighbor list builds = 0
Dangerous builds = 0
The dot product: -2.84048549874823e-08
The cos of the angle between the force vector and the displacement vector: -0.00471380936042788
The angle: 90.2700823819934
Setting atom values ...
  1 settings made for x
  1 settings made for y
  1 settings made for z
Setting up cg style minimization ...
  Unit style    : metal
  Current step  : 2438
Per MPI rank memory allocation (min/avg/max) = 5.441 | 5.816 | 6.074 Mbytes
Step PotEng KinEng TotEng v_fx v_fy v_fz 
    2438   -1152449.1            0   -1152449.1 0.0038915825 -0.021011441  0.011849806 
    2660   -1152449.1            0   -1152449.1 -6.1498644e-06 -9.5701093e-06 -1.093842e-05 
Loop time of 2.58687 on 104 procs for 222 steps with 288751 atoms

99.9% CPU use with 104 MPI tasks x 1 OpenMP threads

Minimization stats:
  Stopping criterion = energy tolerance
  Energy initial, next-to-last, final = 
     -1152449.07138041  -1152449.07417369  -1152449.07417369
  Force two-norm initial, final = 0.24448281 4.5253315e-05
  Force max component initial, final = 0.14108425 1.0938420e-05
  Final line search alpha, max atom move = 1.0000000 1.0938420e-05
  Iterations, force evaluations = 222 444

MPI task timing breakdown:
Section |  min time  |  avg time  |  max time  |%varavg| %total
---------------------------------------------------------------
Pair    | 0.66995    | 1.8659     | 2.4202     |  36.9 | 72.13
Neigh   | 0          | 0          | 0          |   0.0 |  0.00
Comm    | 0.042774   | 0.42169    | 1.2713     |  54.4 | 16.30
Output  | 0          | 0          | 0          |   0.0 |  0.00
Modify  | 2.5823e-05 | 0.0036619  | 0.0078373  |   2.9 |  0.14
Other   |            | 0.2956     |            |       | 11.43

Nlocal:        2776.45 ave        3959 max           0 min
Histogram: 8 4 4 0 4 12 8 6 24 34
Nghost:        3879.22 ave        5427 max         232 min
Histogram: 8 0 8 0 16 0 8 8 16 40
Neighs:        79213.3 ave      115387 max           0 min
Histogram: 8 4 4 0 10 6 8 8 24 32

Total # of neighbors = 8238179
Ave neighs/atom = 28.530391
Neighbor list builds = 0
Dangerous builds = 0
The dot product: 1.83122064431642e-08
The cos of the angle between the force vector and the displacement vector: 0.00116035645246096
The angle: 89.9335164576242
Setting atom values ...
  1 settings made for x
  1 settings made for y
  1 settings made for z
Setting up cg style minimization ...
  Unit style    : metal
  Current step  : 2660
Per MPI rank memory allocation (min/avg/max) = 5.441 | 5.816 | 6.074 Mbytes
Step PotEng KinEng TotEng v_fx v_fy v_fz 
    2660     -1152449            0     -1152449 0.0032562629 -0.023431619  0.011736868 
    2895     -1152449            0     -1152449 4.7612996e-07 1.2238396e-06 7.4243487e-07 
Loop time of 2.72257 on 104 procs for 235 steps with 288751 atoms

99.9% CPU use with 104 MPI tasks x 1 OpenMP threads

Minimization stats:
  Stopping criterion = energy tolerance
  Energy initial, next-to-last, final = 
     -1152449.02664012   -1152449.0295143   -1152449.0295143
  Force two-norm initial, final = 0.24895652 2.4614714e-05
  Force max component initial, final = 0.14473749 1.2238396e-06
  Final line search alpha, max atom move = 1.0000000 1.2238396e-06
  Iterations, force evaluations = 235 470

MPI task timing breakdown:
Section |  min time  |  avg time  |  max time  |%varavg| %total
---------------------------------------------------------------
Pair    | 0.71034    | 1.9675     | 2.5558     |  37.9 | 72.27
Neigh   | 0          | 0          | 0          |   0.0 |  0.00
Comm    | 0.038169   | 0.44497    | 1.3529     |  55.9 | 16.34
Output  | 0          | 0          | 0          |   0.0 |  0.00
Modify  | 2.7232e-05 | 0.0038824  | 0.0082735  |   2.9 |  0.14
Other   |            | 0.3062     |            |       | 11.25

Nlocal:        2776.45 ave        3959 max           0 min
Histogram: 8 4 4 0 4 12 8 6 24 34
Nghost:        3879.16 ave        5427 max         232 min
Histogram: 8 0 8 0 16 0 8 8 16 40
Neighs:        79213.3 ave      115380 max           0 min
Histogram: 8 4 4 0 10 6 8 8 24 32

Total # of neighbors = 8238179
Ave neighs/atom = 28.530391
Neighbor list builds = 0
Dangerous builds = 0
The dot product: -8.51250201165998e-09
The cos of the angle between the force vector and the displacement vector: -0.00564287491607355
The angle: 90.3233146328594
Setting atom values ...
  1 settings made for x
  1 settings made for y
  1 settings made for z
Setting up cg style minimization ...
  Unit style    : metal
  Current step  : 2895
Per MPI rank memory allocation (min/avg/max) = 5.441 | 5.816 | 6.074 Mbytes
Step PotEng KinEng TotEng v_fx v_fy v_fz 
    2895     -1152449            0     -1152449 0.0033881148 -0.024917637   0.01323135 
    3000     -1152449            0     -1152449 -2.4581693e-06 8.3419453e-05 -2.5323254e-05 
    3121     -1152449            0     -1152449 6.1748687e-07 -3.3575209e-06 2.1265718e-06 
Loop time of 2.62012 on 104 procs for 226 steps with 288751 atoms

99.9% CPU use with 104 MPI tasks x 1 OpenMP threads

Minimization stats:
  Stopping criterion = energy tolerance
  Energy initial, next-to-last, final = 
     -1152448.97782974  -1152448.98080844  -1152448.98080844
  Force two-norm initial, final = 0.25413861 4.7890812e-05
  Force max component initial, final = 0.14875049 1.1362464e-05
  Final line search alpha, max atom move = 1.0000000 1.1362464e-05
  Iterations, force evaluations = 226 452

MPI task timing breakdown:
Section |  min time  |  avg time  |  max time  |%varavg| %total
---------------------------------------------------------------
Pair    | 0.68714    | 1.899      | 2.4537     |  37.1 | 72.48
Neigh   | 0          | 0          | 0          |   0.0 |  0.00
Comm    | 0.043932   | 0.42793    | 1.3012     |  55.2 | 16.33
Output  | 0.00015846 | 0.00016094 | 0.00031453 |   0.0 |  0.01
Modify  | 2.8733e-05 | 0.0037324  | 0.0080321  |   2.9 |  0.14
Other   |            | 0.2893     |            |       | 11.04

Nlocal:        2776.45 ave        3959 max           0 min
Histogram: 8 4 4 0 4 12 8 6 24 34
Nghost:        3879.14 ave        5427 max         232 min
Histogram: 8 0 8 0 16 0 8 8 16 40
Neighs:        79213.2 ave      115380 max           0 min
Histogram: 8 4 4 0 10 6 8 8 24 32

Total # of neighbors = 8238177
Ave neighs/atom = 28.530384
Neighbor list builds = 0
Dangerous builds = 0
The dot product: 6.08855444816196e-08
The cos of the angle between the force vector and the displacement vector: 0.015138098004834
The angle: 89.1326177438058
Setting atom values ...
  1 settings made for x
  1 settings made for y
  1 settings made for z
Setting up cg style minimization ...
  Unit style    : metal
  Current step  : 3121
Per MPI rank memory allocation (min/avg/max) = 5.441 | 5.816 | 6.074 Mbytes
Step PotEng KinEng TotEng v_fx v_fy v_fz 
    3121   -1152448.9            0   -1152448.9 0.0043229185 -0.024208786   0.01611102 
    3359   -1152448.9            0   -1152448.9 -2.2248725e-06 -7.8995097e-06 -2.6666288e-06 
Loop time of 2.74891 on 104 procs for 238 steps with 288751 atoms

99.9% CPU use with 104 MPI tasks x 1 OpenMP threads

Minimization stats:
  Stopping criterion = energy tolerance
  Energy initial, next-to-last, final = 
     -1152448.92489589   -1152448.9279884   -1152448.9279884
  Force two-norm initial, final = 0.25923076 3.0559849e-05
  Force max component initial, final = 0.15321663 8.2632580e-06
  Final line search alpha, max atom move = 1.0000000 8.2632580e-06
  Iterations, force evaluations = 238 476

MPI task timing breakdown:
Section |  min time  |  avg time  |  max time  |%varavg| %total
---------------------------------------------------------------
Pair    | 0.72408    | 1.9911     | 2.5818     |  37.9 | 72.43
Neigh   | 0          | 0          | 0          |   0.0 |  0.00
Comm    | 0.039391   | 0.45083    | 1.3668     |  56.3 | 16.40
Output  | 0          | 0          | 0          |   0.0 |  0.00
Modify  | 2.7835e-05 | 0.0039188  | 0.0084083  |   3.0 |  0.14
Other   |            | 0.3031     |            |       | 11.03

Nlocal:        2776.45 ave        3959 max           0 min
Histogram: 8 4 4 0 4 12 8 6 24 34
Nghost:        3879.02 ave        5427 max         232 min
Histogram: 8 0 8 0 16 0 8 8 16 40
Neighs:        79213.2 ave      115379 max           0 min
Histogram: 8 4 4 0 10 6 8 8 24 32

Total # of neighbors = 8238178
Ave neighs/atom = 28.530388
Neighbor list builds = 0
Dangerous builds = 0
The dot product: 7.95574657667135e-08
The cos of the angle between the force vector and the displacement vector: 0.00921955654599338
The angle: 89.4717508372027
Setting atom values ...
  1 settings made for x
  1 settings made for y
  1 settings made for z
Setting up cg style minimization ...
  Unit style    : metal
  Current step  : 3359
Per MPI rank memory allocation (min/avg/max) = 5.441 | 5.816 | 6.074 Mbytes
Step PotEng KinEng TotEng v_fx v_fy v_fz 
    3359   -1152448.9            0   -1152448.9 0.0057805991  -0.02057782   0.01941866 
    3564   -1152448.9            0   -1152448.9 -1.0148563e-05 -3.354331e-05 -1.2055655e-05 
Loop time of 2.40918 on 104 procs for 205 steps with 288751 atoms

99.9% CPU use with 104 MPI tasks x 1 OpenMP threads

Minimization stats:
  Stopping criterion = energy tolerance
  Energy initial, next-to-last, final = 
     -1152448.86782742  -1152448.87101905  -1152448.87101905
  Force two-norm initial, final = 0.26341122 0.00011860566
  Force max component initial, final = 0.158115 3.3543310e-05
  Final line search alpha, max atom move = 1.0000000 3.3543310e-05
  Iterations, force evaluations = 205 410

MPI task timing breakdown:
Section |  min time  |  avg time  |  max time  |%varavg| %total
---------------------------------------------------------------
Pair    | 0.62842    | 1.7312     | 2.2282     |  35.3 | 71.86
Neigh   | 0          | 0          | 0          |   0.0 |  0.00
Comm    | 0.045798   | 0.3937     | 1.2013     |  52.7 | 16.34
Output  | 0          | 0          | 0          |   0.0 |  0.00
Modify  | 2.3693e-05 | 0.0033808  | 0.0072403  |   2.7 |  0.14
Other   |            | 0.2809     |            |       | 11.66

Nlocal:        2776.45 ave        3958 max           0 min
Histogram: 8 4 4 0 4 12 8 6 24 34
Nghost:        3878.94 ave        5427 max         232 min
Histogram: 8 0 8 0 16 0 8 8 16 40
Neighs:        79213.3 ave      115347 max           0 min
Histogram: 8 4 4 0 10 6 8 8 24 32

Total # of neighbors = 8238179
Ave neighs/atom = 28.530391
Neighbor list builds = 0
Dangerous builds = 0
The dot product: 3.27586900303406e-07
The cos of the angle between the force vector and the displacement vector: 0.00883923010002075
The angle: 89.4935428258934
Setting atom values ...
  1 settings made for x
  1 settings made for y
  1 settings made for z
Setting up cg style minimization ...
  Unit style    : metal
  Current step  : 3564
Per MPI rank memory allocation (min/avg/max) = 5.441 | 5.816 | 6.074 Mbytes
Step PotEng KinEng TotEng v_fx v_fy v_fz 
    3564   -1152448.8            0   -1152448.8 0.0076483434 -0.015861128  0.023324311 
    3757   -1152448.8            0   -1152448.8 8.8010326e-06 2.2415627e-05 1.2146249e-05 
Loop time of 2.24384 on 104 procs for 193 steps with 288751 atoms

99.9% CPU use with 104 MPI tasks x 1 OpenMP threads

Minimization stats:
  Stopping criterion = energy tolerance
  Energy initial, next-to-last, final = 
     -1152448.80666428  -1152448.80995133  -1152448.80995133
  Force two-norm initial, final = 0.26637176 0.00014998816
  Force max component initial, final = 0.16350192 3.9228478e-05
  Final line search alpha, max atom move = 1.0000000 3.9228478e-05
  Iterations, force evaluations = 193 386

MPI task timing breakdown:
Section |  min time  |  avg time  |  max time  |%varavg| %total
---------------------------------------------------------------
Pair    | 0.59065    | 1.6197     | 2.0934     |  34.3 | 72.18
Neigh   | 0          | 0          | 0          |   0.0 |  0.00
Comm    | 0.032686   | 0.36962    | 1.1183     |  50.5 | 16.47
Output  | 0          | 0          | 0          |   0.0 |  0.00
Modify  | 2.2988e-05 | 0.0031875  | 0.0069392  |   2.7 |  0.14
Other   |            | 0.2514     |            |       | 11.20

Nlocal:        2776.45 ave        3957 max           0 min
Histogram: 8 4 4 0 4 12 8 6 24 34
Nghost:        3878.88 ave        5427 max         232 min
Histogram: 8 0 8 0 16 0 8 8 16 40
Neighs:        79213.2 ave      115318 max           0 min
Histogram: 8 4 4 0 10 6 8 8 24 32

Total # of neighbors = 8238174
Ave neighs/atom = 28.530374
Neighbor list builds = 0
Dangerous builds = 0
The dot product: -1.71187712033623e-07
The cos of the angle between the force vector and the displacement vector: -0.00634703731302832
The angle: 90.3636608921492
Setting atom values ...
  1 settings made for x
  1 settings made for y
  1 settings made for z
Setting up cg style minimization ...
  Unit style    : metal
  Current step  : 3757
Per MPI rank memory allocation (min/avg/max) = 5.441 | 5.816 | 6.074 Mbytes
Step PotEng KinEng TotEng v_fx v_fy v_fz 
    3757   -1152448.7            0   -1152448.7  0.010754653 -0.015084944  0.032050842 
    3943   -1152448.7            0   -1152448.7 -2.8363884e-06 2.9678376e-05 -1.919735e-05 
Loop time of 2.17937 on 104 procs for 186 steps with 288751 atoms

99.9% CPU use with 104 MPI tasks x 1 OpenMP threads

Minimization stats:
  Stopping criterion = energy tolerance
  Energy initial, next-to-last, final = 
     -1152448.74159643  -1152448.74512591  -1152448.74512591
  Force two-norm initial, final = 0.26892053 0.00016125313
  Force max component initial, final = 0.16997222 4.2904908e-05
  Final line search alpha, max atom move = 1.0000000 4.2904908e-05
  Iterations, force evaluations = 186 372

MPI task timing breakdown:
Section |  min time  |  avg time  |  max time  |%varavg| %total
---------------------------------------------------------------
Pair    | 0.56754    | 1.57       | 2.0285     |  33.7 | 72.04
Neigh   | 0          | 0          | 0          |   0.0 |  0.00
Comm    | 0.040733   | 0.35869    | 1.092      |  50.2 | 16.46
Output  | 0          | 0          | 0          |   0.0 |  0.00
Modify  | 2.1683e-05 | 0.0030717  | 0.0065333  |   2.6 |  0.14
Other   |            | 0.2476     |            |       | 11.36

Nlocal:        2776.45 ave        3957 max           0 min
Histogram: 8 4 4 0 4 12 8 6 24 34
Nghost:        3878.80 ave        5427 max         232 min
Histogram: 8 0 8 0 16 0 8 8 16 40
Neighs:        79213.2 ave      115318 max           0 min
Histogram: 8 4 4 0 10 6 8 8 24 32

Total # of neighbors = 8238170
Ave neighs/atom = 28.530360
Neighbor list builds = 0
Dangerous builds = 0
The dot product: -1.24264716129677e-06
The cos of the angle between the force vector and the displacement vector: -0.0350439411964338
The angle: 92.0082811254284
Setting atom values ...
  1 settings made for x
  1 settings made for y
  1 settings made for z
Setting up cg style minimization ...
  Unit style    : metal
  Current step  : 3943
Per MPI rank memory allocation (min/avg/max) = 5.441 | 5.816 | 6.074 Mbytes
Step PotEng KinEng TotEng v_fx v_fy v_fz 
    3943   -1152448.7            0   -1152448.7  0.016619998  -0.03488728  0.060834994 
    4000   -1152448.7            0   -1152448.7 -0.00016212994 -0.00033550176 -0.00024295126 
    4142   -1152448.7            0   -1152448.7 -8.3270299e-06 -1.5387978e-05 -1.3434093e-05 
Loop time of 2.31293 on 104 procs for 199 steps with 288751 atoms

99.9% CPU use with 104 MPI tasks x 1 OpenMP threads

Minimization stats:
  Stopping criterion = energy tolerance
  Energy initial, next-to-last, final = 
     -1152448.67335363  -1152448.67831448  -1152448.67831448
  Force two-norm initial, final = 0.27893672 0.00011232967
  Force max component initial, final = 0.18020396 1.9990167e-05
  Final line search alpha, max atom move = 1.0000000 1.9990167e-05
  Iterations, force evaluations = 199 398

MPI task timing breakdown:
Section |  min time  |  avg time  |  max time  |%varavg| %total
---------------------------------------------------------------
Pair    | 0.60737    | 1.6743     | 2.1572     |  34.9 | 72.39
Neigh   | 0          | 0          | 0          |   0.0 |  0.00
Comm    | 0.033102   | 0.37846    | 1.1521     |  52.0 | 16.36
Output  | 0.00012795 | 0.00013561 | 0.00025756 |   0.0 |  0.01
Modify  | 2.2941e-05 | 0.0032845  | 0.0070693  |   2.7 |  0.14
Other   |            | 0.2567     |            |       | 11.10

Nlocal:        2776.45 ave        3955 max           0 min
Histogram: 8 4 4 0 4 12 8 0 30 34
Nghost:        3878.69 ave        5427 max         232 min
Histogram: 8 0 8 0 16 0 8 8 16 40
Neighs:        79213.2 ave      115257 max           0 min
Histogram: 8 4 4 0 10 6 8 8 24 32

Total # of neighbors = 8238168
Ave neighs/atom = 28.530353
Neighbor list builds = 0
Dangerous builds = 0
The dot product: 3.90701875289786e-09
The cos of the angle between the force vector and the displacement vector: 0.000177115914569399
The angle: 89.9898520055574
Setting atom values ...
  1 settings made for x
  1 settings made for y
  1 settings made for z
Setting up cg style minimization ...
  Unit style    : metal
  Current step  : 4142
Per MPI rank memory allocation (min/avg/max) = 5.441 | 5.816 | 6.074 Mbytes
Step PotEng KinEng TotEng v_fx v_fy v_fz 
    4142   -1152448.6            0   -1152448.6   0.02021745 -0.099275304   0.13683246 
    4402   -1152448.7            0   -1152448.7 -3.7151239e-08 6.1979197e-06 -4.8409543e-06 
Loop time of 3.02289 on 104 procs for 260 steps with 288751 atoms

99.9% CPU use with 104 MPI tasks x 1 OpenMP threads

Minimization stats:
  Stopping criterion = energy tolerance
  Energy initial, next-to-last, final = 
     -1152448.60616126  -1152448.66086797  -1152448.66086797
  Force two-norm initial, final = 0.34238588 6.1228708e-05
  Force max component initial, final = 0.19960826 1.0118603e-05
  Final line search alpha, max atom move = 1.0000000 1.0118603e-05
  Iterations, force evaluations = 260 520

MPI task timing breakdown:
Section |  min time  |  avg time  |  max time  |%varavg| %total
---------------------------------------------------------------
Pair    | 0.80074    | 2.1833     | 2.8141     |  39.5 | 72.22
Neigh   | 2.0234e-05 | 0.0059026  | 0.0085835  |   3.2 |  0.20
Comm    | 0.043919   | 0.491      | 1.4958     |  59.1 | 16.24
Output  | 0          | 0          | 0          |   0.0 |  0.00
Modify  | 2.9865e-05 | 0.0042876  | 0.0092023  |   3.1 |  0.14
Other   |            | 0.3384     |            |       | 11.20

Nlocal:        2776.45 ave        3953 max           0 min
Histogram: 8 4 4 0 4 12 8 0 30 34
Nghost:        3878.63 ave        5427 max         232 min
Histogram: 8 0 8 0 16 0 8 8 16 40
Neighs:        79213.2 ave      115191 max           0 min
Histogram: 8 4 4 0 10 6 8 8 24 32

Total # of neighbors = 8238169
Ave neighs/atom = 28.530357
Neighbor list builds = 2
Dangerous builds = 0
The dot product: -1.66702777011406e-06
The cos of the angle between the force vector and the displacement vector: -0.211968575199777
The angle: 102.237740776093
Setting atom values ...
  1 settings made for x
  1 settings made for y
  1 settings made for z
Setting up cg style minimization ...
  Unit style    : metal
  Current step  : 4402
Per MPI rank memory allocation (min/avg/max) = 5.441 | 5.816 | 6.074 Mbytes
Step PotEng KinEng TotEng v_fx v_fy v_fz 
    4402   -1152448.6            0   -1152448.6 -0.040560221  -0.19422699   0.24762972 
    4611   -1152448.6            0   -1152448.6 4.5576657e-05 9.1739372e-05 4.7197638e-05 
Loop time of 2.48337 on 104 procs for 209 steps with 288751 atoms

99.9% CPU use with 104 MPI tasks x 1 OpenMP threads

Minimization stats:
  Stopping criterion = energy tolerance
  Energy initial, next-to-last, final = 
     -1152448.61047121  -1152448.63084654  -1152448.63084654
  Force two-norm initial, final = 0.46186391 0.00036965135
  Force max component initial, final = 0.25172001 0.00010433832
  Final line search alpha, max atom move = 1.0000000 0.00010433832
  Iterations, force evaluations = 209 418

MPI task timing breakdown:
Section |  min time  |  avg time  |  max time  |%varavg| %total
---------------------------------------------------------------
Pair    | 0.64188    | 1.7563     | 2.2696     |  35.6 | 70.72
Neigh   | 1.0261e-05 | 0.0029628  | 0.0043174  |   2.2 |  0.12
Comm    | 0.047935   | 0.40649    | 1.2084     |  51.9 | 16.37
Output  | 0          | 0          | 0          |   0.0 |  0.00
Modify  | 2.439e-05  | 0.0034484  | 0.007405   |   2.8 |  0.14
Other   |            | 0.3142     |            |       | 12.65

Nlocal:        2776.45 ave        3955 max           0 min
Histogram: 8 4 4 0 4 12 8 0 30 34
Nghost:        3879.03 ave        5427 max         232 min
Histogram: 8 0 8 0 16 0 8 8 16 40
Neighs:        79213.2 ave      115274 max           0 min
Histogram: 8 4 4 0 10 6 8 8 24 32

Total # of neighbors = 8238168
Ave neighs/atom = 28.530353
Neighbor list builds = 1
Dangerous builds = 0
The dot product: -3.87220453219884e-06
The cos of the angle between the force vector and the displacement vector: -0.0343319385745302
The angle: 91.9674618139503
Setting atom values ...
  1 settings made for x
  1 settings made for y
  1 settings made for z
Setting up cg style minimization ...
  Unit style    : metal
  Current step  : 4611
Per MPI rank memory allocation (min/avg/max) = 5.441 | 5.816 | 6.074 Mbytes
Step PotEng KinEng TotEng v_fx v_fy v_fz 
    4611   -1152448.6            0   -1152448.6 -0.038644189 -0.090914324   0.12041897 
    4880   -1152448.6            0   -1152448.6 3.1853374e-07 8.4807256e-07 -1.7703707e-06 
Loop time of 3.11403 on 104 procs for 269 steps with 288751 atoms

99.9% CPU use with 104 MPI tasks x 1 OpenMP threads

Minimization stats:
  Stopping criterion = energy tolerance
  Energy initial, next-to-last, final = 
     -1152448.58325127  -1152448.59070266  -1152448.59070266
  Force two-norm initial, final = 0.3862926 1.4830623e-05
  Force max component initial, final = 0.2745277 3.5962446e-06
  Final line search alpha, max atom move = 1.0000000 3.5962446e-06
  Iterations, force evaluations = 269 538

MPI task timing breakdown:
Section |  min time  |  avg time  |  max time  |%varavg| %total
---------------------------------------------------------------
Pair    | 0.81882    | 2.2621     | 2.9084     |  40.5 | 72.64
Neigh   | 0          | 0          | 0          |   0.0 |  0.00
Comm    | 0.045248   | 0.50406    | 1.5331     |  60.7 | 16.19
Output  | 0          | 0          | 0          |   0.0 |  0.00
Modify  | 3.0663e-05 | 0.0044392  | 0.009506   |   3.1 |  0.14
Other   |            | 0.3434     |            |       | 11.03

Nlocal:        2776.45 ave        3949 max           0 min
Histogram: 8 4 4 0 4 12 8 0 26 38
Nghost:        3879.01 ave        5426 max         232 min
Histogram: 8 0 8 0 16 0 8 8 16 40
Neighs:        79213.1 ave      115069 max           0 min
Histogram: 8 4 4 0 10 6 8 8 24 32

Total # of neighbors = 8238166
Ave neighs/atom = 28.530346
Neighbor list builds = 0
Dangerous builds = 0
The dot product: -8.95446237965989e-08
The cos of the angle between the force vector and the displacement vector: -0.0450268515588308
The angle: 92.580721093657
Setting atom values ...
  1 settings made for x
  1 settings made for y
  1 settings made for z
Setting up cg style minimization ...
  Unit style    : metal
  Current step  : 4880
Per MPI rank memory allocation (min/avg/max) = 5.441 | 5.816 | 6.074 Mbytes
Step PotEng KinEng TotEng v_fx v_fy v_fz 
    4880   -1152448.5            0   -1152448.5 -0.017113224 -0.033287465  0.046503653 
    5000   -1152448.5            0   -1152448.5 -1.0519065e-06 -2.0075712e-06 2.0428337e-06 
    5110   -1152448.5            0   -1152448.5 6.158847e-08 1.127598e-07 -1.8359746e-08 
Loop time of 2.67379 on 104 procs for 230 steps with 288751 atoms

99.9% CPU use with 104 MPI tasks x 1 OpenMP threads

Minimization stats:
  Stopping criterion = energy tolerance
  Energy initial, next-to-last, final = 
     -1152448.53858978  -1152448.54407551  -1152448.54407551
  Force two-norm initial, final = 0.36989501 7.1489606e-05
  Force max component initial, final = 0.28454019 2.4590612e-05
  Final line search alpha, max atom move = 1.0000000 2.4590612e-05
  Iterations, force evaluations = 230 460

MPI task timing breakdown:
Section |  min time  |  avg time  |  max time  |%varavg| %total
---------------------------------------------------------------
Pair    | 0.69709    | 1.9252     | 2.4905     |  37.4 | 72.00
Neigh   | 0          | 0          | 0          |   0.0 |  0.00
Comm    | 0.044002   | 0.43553    | 1.3244     |  55.5 | 16.29
Output  | 0.00013757 | 0.00014409 | 0.00029124 |   0.0 |  0.01
Modify  | 2.6579e-05 | 0.0037929  | 0.0080961  |   2.9 |  0.14
Other   |            | 0.3091     |            |       | 11.56

Nlocal:        2776.45 ave        3930 max           0 min
Histogram: 8 4 4 0 4 12 8 0 26 38
Nghost:        3879.03 ave        5426 max         232 min
Histogram: 8 0 8 0 16 0 8 8 16 40
Neighs:        79213.1 ave      114452 max           0 min
Histogram: 8 4 4 0 8 8 8 8 20 36

Total # of neighbors = 8238164
Ave neighs/atom = 28.530339
Neighbor list builds = 0
Dangerous builds = 0
The dot product: -1.74794710992249e-09
The cos of the angle between the force vector and the displacement vector: -0.0134676831078735
The angle: 90.77166473033
Setting atom values ...
  1 settings made for x
  1 settings made for y
  1 settings made for z
Setting up cg style minimization ...
  Unit style    : metal
  Current step  : 5110
Per MPI rank memory allocation (min/avg/max) = 5.441 | 5.816 | 6.074 Mbytes
Step PotEng KinEng TotEng v_fx v_fy v_fz 
    5110   -1152448.5            0   -1152448.5 -0.0067953485 -0.012360675  0.018076877 
    5296   -1152448.5            0   -1152448.5 -1.8953893e-06 -3.4404524e-06 4.6682852e-06 
Loop time of 2.15798 on 104 procs for 186 steps with 288751 atoms

99.9% CPU use with 104 MPI tasks x 1 OpenMP threads

Minimization stats:
  Stopping criterion = energy tolerance
  Energy initial, next-to-last, final = 
     -1152448.48670857  -1152448.49219557  -1152448.49219557
  Force two-norm initial, final = 0.37615758 0.00021609239
  Force max component initial, final = 0.29146449 6.9741453e-05
  Final line search alpha, max atom move = 1.0000000 6.9741453e-05
  Iterations, force evaluations = 186 372

MPI task timing breakdown:
Section |  min time  |  avg time  |  max time  |%varavg| %total
---------------------------------------------------------------
Pair    | 0.56485    | 1.5685     | 2.0139     |  33.8 | 72.68
Neigh   | 0          | 0          | 0          |   0.0 |  0.00
Comm    | 0.039001   | 0.35521    | 1.092      |  50.4 | 16.46
Output  | 0          | 0          | 0          |   0.0 |  0.00
Modify  | 2.305e-05  | 0.0030671  | 0.0065411  |   2.6 |  0.14
Other   |            | 0.2312     |            |       | 10.71

Nlocal:        2776.45 ave        3930 max           0 min
Histogram: 8 4 4 0 4 12 8 0 26 38
Nghost:        3879.02 ave        5431 max         232 min
Histogram: 8 0 8 0 16 0 8 8 16 40
Neighs:        79213.1 ave      114462 max           0 min
Histogram: 8 4 4 0 8 8 8 8 20 36

Total # of neighbors = 8238162
Ave neighs/atom = 28.530332
Neighbor list builds = 0
Dangerous builds = 0
The dot product: 4.28823882880934e-08
The cos of the angle between the force vector and the displacement vector: 0.00702875699321554
The angle: 89.5972785730495
Setting atom values ...
  1 settings made for x
  1 settings made for y
  1 settings made for z
Setting up cg style minimization ...
  Unit style    : metal
  Current step  : 5296
Per MPI rank memory allocation (min/avg/max) = 5.441 | 5.816 | 6.074 Mbytes
Step PotEng KinEng TotEng v_fx v_fy v_fz 
    5296   -1152448.4            0   -1152448.4 -0.0026324278 -0.0046642681 0.0071676343 
    5529   -1152448.4            0   -1152448.4 -1.271878e-08 -2.9344425e-08 8.2127261e-07 
Loop time of 2.69228 on 104 procs for 233 steps with 288751 atoms

99.9% CPU use with 104 MPI tasks x 1 OpenMP threads

Minimization stats:
  Stopping criterion = energy tolerance
  Energy initial, next-to-last, final = 
     -1152448.42948764  -1152448.43516316  -1152448.43516316
  Force two-norm initial, final = 0.38360796 4.6094590e-05
  Force max component initial, final = 0.29761619 1.5572631e-05
  Final line search alpha, max atom move = 1.0000000 1.5572631e-05
  Iterations, force evaluations = 233 466

MPI task timing breakdown:
Section |  min time  |  avg time  |  max time  |%varavg| %total
---------------------------------------------------------------
Pair    | 0.70967    | 1.9505     | 2.5192     |  37.6 | 72.45
Neigh   | 0          | 0          | 0          |   0.0 |  0.00
Comm    | 0.038579   | 0.43757    | 1.3257     |  55.9 | 16.25
Output  | 0          | 0          | 0          |   0.0 |  0.00
Modify  | 2.6889e-05 | 0.0038367  | 0.0081846  |   2.9 |  0.14
Other   |            | 0.3004     |            |       | 11.16

Nlocal:        2776.45 ave        3930 max           0 min
Histogram: 8 4 4 0 4 12 8 0 26 38
Nghost:        3878.99 ave        5431 max         232 min
Histogram: 8 0 8 0 16 0 8 8 16 40
Neighs:        79213.0 ave      114462 max           0 min
Histogram: 8 4 4 0 8 8 8 8 20 36

Total # of neighbors = 8238154
Ave neighs/atom = 28.530305
Neighbor list builds = 0
Dangerous builds = 0
The dot product: 1.88732617414753e-09
The cos of the angle between the force vector and the displacement vector: 0.00229631028309329
The angle: 89.868430996698
Setting atom values ...
  1 settings made for x
  1 settings made for y
  1 settings made for z
Setting up cg style minimization ...
  Unit style    : metal
  Current step  : 5529
Per MPI rank memory allocation (min/avg/max) = 5.441 | 5.816 | 6.074 Mbytes
Step PotEng KinEng TotEng v_fx v_fy v_fz 
    5529   -1152448.4            0   -1152448.4 -0.00097507193 -0.0017089981 0.0029105956 
    5730   -1152448.4            0   -1152448.4 -1.4189083e-06 -2.4573309e-06 -2.8613224e-06 
Loop time of 2.34118 on 104 procs for 201 steps with 288751 atoms

99.9% CPU use with 104 MPI tasks x 1 OpenMP threads

Minimization stats:
  Stopping criterion = energy tolerance
  Energy initial, next-to-last, final = 
     -1152448.36716506  -1152448.37293869  -1152448.37293869
  Force two-norm initial, final = 0.38921787 4.2649673e-05
  Force max component initial, final = 0.30341776 1.5885250e-05
  Final line search alpha, max atom move = 1.0000000 1.5885250e-05
  Iterations, force evaluations = 201 402

MPI task timing breakdown:
Section |  min time  |  avg time  |  max time  |%varavg| %total
---------------------------------------------------------------
Pair    | 0.61424    | 1.6953     | 2.1818     |  35.1 | 72.41
Neigh   | 0          | 0          | 0          |   0.0 |  0.00
Comm    | 0.033433   | 0.38776    | 1.1822     |  51.8 | 16.56
Output  | 0          | 0          | 0          |   0.0 |  0.00
Modify  | 2.3618e-05 | 0.003316   | 0.0070846  |   2.7 |  0.14
Other   |            | 0.2548     |            |       | 10.88

Nlocal:        2776.45 ave        3930 max           0 min
Histogram: 8 4 4 0 4 12 8 0 26 38
Nghost:        3878.90 ave        5431 max         232 min
Histogram: 8 0 8 0 16 0 8 8 16 40
Neighs:        79213.0 ave      114462 max           0 min
Histogram: 8 4 4 0 8 8 8 8 20 36

Total # of neighbors = 8238155
Ave neighs/atom = 28.530308
Neighbor list builds = 0
Dangerous builds = 0
The dot product: -2.76770092880038e-10
The cos of the angle between the force vector and the displacement vector: -6.86815836857773e-05
The angle: 90.0039351648788
Setting up cg style minimization ...
  Unit style    : metal
  Current step  : 5730
Per MPI rank memory allocation (min/avg/max) = 5.441 | 5.816 | 6.074 Mbytes
Step PotEng KinEng TotEng v_fx v_fy v_fz 
    5730   -1152448.4            0   -1152448.4   -1.8737006    1.0766816 0.0044840202 
    5945   -1152449.3            0   -1152449.3 -5.0732675e-06 -4.641208e-06  7.63078e-06 
Loop time of 2.57289 on 104 procs for 215 steps with 288751 atoms

99.8% CPU use with 104 MPI tasks x 1 OpenMP threads

Minimization stats:
  Stopping criterion = energy tolerance
  Energy initial, next-to-last, final = 
     -1152448.37293869  -1152449.34502383  -1152449.34502383
  Force two-norm initial, final = 2.1610223 0.00012136904
  Force max component initial, final = 1.8737006 2.1171440e-05
  Final line search alpha, max atom move = 1.0000000 2.1171440e-05
  Iterations, force evaluations = 215 425

MPI task timing breakdown:
Section |  min time  |  avg time  |  max time  |%varavg| %total
---------------------------------------------------------------
Pair    | 0.66878    | 1.7987     | 2.3049     |  35.5 | 69.91
Neigh   | 4.0286e-05 | 0.011852   | 0.017128   |   4.5 |  0.46
Comm    | 0.051947   | 0.41903    | 1.2403     |  52.0 | 16.29
Output  | 0          | 0          | 0          |   0.0 |  0.00
Modify  | 2.3934e-05 | 0.002289   | 0.0058981  |   3.0 |  0.09
Other   |            | 0.341      |            |       | 13.25

Nlocal:        2776.45 ave        3930 max           0 min
Histogram: 8 4 4 0 4 12 8 0 26 38
Nghost:        3878.84 ave        5431 max         232 min
Histogram: 8 0 8 0 16 0 8 8 16 40
Neighs:        79213.1 ave      114461 max           0 min
Histogram: 8 4 4 0 8 8 8 8 20 36

Total # of neighbors = 8238162
Ave neighs/atom = 28.530332
Neighbor list builds = 4
Dangerous builds = 0
OMP_NUM_THREADS environment is not set. Defaulting to 1 thread. (../comm.cpp:94)
  using 1 OpenMP thread(s) per MPI task
Reading data file ...
  orthogonal box = (-122.39241 -121.13707 -37.090501) to (122.39241 121.13707 37.090501)
  13 by 4 by 2 MPI processor grid
  reading atoms ...
  288751 atoms
  read_data CPU = 0.345 seconds
199981 atoms in group inner
88770 atoms in group outer
1 atoms in group carbon
Neighbor list info ...
  update every 1 steps, delay 0 steps, check yes
  max neighbors/atom: 2000, page size: 100000
  master list distance cutoff = 5.6
  ghost atom cutoff = 5.6
  binsize = 2.8, bins = 88 87 27
  1 neighbor lists, perpetual/occasional/extra = 1 0 0
  (1) pair eam/alloy, perpetual
      attributes: half, newton on
      pair build: half/bin/atomonly/newton
      stencil: half/bin/3d/newton
      bin: standard
Setting up cg style minimization ...
  Unit style    : metal
  Current step  : 0
Per MPI rank memory allocation (min/avg/max) = 5.441 | 5.816 | 6.074 Mbytes
Step v_fx v_fy v_fz PotEng KinEng TotEng 
       0    4.6891787    7.6912798    7.9607659   -1152446.3            0   -1152446.3 
     169 -3.5920915e-06 -7.3598621e-06 -7.4657529e-06   -1152449.3            0   -1152449.3 
Loop time of 1.96034 on 104 procs for 169 steps with 288751 atoms

99.9% CPU use with 104 MPI tasks x 1 OpenMP threads

Minimization stats:
  Stopping criterion = energy tolerance
  Energy initial, next-to-last, final = 
     -1152446.27855388  -1152449.34502384  -1152449.34502384
  Force two-norm initial, final = 22.101688 7.2903444e-05
  Force max component initial, final = 12.631118 8.8906420e-06
  Final line search alpha, max atom move = 1.0000000 8.8906420e-06
  Iterations, force evaluations = 169 336

MPI task timing breakdown:
Section |  min time  |  avg time  |  max time  |%varavg| %total
---------------------------------------------------------------
Pair    | 0.52466    | 1.4199     | 1.8278     |  31.8 | 72.43
Neigh   | 3.0251e-05 | 0.008811   | 0.012761   |   3.9 |  0.45
Comm    | 0.035241   | 0.3187     | 0.96258    |  47.9 | 16.26
Output  | 0          | 0          | 0          |   0.0 |  0.00
Modify  | 1.9891e-05 | 0.001806   | 0.0047044  |   2.7 |  0.09
Other   |            | 0.2112     |            |       | 10.77

Nlocal:        2776.45 ave        3959 max           0 min
Histogram: 8 4 4 0 4 12 8 2 28 34
Nghost:        3879.03 ave        5425 max         232 min
Histogram: 8 0 8 0 16 0 8 8 16 40
Neighs:        79213.5 ave      115402 max           0 min
Histogram: 8 4 4 0 10 6 8 8 24 32

Total # of neighbors = 8238209
Ave neighs/atom = 28.530495
Neighbor list builds = 3
Dangerous builds = 0
Setting atom values ...
  1 settings made for x
  1 settings made for y
  1 settings made for z
Setting up cg style minimization ...
  Unit style    : metal
  Current step  : 169
Per MPI rank memory allocation (min/avg/max) = 5.441 | 5.816 | 6.074 Mbytes
Step PotEng KinEng TotEng v_fx v_fy v_fz 
     169   -1152449.3            0   -1152449.3  0.029817359  0.017797697 0.0054350374 
     358   -1152449.3            0   -1152449.3 -1.2137945e-05 -1.2699663e-05 -1.8652925e-05 
Loop time of 2.19464 on 104 procs for 189 steps with 288751 atoms

99.9% CPU use with 104 MPI tasks x 1 OpenMP threads

Minimization stats:
  Stopping criterion = energy tolerance
  Energy initial, next-to-last, final = 
     -1152449.33862547  -1152449.34256984  -1152449.34256984
  Force two-norm initial, final = 0.277367 0.00013828915
  Force max component initial, final = 0.1380718 3.3559228e-05
  Final line search alpha, max atom move = 1.0000000 3.3559228e-05
  Iterations, force evaluations = 189 378

MPI task timing breakdown:
Section |  min time  |  avg time  |  max time  |%varavg| %total
---------------------------------------------------------------
Pair    | 0.57489    | 1.585      | 2.0599     |  34.0 | 72.22
Neigh   | 0          | 0          | 0          |   0.0 |  0.00
Comm    | 0.035922   | 0.35381    | 1.0729     |  50.4 | 16.12
Output  | 0          | 0          | 0          |   0.0 |  0.00
Modify  | 2.3592e-05 | 0.0031123  | 0.006652   |   2.6 |  0.14
Other   |            | 0.2527     |            |       | 11.52

Nlocal:        2776.45 ave        3961 max           0 min
Histogram: 8 4 4 0 6 10 8 2 28 34
Nghost:        3879.03 ave        5426 max         232 min
Histogram: 8 0 8 0 16 0 8 8 16 40
Neighs:        79213.3 ave      115455 max           0 min
Histogram: 8 4 4 0 10 6 8 8 24 32

Total # of neighbors = 8238183
Ave neighs/atom = 28.530405
Neighbor list builds = 0
Dangerous builds = 0
Setting atom values ...
  1 settings made for x
  1 settings made for y
  1 settings made for z
Setting up cg style minimization ...
  Unit style    : metal
  Current step  : 358
Per MPI rank memory allocation (min/avg/max) = 5.441 | 5.816 | 6.074 Mbytes
Step PotEng KinEng TotEng v_fx v_fy v_fz 
     358   -1152449.3            0   -1152449.3  0.028002767  0.017292758 0.0015775366 
     590   -1152449.3            0   -1152449.3 9.652461e-07 1.8945327e-06  3.89876e-06 
Loop time of 2.7023 on 104 procs for 232 steps with 288751 atoms

99.9% CPU use with 104 MPI tasks x 1 OpenMP threads

Minimization stats:
  Stopping criterion = energy tolerance
  Energy initial, next-to-last, final = 
     -1152449.33330968  -1152449.33635497  -1152449.33635497
  Force two-norm initial, final = 0.24305406 2.3989112e-05
  Force max component initial, final = 0.12938724 3.8987600e-06
  Final line search alpha, max atom move = 1.0000000 3.8987600e-06
  Iterations, force evaluations = 232 464

MPI task timing breakdown:
Section |  min time  |  avg time  |  max time  |%varavg| %total
---------------------------------------------------------------
Pair    | 0.70325    | 1.9529     | 2.5429     |  37.8 | 72.27
Neigh   | 0          | 0          | 0          |   0.0 |  0.00
Comm    | 0.055743   | 0.44249    | 1.3465     |  55.6 | 16.37
Output  | 0          | 0          | 0          |   0.0 |  0.00
Modify  | 2.8591e-05 | 0.0038194  | 0.0081967  |   2.9 |  0.14
Other   |            | 0.3031     |            |       | 11.22

Nlocal:        2776.45 ave        3960 max           0 min
Histogram: 8 4 4 0 4 12 8 2 28 34
Nghost:        3879.03 ave        5425 max         232 min
Histogram: 8 0 8 0 16 0 8 8 16 40
Neighs:        79213.3 ave      115412 max           0 min
Histogram: 8 4 4 0 10 6 8 8 24 32

Total # of neighbors = 8238183
Ave neighs/atom = 28.530405
Neighbor list builds = 0
Dangerous builds = 0
The dot product: 5.41673064659865e-08
The cos of the angle between the force vector and the displacement vector: 0.0121974670000287
The angle: 89.3011192897152
Setting atom values ...
  1 settings made for x
  1 settings made for y
  1 settings made for z
Setting up cg style minimization ...
  Unit style    : metal
  Current step  : 590
Per MPI rank memory allocation (min/avg/max) = 5.441 | 5.816 | 6.074 Mbytes
Step PotEng KinEng TotEng v_fx v_fy v_fz 
     590   -1152449.3            0   -1152449.3  0.021803358  0.013559032 -0.0023325082 
     790   -1152449.3            0   -1152449.3 -1.0320612e-05 -1.4999874e-05 -2.411773e-05 
Loop time of 2.32224 on 104 procs for 200 steps with 288751 atoms

99.9% CPU use with 104 MPI tasks x 1 OpenMP threads

Minimization stats:
  Stopping criterion = energy tolerance
  Energy initial, next-to-last, final = 
     -1152449.32359008  -1152449.32653213  -1152449.32653213
  Force two-norm initial, final = 0.24021842 8.0919455e-05
  Force max component initial, final = 0.13711548 2.4117730e-05
  Final line search alpha, max atom move = 1.0000000 2.4117730e-05
  Iterations, force evaluations = 200 400

MPI task timing breakdown:
Section |  min time  |  avg time  |  max time  |%varavg| %total
---------------------------------------------------------------
Pair    | 0.60603    | 1.6769     | 2.1764     |  34.9 | 72.21
Neigh   | 0          | 0          | 0          |   0.0 |  0.00
Comm    | 0.038127   | 0.37559    | 1.1292     |  51.6 | 16.17
Output  | 0          | 0          | 0          |   0.0 |  0.00
Modify  | 2.4934e-05 | 0.0032914  | 0.0070442  |   2.7 |  0.14
Other   |            | 0.2665     |            |       | 11.48

Nlocal:        2776.45 ave        3958 max           0 min
Histogram: 8 4 4 0 4 12 8 2 28 34
Nghost:        3879.01 ave        5425 max         232 min
Histogram: 8 0 8 0 16 0 8 8 16 40
Neighs:        79213.3 ave      115360 max           0 min
Histogram: 8 4 4 0 10 6 8 8 24 32

Total # of neighbors = 8238182
Ave neighs/atom = 28.530402
Neighbor list builds = 0
Dangerous builds = 0
The dot product: -1.68967229275521e-07
The cos of the angle between the force vector and the displacement vector: -0.0055914597123024
The angle: 90.320368712204
Setting atom values ...
  1 settings made for x
  1 settings made for y
  1 settings made for z
Setting up cg style minimization ...
  Unit style    : metal
  Current step  : 790
Per MPI rank memory allocation (min/avg/max) = 5.441 | 5.816 | 6.074 Mbytes
Step PotEng KinEng TotEng v_fx v_fy v_fz 
     790   -1152449.3            0   -1152449.3  0.012791742 0.0080990275 -0.0022945129 
     950   -1152449.3            0   -1152449.3 3.1243334e-06 8.987013e-07 -3.7904697e-06 
Loop time of 1.87312 on 104 procs for 160 steps with 288751 atoms

99.9% CPU use with 104 MPI tasks x 1 OpenMP threads

Minimization stats:
  Stopping criterion = energy tolerance
  Energy initial, next-to-last, final = 
     -1152449.31076329  -1152449.31365344  -1152449.31365344
  Force two-norm initial, final = 0.2391233 0.00023780551
  Force max component initial, final = 0.14375768 5.3691000e-06
  Final line search alpha, max atom move = 1.0000000 5.3691000e-06
  Iterations, force evaluations = 160 320

MPI task timing breakdown:
Section |  min time  |  avg time  |  max time  |%varavg| %total
---------------------------------------------------------------
Pair    | 0.48697    | 1.3462     | 1.7575     |  31.4 | 71.87
Neigh   | 0          | 0          | 0          |   0.0 |  0.00
Comm    | 0.038852   | 0.30832    | 0.92872    |  45.9 | 16.46
Output  | 0          | 0          | 0          |   0.0 |  0.00
Modify  | 2.0223e-05 | 0.0026375  | 0.0056406  |   2.4 |  0.14
Other   |            | 0.216      |            |       | 11.53

Nlocal:        2776.45 ave        3956 max           0 min
Histogram: 8 4 4 0 4 12 8 0 30 34
Nghost:        3879.03 ave        5425 max         232 min
Histogram: 8 0 8 0 16 0 8 8 16 40
Neighs:        79213.3 ave      115301 max           0 min
Histogram: 8 4 4 0 10 6 8 8 24 32

Total # of neighbors = 8238185
Ave neighs/atom = 28.530412
Neighbor list builds = 0
Dangerous builds = 0
The dot product: 3.71085640014774e-08
The cos of the angle between the force vector and the displacement vector: 0.00743111412235252
The angle: 89.5742246049916
Setting atom values ...
  1 settings made for x
  1 settings made for y
  1 settings made for z
Setting up cg style minimization ...
  Unit style    : metal
  Current step  : 950
Per MPI rank memory allocation (min/avg/max) = 5.441 | 5.816 | 6.074 Mbytes
Step PotEng KinEng TotEng v_fx v_fy v_fz 
     950   -1152449.3            0   -1152449.3 0.0084561261 0.0085467479 0.0083555773 
    1000   -1152449.3            0   -1152449.3 0.00020832895 0.00026567872 0.00037719228 
    1173   -1152449.3            0   -1152449.3 -1.9173846e-06 -2.4595606e-06 -3.5161491e-06 
Loop time of 2.59359 on 104 procs for 223 steps with 288751 atoms

99.9% CPU use with 104 MPI tasks x 1 OpenMP threads

Minimization stats:
  Stopping criterion = energy tolerance
  Energy initial, next-to-last, final = 
     -1152449.29512026  -1152449.29795386  -1152449.29795386
  Force two-norm initial, final = 0.23864337 2.6423807e-05
  Force max component initial, final = 0.14876502 5.4837034e-06
  Final line search alpha, max atom move = 1.0000000 5.4837034e-06
  Iterations, force evaluations = 223 446

MPI task timing breakdown:
Section |  min time  |  avg time  |  max time  |%varavg| %total
---------------------------------------------------------------
Pair    | 0.67959    | 1.8716     | 2.4223     |  36.9 | 72.16
Neigh   | 0          | 0          | 0          |   0.0 |  0.00
Comm    | 0.044673   | 0.41984    | 1.2623     |  54.6 | 16.19
Output  | 0.000224   | 0.00022663 | 0.0003434  |   0.0 |  0.01
Modify  | 2.7947e-05 | 0.0036697  | 0.0078684  |   2.9 |  0.14
Other   |            | 0.2983     |            |       | 11.50

Nlocal:        2776.45 ave        3954 max           0 min
Histogram: 8 4 4 0 4 12 8 0 30 34
Nghost:        3879.01 ave        5425 max         232 min
Histogram: 8 0 8 0 16 0 8 8 16 40
Neighs:        79213.3 ave      115234 max           0 min
Histogram: 8 4 4 0 10 6 8 8 24 32

Total # of neighbors = 8238187
Ave neighs/atom = 28.530419
Neighbor list builds = 0
Dangerous builds = 0
The dot product: 1.58545032937254e-09
The cos of the angle between the force vector and the displacement vector: 0.000337336681964575
The angle: 89.9806720314817
Setting atom values ...
  1 settings made for x
  1 settings made for y
  1 settings made for z
Setting up cg style minimization ...
  Unit style    : metal
  Current step  : 1173
Per MPI rank memory allocation (min/avg/max) = 5.441 | 5.816 | 6.074 Mbytes
Step PotEng KinEng TotEng v_fx v_fy v_fz 
    1173   -1152449.3            0   -1152449.3 0.0070825258  0.011763329   0.02124465 
    1359   -1152449.3            0   -1152449.3 1.4979053e-05 1.9593451e-05 2.8681392e-05 
Loop time of 2.16279 on 104 procs for 186 steps with 288751 atoms

99.9% CPU use with 104 MPI tasks x 1 OpenMP threads

Minimization stats:
  Stopping criterion = energy tolerance
  Energy initial, next-to-last, final = 
       -1152449.276799  -1152449.27962833  -1152449.27962833
  Force two-norm initial, final = 0.23986235 9.6326530e-05
  Force max component initial, final = 0.15262991 2.8681392e-05
  Final line search alpha, max atom move = 1.0000000 2.8681392e-05
  Iterations, force evaluations = 186 372

MPI task timing breakdown:
Section |  min time  |  avg time  |  max time  |%varavg| %total
---------------------------------------------------------------
Pair    | 0.56278    | 1.5653     | 2.0297     |  33.9 | 72.37
Neigh   | 0          | 0          | 0          |   0.0 |  0.00
Comm    | 0.03911    | 0.35119    | 1.0606     |  50.2 | 16.24
Output  | 0          | 0          | 0          |   0.0 |  0.00
Modify  | 2.2711e-05 | 0.0030612  | 0.0065465  |   2.6 |  0.14
Other   |            | 0.2433     |            |       | 11.25

Nlocal:        2776.45 ave        3952 max           0 min
Histogram: 8 4 4 0 4 12 8 0 30 34
Nghost:        3879.01 ave        5425 max         232 min
Histogram: 8 0 8 0 16 0 8 8 16 40
Neighs:        79213.3 ave      115163 max           0 min
Histogram: 8 4 4 0 10 6 8 8 24 32

Total # of neighbors = 8238186
Ave neighs/atom = 28.530415
Neighbor list builds = 0
Dangerous builds = 0
The dot product: 5.50073422075321e-07
The cos of the angle between the force vector and the displacement vector: 0.0145417402740727
The angle: 89.166790288366
Setting atom values ...
  1 settings made for x
  1 settings made for y
  1 settings made for z
Setting up cg style minimization ...
  Unit style    : metal
  Current step  : 1359
Per MPI rank memory allocation (min/avg/max) = 5.441 | 5.816 | 6.074 Mbytes
Step PotEng KinEng TotEng v_fx v_fy v_fz 
    1359   -1152449.3            0   -1152449.3 0.0061377954  0.013881511  0.027647174 
    1558   -1152449.3            0   -1152449.3 -1.2220231e-05 -1.6493843e-05 -2.3236852e-05 
Loop time of 2.30831 on 104 procs for 199 steps with 288751 atoms

99.9% CPU use with 104 MPI tasks x 1 OpenMP threads

Minimization stats:
  Stopping criterion = energy tolerance
  Energy initial, next-to-last, final = 
     -1152449.25575934   -1152449.2585832   -1152449.2585832
  Force two-norm initial, final = 0.24024544 9.9373029e-05
  Force max component initial, final = 0.15571375 2.6646065e-05
  Final line search alpha, max atom move = 1.0000000 2.6646065e-05
  Iterations, force evaluations = 199 398

MPI task timing breakdown:
Section |  min time  |  avg time  |  max time  |%varavg| %total
---------------------------------------------------------------
Pair    | 0.60427    | 1.6686     | 2.1598     |  34.9 | 72.29
Neigh   | 0          | 0          | 0          |   0.0 |  0.00
Comm    | 0.036195   | 0.3742     | 1.1288     |  51.7 | 16.21
Output  | 0          | 0          | 0          |   0.0 |  0.00
Modify  | 2.4584e-05 | 0.003284   | 0.0070282  |   2.7 |  0.14
Other   |            | 0.2622     |            |       | 11.36

Nlocal:        2776.45 ave        3950 max           0 min
Histogram: 8 4 4 0 4 12 8 0 28 36
Nghost:        3879.05 ave        5425 max         232 min
Histogram: 8 0 8 0 16 0 8 8 16 40
Neighs:        79213.3 ave      115085 max           0 min
Histogram: 8 4 4 0 10 6 8 8 24 32

Total # of neighbors = 8238185
Ave neighs/atom = 28.530412
Neighbor list builds = 0
Dangerous builds = 0
The dot product: -6.26890864200819e-07
The cos of the angle between the force vector and the displacement vector: -0.0202187915855632
The angle: 91.1585303682975
Setting atom values ...
  1 settings made for x
  1 settings made for y
  1 settings made for z
Setting up cg style minimization ...
  Unit style    : metal
  Current step  : 1558
Per MPI rank memory allocation (min/avg/max) = 5.441 | 5.816 | 6.074 Mbytes
Step PotEng KinEng TotEng v_fx v_fy v_fz 
    1558   -1152449.2            0   -1152449.2 0.0054687075  0.014759895  0.028722865 
    1850   -1152449.2            0   -1152449.2 1.650555e-07 1.7876477e-07 1.708931e-07 
Loop time of 3.4123 on 104 procs for 292 steps with 288751 atoms

99.9% CPU use with 104 MPI tasks x 1 OpenMP threads

Minimization stats:
  Stopping criterion = energy tolerance
  Energy initial, next-to-last, final = 
     -1152449.23178375  -1152449.23458538  -1152449.23458538
  Force two-norm initial, final = 0.2402478 1.8202713e-06
  Force max component initial, final = 0.15838322 2.7167284e-07
  Final line search alpha, max atom move = 1.0000000 2.7167284e-07
  Iterations, force evaluations = 292 584

MPI task timing breakdown:
Section |  min time  |  avg time  |  max time  |%varavg| %total
---------------------------------------------------------------
Pair    | 0.90202    | 2.4668     | 3.1675     |  42.1 | 72.29
Neigh   | 0          | 0          | 0          |   0.0 |  0.00
Comm    | 0.063328   | 0.55742    | 1.6894     |  62.9 | 16.34
Output  | 0          | 0          | 0          |   0.0 |  0.00
Modify  | 3.5665e-05 | 0.0048077  | 0.010312   |   3.3 |  0.14
Other   |            | 0.3833     |            |       | 11.23

Nlocal:        2776.45 ave        3946 max           0 min
Histogram: 8 4 4 0 4 12 8 1 27 36
Nghost:        3879.11 ave        5425 max         232 min
Histogram: 8 0 8 0 16 0 8 8 16 40
Neighs:        79213.3 ave      114994 max           0 min
Histogram: 8 4 4 0 10 6 8 8 24 32

Total # of neighbors = 8238185
Ave neighs/atom = 28.530412
Neighbor list builds = 0
Dangerous builds = 0
The dot product: 5.00375815322907e-09
[...]

Minimization stats:
  Stopping criterion = energy tolerance
  Energy initial, next-to-last, final = 
     -1152448.91209191  -1152448.91623107  -1152448.91623107
  Force two-norm initial, final = 0.28412393 8.0973159e-05
  Force max component initial, final = 0.20622084 2.0516665e-05
  Final line search alpha, max atom move = 1.0000000 2.0516665e-05
  Iterations, force evaluations = 199 398

MPI task timing breakdown:
Section |  min time  |  avg time  |  max time  |%varavg| %total
---------------------------------------------------------------
Pair    | 0.60568    | 1.6698     | 2.1453     |  34.7 | 72.64
Neigh   | 0          | 0          | 0          |   0.0 |  0.00
Comm    | 0.037375   | 0.37069    | 1.1196     |  52.1 | 16.13
Output  | 0.00017044 | 0.00017973 | 0.00037725 |   0.0 |  0.01
Modify  | 2.3017e-05 | 0.0032788  | 0.0070237  |   2.7 |  0.14
Other   |            | 0.2548     |            |       | 11.09

Nlocal:        2776.45 ave        3930 max           0 min
Histogram: 8 4 4 0 4 12 8 0 26 38
Nghost:        3879.18 ave        5426 max         232 min
Histogram: 8 0 8 0 16 0 8 8 16 40
Neighs:        79213.3 ave      114473 max           0 min
Histogram: 8 4 4 0 8 8 8 8 20 36

Total # of neighbors = 8238184
Ave neighs/atom = 28.530409
Neighbor list builds = 0
Dangerous builds = 0
The dot product: -4.59226151314995e-07
The cos of the angle between the force vector and the displacement vector: -0.0318146247043994
The angle: 91.8231513672268
Setting atom values ...
  1 settings made for x
  1 settings made for y
  1 settings made for z
Setting up cg style minimization ...
  Unit style    : metal
  Current step  : 3047
Per MPI rank memory allocation (min/avg/max) = 5.441 | 5.816 | 6.074 Mbytes
Step PotEng KinEng TotEng v_fx v_fy v_fz 
    3047   -1152448.9            0   -1152448.9  0.027288811 -0.015363489 -0.092453732 
    3262   -1152448.9            0   -1152448.9 2.5436702e-06 -4.5279804e-07 -6.9666566e-06 
Loop time of 2.46904 on 104 procs for 215 steps with 288751 atoms

99.9% CPU use with 104 MPI tasks x 1 OpenMP threads

Minimization stats:
  Stopping criterion = energy tolerance
  Energy initial, next-to-last, final = 
     -1152448.85699422  -1152448.86182693  -1152448.86182693
  Force two-norm initial, final = 0.29872778 7.3751285e-05
  Force max component initial, final = 0.21805087 8.2640293e-06
  Final line search alpha, max atom move = 1.0000000 8.2640293e-06
  Iterations, force evaluations = 215 430

MPI task timing breakdown:
Section |  min time  |  avg time  |  max time  |%varavg| %total
---------------------------------------------------------------
Pair    | 0.64962    | 1.8021     | 2.3122     |  36.2 | 72.99
Neigh   | 0          | 0          | 0          |   0.0 |  0.00
Comm    | 0.048241   | 0.40364    | 1.2225     |  54.0 | 16.35
Output  | 0          | 0          | 0          |   0.0 |  0.00
Modify  | 2.4933e-05 | 0.00354    | 0.0075609  |   2.8 |  0.14
Other   |            | 0.2598     |            |       | 10.52

Nlocal:        2776.45 ave        3930 max           0 min
Histogram: 8 4 4 0 4 12 8 0 26 38
Nghost:        3879.14 ave        5426 max         232 min
Histogram: 8 0 8 0 16 0 8 8 16 40
Neighs:        79213.3 ave      114473 max           0 min
Histogram: 8 4 4 0 8 8 8 8 20 36

Total # of neighbors = 8238179
Ave neighs/atom = 28.530391
Neighbor list builds = 0
Dangerous builds = 0
The dot product: 4.06022517550574e-07
The cos of the angle between the force vector and the displacement vector: 0.0546440482463754
The angle: 86.8675664459302
Setting atom values ...
  1 settings made for x
  1 settings made for y
  1 settings made for z
Setting up cg style minimization ...
  Unit style    : metal
  Current step  : 3262
Per MPI rank memory allocation (min/avg/max) = 5.441 | 5.816 | 6.074 Mbytes
Step PotEng KinEng TotEng v_fx v_fy v_fz 
    3262   -1152448.8            0   -1152448.8  0.036591266 -0.00099022705   -0.1108634 
    3458   -1152448.8            0   -1152448.8 -3.3743961e-06 -6.1120554e-06 -2.2994508e-06 
Loop time of 2.27325 on 104 procs for 196 steps with 288751 atoms

99.9% CPU use with 104 MPI tasks x 1 OpenMP threads

Minimization stats:
  Stopping criterion = energy tolerance
  Energy initial, next-to-last, final = 
     -1152448.79927779  -1152448.80471488  -1152448.80471488
  Force two-norm initial, final = 0.31417555 0.0001702996
  Force max component initial, final = 0.23047699 2.0122006e-05
  Final line search alpha, max atom move = 1.0000000 2.0122006e-05
  Iterations, force evaluations = 196 392

MPI task timing breakdown:
Section |  min time  |  avg time  |  max time  |%varavg| %total
---------------------------------------------------------------
Pair    | 0.59166    | 1.6468     | 2.1238     |  34.7 | 72.44
Neigh   | 0          | 0          | 0          |   0.0 |  0.00
Comm    | 0.044569   | 0.36789    | 1.1077     |  51.8 | 16.18
Output  | 0          | 0          | 0          |   0.0 |  0.00
Modify  | 2.2393e-05 | 0.0032304  | 0.0069435  |   2.7 |  0.14
Other   |            | 0.2553     |            |       | 11.23

Nlocal:        2776.45 ave        3930 max           0 min
Histogram: 8 4 4 0 4 12 8 0 26 38
Nghost:        3879.10 ave        5426 max         232 min
Histogram: 8 0 8 0 16 0 8 8 16 40
Neighs:        79213.2 ave      114474 max           0 min
Histogram: 8 4 4 0 8 8 8 8 20 36

Total # of neighbors = 8238174
Ave neighs/atom = 28.530374
Neighbor list builds = 0
Dangerous builds = 0
The dot product: 4.57257577929167e-08
The cos of the angle between the force vector and the displacement vector: 0.00622068811359962
The angle: 89.6435785266603
Setting atom values ...
  1 settings made for x
  1 settings made for y
  1 settings made for z
Setting up cg style minimization ...
  Unit style    : metal
  Current step  : 3458
Per MPI rank memory allocation (min/avg/max) = 5.441 | 5.816 | 6.074 Mbytes
Step PotEng KinEng TotEng v_fx v_fy v_fz 
    3458   -1152448.7            0   -1152448.7   0.04182592   0.01231747  -0.12912459 
    3759   -1152448.8            0   -1152448.8 7.3443829e-07 1.0951631e-06 -4.6837133e-08 
Loop time of 3.49475 on 104 procs for 301 steps with 288751 atoms

99.9% CPU use with 104 MPI tasks x 1 OpenMP threads

Minimization stats:
  Stopping criterion = energy tolerance
  Energy initial, next-to-last, final = 
     -1152448.73998032    -1152448.762964    -1152448.762964
  Force two-norm initial, final = 0.33507556 9.7499253e-06
  Force max component initial, final = 0.24257581 2.4410258e-06
  Final line search alpha, max atom move = 1.0000000 2.4410258e-06
  Iterations, force evaluations = 301 602

MPI task timing breakdown:
Section |  min time  |  avg time  |  max time  |%varavg| %total
---------------------------------------------------------------
Pair    | 0.92041    | 2.5287     | 3.2468     |  42.7 | 72.36
Neigh   | 1.0182e-05 | 0.0029517  | 0.0042676  |   2.2 |  0.08
Comm    | 0.061461   | 0.56698    | 1.719      |  63.6 | 16.22
Output  | 0          | 0          | 0          |   0.0 |  0.00
Modify  | 3.6138e-05 | 0.0049544  | 0.010613   |   3.3 |  0.14
Other   |            | 0.3912     |            |       | 11.19

Nlocal:        2776.45 ave        3930 max           0 min
Histogram: 8 4 4 0 4 12 8 0 26 38
Nghost:        3879.06 ave        5426 max         232 min
Histogram: 8 0 8 0 16 0 8 8 16 40
Neighs:        79213.2 ave      114483 max           0 min
Histogram: 8 4 4 0 8 8 8 8 20 36

Total # of neighbors = 8238171
Ave neighs/atom = 28.530364
Neighbor list builds = 1
Dangerous builds = 0
The dot product: 4.71338586239288e-08
The cos of the angle between the force vector and the displacement vector: 0.0357220732149659
The angle: 87.9528404265104
Setting atom values ...
  1 settings made for x
  1 settings made for y
  1 settings made for z
Setting up cg style minimization ...
  Unit style    : metal
  Current step  : 3759
Per MPI rank memory allocation (min/avg/max) = 5.441 | 5.816 | 6.074 Mbytes
Step PotEng KinEng TotEng v_fx v_fy v_fz 
    3759   -1152448.7            0   -1152448.7  0.037382642  0.030520811   -0.1576595 
    4000   -1152448.7            0   -1152448.7 -2.6518469e-07 -1.4457345e-07 1.4928936e-06 
    4003   -1152448.7            0   -1152448.7 -1.604649e-06 -2.6644466e-06 -2.8311769e-07 
Loop time of 2.82015 on 104 procs for 244 steps with 288751 atoms

99.9% CPU use with 104 MPI tasks x 1 OpenMP threads

Minimization stats:
  Stopping criterion = energy tolerance
  Energy initial, next-to-last, final = 
     -1152448.71826351  -1152448.72562016  -1152448.72562016
  Force two-norm initial, final = 0.36721243 2.8556015e-05
  Force max component initial, final = 0.26071003 4.1015854e-06
  Final line search alpha, max atom move = 1.0000000 4.1015854e-06
  Iterations, force evaluations = 244 488

MPI task timing breakdown:
Section |  min time  |  avg time  |  max time  |%varavg| %total
---------------------------------------------------------------
Pair    | 0.74176    | 2.05       | 2.6306     |  38.6 | 72.69
Neigh   | 0          | 0          | 0          |   0.0 |  0.00
Comm    | 0.052898   | 0.45886    | 1.3988     |  57.9 | 16.27
Output  | 0.00016366 | 0.00017697 | 0.00042192 |   0.0 |  0.01
Modify  | 2.8608e-05 | 0.0040178  | 0.0086299  |   3.0 |  0.14
Other   |            | 0.3071     |            |       | 10.89

Nlocal:        2776.45 ave        3930 max           0 min
Histogram: 8 4 4 0 4 12 8 0 26 38
Nghost:        3879.14 ave        5425 max         232 min
Histogram: 8 0 8 0 16 0 8 8 16 40
Neighs:        79213.2 ave      114485 max           0 min
Histogram: 8 4 4 0 8 8 8 8 20 36

Total # of neighbors = 8238175
Ave neighs/atom = 28.530377
Neighbor list builds = 0
Dangerous builds = 0
The dot product: -3.34620349703653e-08
The cos of the angle between the force vector and the displacement vector: -0.0107140490576333
The angle: 90.6138815375443
Setting atom values ...
  1 settings made for x
  1 settings made for y
  1 settings made for z
Setting up cg style minimization ...
  Unit style    : metal
  Current step  : 4003
Per MPI rank memory allocation (min/avg/max) = 5.441 | 5.816 | 6.074 Mbytes
Step PotEng KinEng TotEng v_fx v_fy v_fz 
    4003   -1152448.7            0   -1152448.7  0.014823371  0.018086642 -0.079212417 
    4185   -1152448.7            0   -1152448.7 -1.0763861e-06 -1.5707433e-06 2.7993245e-06 
Loop time of 2.11196 on 104 procs for 182 steps with 288751 atoms

99.9% CPU use with 104 MPI tasks x 1 OpenMP threads

Minimization stats:
  Stopping criterion = energy tolerance
  Energy initial, next-to-last, final = 
     -1152448.67938611  -1152448.68477133  -1152448.68477133
  Force two-norm initial, final = 0.3490916 0.00019897592
  Force max component initial, final = 0.2678047 6.9159577e-05
  Final line search alpha, max atom move = 1.0000000 6.9159577e-05
  Iterations, force evaluations = 182 364

MPI task timing breakdown:
Section |  min time  |  avg time  |  max time  |%varavg| %total
---------------------------------------------------------------
Pair    | 0.55638    | 1.5301     | 1.9628     |  33.3 | 72.45
Neigh   | 0          | 0          | 0          |   0.0 |  0.00
Comm    | 0.038214   | 0.34319    | 1.0412     |  49.8 | 16.25
Output  | 0          | 0          | 0          |   0.0 |  0.00
Modify  | 2.2246e-05 | 0.0030014  | 0.0064511  |   2.6 |  0.14
Other   |            | 0.2357     |            |       | 11.16

Nlocal:        2776.45 ave        3930 max           0 min
Histogram: 8 4 4 0 4 12 8 0 26 38
Nghost:        3879.01 ave        5425 max         232 min
Histogram: 8 0 8 0 16 0 8 8 16 40
Neighs:        79213.2 ave      114480 max           0 min
Histogram: 8 4 4 0 8 8 8 8 20 36

Total # of neighbors = 8238173
Ave neighs/atom = 28.530370
Neighbor list builds = 0
Dangerous builds = 0
The dot product: -8.52634185869219e-08
The cos of the angle between the force vector and the displacement vector: -0.0251843890725769
The angle: 91.4431117806685
Setting atom values ...
  1 settings made for x
  1 settings made for y
  1 settings made for z
Setting up cg style minimization ...
  Unit style    : metal
  Current step  : 4185
Per MPI rank memory allocation (min/avg/max) = 5.441 | 5.816 | 6.074 Mbytes
Step PotEng KinEng TotEng v_fx v_fy v_fz 
    4185   -1152448.6            0   -1152448.6 0.0057084499 0.0084092173 -0.036739987 
    4371   -1152448.6            0   -1152448.6 -7.1847355e-07 -1.3796103e-06 -3.97001e-06 
Loop time of 2.1468 on 104 procs for 186 steps with 288751 atoms

99.9% CPU use with 104 MPI tasks x 1 OpenMP threads

Minimization stats:
  Stopping criterion = energy tolerance
  Energy initial, next-to-last, final = 
     -1152448.63744937  -1152448.64332308  -1152448.64332308
  Force two-norm initial, final = 0.35331327 0.00014660727
  Force max component initial, final = 0.27357121 5.0292017e-05
  Final line search alpha, max atom move = 1.0000000 5.0292017e-05
  Iterations, force evaluations = 186 372

MPI task timing breakdown:
Section |  min time  |  avg time  |  max time  |%varavg| %total
---------------------------------------------------------------
Pair    | 0.56646    | 1.5606     | 2.0063     |  33.6 | 72.69
Neigh   | 0          | 0          | 0          |   0.0 |  0.00
Comm    | 0.040975   | 0.34677    | 1.0605     |  50.6 | 16.15
Output  | 0          | 0          | 0          |   0.0 |  0.00
Modify  | 2.163e-05  | 0.0030641  | 0.0065613  |   2.6 |  0.14
Other   |            | 0.2364     |            |       | 11.01

Nlocal:        2776.45 ave        3930 max           0 min
Histogram: 8 4 4 0 4 12 8 0 26 38
Nghost:        3879.07 ave        5430 max         232 min
Histogram: 8 0 8 0 16 0 8 8 16 40
Neighs:        79213.1 ave      114478 max           0 min
Histogram: 8 4 4 0 8 8 8 8 20 36

Total # of neighbors = 8238163
Ave neighs/atom = 28.530336
Neighbor list builds = 0
Dangerous builds = 0
The dot product: 4.09741707163591e-08
The cos of the angle between the force vector and the displacement vector: 0.00960964094587291
The angle: 89.4493996567275
Setting atom values ...
  1 settings made for x
  1 settings made for y
  1 settings made for z
Setting up cg style minimization ...
  Unit style    : metal
  Current step  : 4371
Per MPI rank memory allocation (min/avg/max) = 5.441 | 5.816 | 6.074 Mbytes
Step PotEng KinEng TotEng v_fx v_fy v_fz 
    4371   -1152448.6            0   -1152448.6 0.0020017259 0.0032288082 -0.015351171 
    4591   -1152448.6            0   -1152448.6 2.6971355e-07 4.7384308e-07 5.7746575e-07 
Loop time of 2.53388 on 104 procs for 220 steps with 288751 atoms

99.9% CPU use with 104 MPI tasks x 1 OpenMP threads

Minimization stats:
  Stopping criterion = energy tolerance
  Energy initial, next-to-last, final = 
     -1152448.59650817  -1152448.60129121  -1152448.60129121
  Force two-norm initial, final = 0.35687455 4.6880916e-05
  Force max component initial, final = 0.27967788 1.9135923e-05
  Final line search alpha, max atom move = 1.0000000 1.9135923e-05
  Iterations, force evaluations = 220 440

MPI task timing breakdown:
Section |  min time  |  avg time  |  max time  |%varavg| %total
---------------------------------------------------------------
Pair    | 0.66737    | 1.8456     | 2.3692     |  36.6 | 72.84
Neigh   | 0          | 0          | 0          |   0.0 |  0.00
Comm    | 0.043167   | 0.41191    | 1.2509     |  54.8 | 16.26
Output  | 0          | 0          | 0          |   0.0 |  0.00
Modify  | 2.5977e-05 | 0.0036229  | 0.0077474  |   2.8 |  0.14
Other   |            | 0.2728     |            |       | 10.77

Nlocal:        2776.45 ave        3930 max           0 min
Histogram: 8 4 4 0 4 12 8 0 26 38
Nghost:        3879.05 ave        5430 max         232 min
Histogram: 8 0 8 0 16 0 8 8 16 40
Neighs:        79213.1 ave      114479 max           0 min
Histogram: 8 4 4 0 8 8 8 8 20 36

Total # of neighbors = 8238165
Ave neighs/atom = 28.530343
Neighbor list builds = 0
Dangerous builds = 0
The dot product: -1.98444183734877e-09
The cos of the angle between the force vector and the displacement vector: -0.00249869592982297
The angle: 90.1431648800402
Setting atom values ...
  1 settings made for x
  1 settings made for y
  1 settings made for z
Setting up cg style minimization ...
  Unit style    : metal
  Current step  : 4591
Per MPI rank memory allocation (min/avg/max) = 5.441 | 5.816 | 6.074 Mbytes
Step PotEng KinEng TotEng v_fx v_fy v_fz 
    4591   -1152448.6            0   -1152448.6 0.00065539433 0.0010992997 -0.0058941408 
    4736   -1152448.6            0   -1152448.6 4.1392396e-08 7.3011755e-08 2.4328221e-07 
Loop time of 1.70719 on 104 procs for 145 steps with 288751 atoms

99.9% CPU use with 104 MPI tasks x 1 OpenMP threads

Minimization stats:
  Stopping criterion = energy tolerance
  Energy initial, next-to-last, final = 
     -1152448.55031275   -1152448.5552782   -1152448.5552782
  Force two-norm initial, final = 0.36340179 0.00012096656
  Force max component initial, final = 0.28545202 4.4511861e-05
  Final line search alpha, max atom move = 1.0000000 4.4511861e-05
  Iterations, force evaluations = 145 290

MPI task timing breakdown:
Section |  min time  |  avg time  |  max time  |%varavg| %total
---------------------------------------------------------------
Pair    | 0.44344    | 1.2225     | 1.5641     |  29.5 | 71.61
Neigh   | 0          | 0          | 0          |   0.0 |  0.00
Comm    | 0.037611   | 0.27498    | 0.83609    |  44.0 | 16.11
Output  | 0          | 0          | 0          |   0.0 |  0.00
Modify  | 1.6978e-05 | 0.0023933  | 0.0051329  |   2.3 |  0.14
Other   |            | 0.2074     |            |       | 12.15

Nlocal:        2776.45 ave        3930 max           0 min
Histogram: 8 4 4 0 4 12 8 0 26 38
Nghost:        3879.07 ave        5430 max         232 min
Histogram: 8 0 8 0 16 0 8 8 16 40
Neighs:        79213.1 ave      114472 max           0 min
Histogram: 8 4 4 0 8 8 8 8 20 36

Total # of neighbors = 8238164
Ave neighs/atom = 28.530339
Neighbor list builds = 0
Dangerous builds = 0
The dot product: -3.75720653436781e-10
The cos of the angle between the force vector and the displacement vector: -0.00145994594198193
The angle: 90.0836487705082
Setting up cg style minimization ...
  Unit style    : metal
  Current step  : 4736
Per MPI rank memory allocation (min/avg/max) = 5.441 | 5.816 | 6.074 Mbytes
Step PotEng KinEng TotEng v_fx v_fy v_fz 
    4736   -1152448.6            0   -1152448.6   -1.3956079   0.80686265 -0.0046975873 
    4938   -1152449.3            0   -1152449.3 5.1366212e-06 3.2914045e-06 5.0281866e-06 
Loop time of 2.33619 on 104 procs for 202 steps with 288751 atoms

99.9% CPU use with 104 MPI tasks x 1 OpenMP threads

Minimization stats:
  Stopping criterion = energy tolerance
  Energy initial, next-to-last, final = 
      -1152448.5552782  -1152449.34502381  -1152449.34502381
  Force two-norm initial, final = 1.6120703 0.00014004883
  Force max component initial, final = 1.3956079 2.1645044e-05
  Final line search alpha, max atom move = 1.0000000 2.1645044e-05
  Iterations, force evaluations = 202 400

MPI task timing breakdown:
Section |  min time  |  avg time  |  max time  |%varavg| %total
---------------------------------------------------------------
Pair    | 0.62201    | 1.6819     | 2.1543     |  34.5 | 71.99
Neigh   | 4.0107e-05 | 0.011831   | 0.01712    |   4.5 |  0.51
Comm    | 0.038651   | 0.37651    | 1.1419     |  52.3 | 16.12
Output  | 0          | 0          | 0          |   0.0 |  0.00
Modify  | 2.1882e-05 | 0.0021468  | 0.0055066  |   2.9 |  0.09
Other   |            | 0.2638     |            |       | 11.29

Nlocal:        2776.45 ave        3931 max           0 min
Histogram: 8 4 4 0 4 12 8 0 26 38
Nghost:        3879.07 ave        5431 max         232 min
Histogram: 8 0 8 0 16 0 8 8 16 40
Neighs:        79213.2 ave      114488 max           0 min
Histogram: 8 4 4 0 8 8 8 8 20 36

Total # of neighbors = 8238174
Ave neighs/atom = 28.530374
Neighbor list builds = 4
Dangerous builds = 0
