LAMMPS (29 Oct 2020)
OMP_NUM_THREADS environment is not set. Defaulting to 1 thread. (../comm.cpp:94)
  using 1 OpenMP thread(s) per MPI task
OMP_NUM_THREADS environment is not set. Defaulting to 1 thread. (../comm.cpp:94)
  using 1 OpenMP thread(s) per MPI task
Reading data file ...
  orthogonal box = (-122.39241 -121.13707 -37.090501) to (122.39241 121.13707 37.090501)
  13 by 4 by 2 MPI processor grid
  reading atoms ...
  288751 atoms
  read_data CPU = 0.370 seconds
199981 atoms in group inner
88770 atoms in group outer
1 atoms in group carbon
Neighbor list info ...
  update every 1 steps, delay 0 steps, check yes
  max neighbors/atom: 2000, page size: 100000
  master list distance cutoff = 5.6
  ghost atom cutoff = 5.6
  binsize = 2.8, bins = 88 87 27
  1 neighbor lists, perpetual/occasional/extra = 1 0 0
  (1) pair eam/alloy, perpetual
      attributes: half, newton on
      pair build: half/bin/atomonly/newton
      stencil: half/bin/3d/newton
      bin: standard
Setting up cg style minimization ...
  Unit style    : metal
  Current step  : 0
Per MPI rank memory allocation (min/avg/max) = 5.441 | 5.816 | 6.074 Mbytes
Step v_fx v_fy v_fz PotEng KinEng TotEng 
       0   0.37234582  -0.48846376  -0.53568783   -1152447.8            0   -1152447.8 
     150 -2.4170201e-05 -1.0212263e-06 1.8938307e-05   -1152449.5            0   -1152449.5 
Loop time of 1.76909 on 104 procs for 150 steps with 288751 atoms

99.8% CPU use with 104 MPI tasks x 1 OpenMP threads

Minimization stats:
  Stopping criterion = energy tolerance
  Energy initial, next-to-last, final = 
     -1152447.84514918  -1152449.45035284  -1152449.45035284
  Force two-norm initial, final = 9.8066649 0.00019568815
  Force max component initial, final = 5.2787033 4.4802366e-05
  Final line search alpha, max atom move = 1.0000000 4.4802366e-05
  Iterations, force evaluations = 150 299

MPI task timing breakdown:
Section |  min time  |  avg time  |  max time  |%varavg| %total
---------------------------------------------------------------
Pair    | 0.46882    | 1.2618     | 1.6344     |  30.0 | 71.33
Neigh   | 2.1034e-05 | 0.0058823  | 0.0085459  |   3.2 |  0.33
Comm    | 0.029797   | 0.28947    | 0.85595    |  43.6 | 16.36
Output  | 0          | 0          | 0          |   0.0 |  0.00
Modify  | 1.7619e-05 | 0.0016138  | 0.0041222  |   2.5 |  0.09
Other   |            | 0.2103     |            |       | 11.89

Nlocal:        2776.45 ave        3961 max           0 min
Histogram: 8 4 4 0 6 10 8 2 28 34
Nghost:        3879.01 ave        5424 max         232 min
Histogram: 8 0 8 0 16 0 8 8 16 40
Neighs:        79213.7 ave      115455 max           0 min
Histogram: 8 4 4 0 10 6 8 8 24 32

Total # of neighbors = 8238222
Ave neighs/atom = 28.530540
Neighbor list builds = 2
Dangerous builds = 0
Setting atom values ...
  1 settings made for x
  1 settings made for y
  1 settings made for z
Setting up cg style minimization ...
  Unit style    : metal
  Current step  : 150
Per MPI rank memory allocation (min/avg/max) = 5.441 | 5.816 | 6.074 Mbytes
Step PotEng KinEng TotEng v_fx v_fy v_fz 
     150   -1152449.4            0   -1152449.4  0.025613154   0.02213117  0.031092271 
     395   -1152449.4            0   -1152449.4 -2.4659082e-07 9.6874609e-08 -2.5552253e-07 
Loop time of 2.88776 on 104 procs for 245 steps with 288751 atoms

99.9% CPU use with 104 MPI tasks x 1 OpenMP threads

Minimization stats:
  Stopping criterion = energy tolerance
  Energy initial, next-to-last, final = 
     -1152449.44521906  -1152449.44878003  -1152449.44878003
  Force two-norm initial, final = 0.2810804 1.2380569e-05
  Force max component initial, final = 0.14432769 5.4454823e-07
  Final line search alpha, max atom move = 1.0000000 5.4454823e-07
  Iterations, force evaluations = 245 490

MPI task timing breakdown:
Section |  min time  |  avg time  |  max time  |%varavg| %total
---------------------------------------------------------------
Pair    | 0.75126    | 2.0708     | 2.6961     |  38.8 | 71.71
Neigh   | 0          | 0          | 0          |   0.0 |  0.00
Comm    | 0.047507   | 0.47856    | 1.4155     |  55.8 | 16.57
Output  | 0          | 0          | 0          |   0.0 |  0.00
Modify  | 3.3709e-05 | 0.0040474  | 0.0086262  |   3.0 |  0.14
Other   |            | 0.3343     |            |       | 11.58

Nlocal:        2776.45 ave        3961 max           0 min
Histogram: 8 4 4 0 6 10 8 2 28 34
Nghost:        3879.01 ave        5424 max         232 min
Histogram: 8 0 8 0 16 0 8 8 16 40
Neighs:        79213.4 ave      115455 max           0 min
Histogram: 8 4 4 0 10 6 8 8 24 32

Total # of neighbors = 8238197
Ave neighs/atom = 28.530454
Neighbor list builds = 0
Dangerous builds = 0
Setting atom values ...
  1 settings made for x
  1 settings made for y
  1 settings made for z
Setting up cg style minimization ...
  Unit style    : metal
  Current step  : 395
Per MPI rank memory allocation (min/avg/max) = 5.441 | 5.816 | 6.074 Mbytes
Step PotEng KinEng TotEng v_fx v_fy v_fz 
     395   -1152449.4            0   -1152449.4  0.031931995  0.033140042  0.052623151 
     626   -1152449.4            0   -1152449.4 3.8949145e-06 9.0336429e-07 5.5319109e-06 
Loop time of 2.69004 on 104 procs for 231 steps with 288751 atoms

99.9% CPU use with 104 MPI tasks x 1 OpenMP threads

Minimization stats:
  Stopping criterion = energy tolerance
  Energy initial, next-to-last, final = 
     -1152449.43848314  -1152449.44312202  -1152449.44312202
  Force two-norm initial, final = 0.32342576 3.1618946e-05
  Force max component initial, final = 0.16013556 6.3548316e-06
  Final line search alpha, max atom move = 1.0000000 6.3548316e-06
  Iterations, force evaluations = 231 462

MPI task timing breakdown:
Section |  min time  |  avg time  |  max time  |%varavg| %total
---------------------------------------------------------------
Pair    | 0.70847    | 1.9416     | 2.5235     |  37.6 | 72.18
Neigh   | 0          | 0          | 0          |   0.0 |  0.00
Comm    | 0.043976   | 0.44404    | 1.3239     |  54.4 | 16.51
Output  | 0          | 0          | 0          |   0.0 |  0.00
Modify  | 3.0231e-05 | 0.0038117  | 0.0080923  |   2.9 |  0.14
Other   |            | 0.3006     |            |       | 11.17

Nlocal:        2776.45 ave        3961 max           0 min
Histogram: 8 4 4 0 6 10 8 2 28 34
Nghost:        3879.01 ave        5424 max         232 min
Histogram: 8 0 8 0 16 0 8 8 16 40
Neighs:        79213.4 ave      115455 max           0 min
Histogram: 8 4 4 0 10 6 8 8 24 32

Total # of neighbors = 8238197
Ave neighs/atom = 28.530454
Neighbor list builds = 0
Dangerous builds = 0
The dot product: 6.80857250268428e-07
The cos of the angle between the force vector and the displacement vector: 0.099750910274627
The angle: 84.2751730310654
Setting atom values ...
  1 settings made for x
  1 settings made for y
  1 settings made for z
Setting up cg style minimization ...
  Unit style    : metal
  Current step  : 626
Per MPI rank memory allocation (min/avg/max) = 5.441 | 5.816 | 6.074 Mbytes
Step PotEng KinEng TotEng v_fx v_fy v_fz 
     626   -1152449.4            0   -1152449.4  0.037261058  0.039833368  0.078632836 
     798   -1152449.4            0   -1152449.4 2.8205901e-05 8.6662739e-06 5.0750106e-05 
Loop time of 2.00415 on 104 procs for 172 steps with 288751 atoms

99.9% CPU use with 104 MPI tasks x 1 OpenMP threads

Minimization stats:
  Stopping criterion = energy tolerance
  Energy initial, next-to-last, final = 
     -1152449.42919251  -1152449.43384313  -1152449.43384313
  Force two-norm initial, final = 0.32545511 0.00023391121
  Force max component initial, final = 0.15901866 5.0750106e-05
  Final line search alpha, max atom move = 1.0000000 5.0750106e-05
  Iterations, force evaluations = 172 344

MPI task timing breakdown:
Section |  min time  |  avg time  |  max time  |%varavg| %total
---------------------------------------------------------------
Pair    | 0.52422    | 1.4546     | 1.879      |  32.6 | 72.58
Neigh   | 0          | 0          | 0          |   0.0 |  0.00
Comm    | 0.030356   | 0.33214    | 0.99612    |  47.6 | 16.57
Output  | 0          | 0          | 0          |   0.0 |  0.00
Modify  | 2.1085e-05 | 0.0028588  | 0.0060785  |   2.5 |  0.14
Other   |            | 0.2146     |            |       | 10.71

Nlocal:        2776.45 ave        3960 max           0 min
Histogram: 8 4 4 0 4 12 8 2 28 34
Nghost:        3879.01 ave        5424 max         232 min
Histogram: 8 0 8 0 16 0 8 8 16 40
Neighs:        79213.5 ave      115422 max           0 min
Histogram: 8 4 4 0 10 6 8 8 24 32

Total # of neighbors = 8238199
Ave neighs/atom = 28.530461
Neighbor list builds = 0
Dangerous builds = 0
The dot product: 7.40239483488477e-06
The cos of the angle between the force vector and the displacement vector: 0.126095279881744
The angle: 82.7559887978926
Setting atom values ...
  1 settings made for x
  1 settings made for y
  1 settings made for z
Setting up cg style minimization ...
  Unit style    : metal
  Current step  : 798
Per MPI rank memory allocation (min/avg/max) = 5.441 | 5.816 | 6.074 Mbytes
Step PotEng KinEng TotEng v_fx v_fy v_fz 
     798   -1152449.4            0   -1152449.4  0.034575237  0.039524819   0.10288592 
     920   -1152449.4            0   -1152449.4 2.3310104e-05 5.3280634e-06 5.6555651e-05 
Loop time of 1.43135 on 104 procs for 122 steps with 288751 atoms

99.9% CPU use with 104 MPI tasks x 1 OpenMP threads

Minimization stats:
  Stopping criterion = energy tolerance
  Energy initial, next-to-last, final = 
     -1152449.41709944  -1152449.42180655  -1152449.42180655
  Force two-norm initial, final = 0.32561237 0.00017888175
  Force max component initial, final = 0.15803624 5.6555651e-05
  Final line search alpha, max atom move = 1.0000000 5.6555651e-05
  Iterations, force evaluations = 122 244

MPI task timing breakdown:
Section |  min time  |  avg time  |  max time  |%varavg| %total
---------------------------------------------------------------
Pair    | 0.375      | 1.0264     | 1.3373     |  27.3 | 71.71
Neigh   | 0          | 0          | 0          |   0.0 |  0.00
Comm    | 0.022864   | 0.23505    | 0.69767    |  39.5 | 16.42
Output  | 0          | 0          | 0          |   0.0 |  0.00
Modify  | 1.5096e-05 | 0.0020199  | 0.0043042  |   2.1 |  0.14
Other   |            | 0.1679     |            |       | 11.73

Nlocal:        2776.45 ave        3960 max           0 min
Histogram: 8 4 4 0 4 12 8 4 26 34
Nghost:        3879.05 ave        5424 max         232 min
Histogram: 8 0 8 0 16 0 8 8 16 40
Neighs:        79213.5 ave      115422 max           0 min
Histogram: 8 4 4 0 10 6 8 8 24 32

Total # of neighbors = 8238202
Ave neighs/atom = 28.530471
Neighbor list builds = 0
Dangerous builds = 0
The dot product: 7.63106855439646e-06
The cos of the angle between the force vector and the displacement vector: 0.124279050394932
The angle: 82.8608762317695
Setting atom values ...
  1 settings made for x
  1 settings made for y
  1 settings made for z
Setting up cg style minimization ...
  Unit style    : metal
  Current step  : 920
Per MPI rank memory allocation (min/avg/max) = 5.441 | 5.816 | 6.074 Mbytes
Step PotEng KinEng TotEng v_fx v_fy v_fz 
     920   -1152449.4            0   -1152449.4   0.02441861  0.028499277   0.10903807 
    1000   -1152449.4            0   -1152449.4 5.1847777e-05 2.4104667e-05 0.00019914492 
    1169   -1152449.4            0   -1152449.4 -3.0914779e-07 8.6357401e-08 -9.8282617e-07 
Loop time of 2.897 on 104 procs for 249 steps with 288751 atoms

99.9% CPU use with 104 MPI tasks x 1 OpenMP threads

Minimization stats:
  Stopping criterion = energy tolerance
  Energy initial, next-to-last, final = 
     -1152449.40239822   -1152449.4069692   -1152449.4069692
  Force two-norm initial, final = 0.31836959 1.2658851e-05
  Force max component initial, final = 0.15408933 1.9775010e-06
  Final line search alpha, max atom move = 1.0000000 1.9775010e-06
  Iterations, force evaluations = 249 498

MPI task timing breakdown:
Section |  min time  |  avg time  |  max time  |%varavg| %total
---------------------------------------------------------------
Pair    | 0.75698    | 2.0979     | 2.7292     |  39.1 | 72.41
Neigh   | 0          | 0          | 0          |   0.0 |  0.00
Comm    | 0.046244   | 0.47794    | 1.4403     |  57.0 | 16.50
Output  | 0.00013812 | 0.00015037 | 0.00028715 |   0.0 |  0.01
Modify  | 3.2608e-05 | 0.0041109  | 0.0088229  |   3.0 |  0.14
Other   |            | 0.3169     |            |       | 10.94

Nlocal:        2776.45 ave        3960 max           0 min
Histogram: 8 4 4 0 4 12 8 4 26 34
Nghost:        3879.05 ave        5424 max         232 min
Histogram: 8 0 8 0 16 0 8 8 16 40
Neighs:        79213.5 ave      115431 max           0 min
Histogram: 8 4 4 0 10 6 8 8 24 32

Total # of neighbors = 8238203
Ave neighs/atom = 28.530474
Neighbor list builds = 0
Dangerous builds = 0
The dot product: -1.07629630959331e-07
The cos of the angle between the force vector and the displacement vector: -0.104099254703873
The angle: 95.9752732620626
Setting atom values ...
  1 settings made for x
  1 settings made for y
  1 settings made for z
Setting up cg style minimization ...
  Unit style    : metal
  Current step  : 1169
Per MPI rank memory allocation (min/avg/max) = 5.441 | 5.816 | 6.074 Mbytes
Step PotEng KinEng TotEng v_fx v_fy v_fz 
    1169   -1152449.4            0   -1152449.4  0.014974122  0.013642256     0.101788 
    1363   -1152449.4            0   -1152449.4 3.8279535e-06 3.5039658e-06 2.6042906e-05 
Loop time of 2.24452 on 104 procs for 194 steps with 288751 atoms

99.9% CPU use with 104 MPI tasks x 1 OpenMP threads

Minimization stats:
  Stopping criterion = energy tolerance
  Energy initial, next-to-last, final = 
      -1152449.3847106  -1152449.38910251  -1152449.38910251
  Force two-norm initial, final = 0.30824346 0.00012088105
  Force max component initial, final = 0.14902811 2.6042906e-05
  Final line search alpha, max atom move = 1.0000000 2.6042906e-05
  Iterations, force evaluations = 194 388

MPI task timing breakdown:
Section |  min time  |  avg time  |  max time  |%varavg| %total
---------------------------------------------------------------
Pair    | 0.59818    | 1.6285     | 2.1107     |  34.3 | 72.55
Neigh   | 0          | 0          | 0          |   0.0 |  0.00
Comm    | 0.037173   | 0.36871    | 1.104      |  50.3 | 16.43
Output  | 0          | 0          | 0          |   0.0 |  0.00
Modify  | 2.3942e-05 | 0.0031981  | 0.0067953  |   2.7 |  0.14
Other   |            | 0.2441     |            |       | 10.88

Nlocal:        2776.45 ave        3961 max           0 min
Histogram: 8 4 4 0 6 10 8 4 26 34
Nghost:        3879.05 ave        5424 max         232 min
Histogram: 8 0 8 0 16 0 8 8 16 40
Neighs:        79213.5 ave      115445 max           0 min
Histogram: 8 4 4 0 10 6 8 8 24 32

Total # of neighbors = 8238204
Ave neighs/atom = 28.530478
Neighbor list builds = 0
Dangerous builds = 0
The dot product: 2.06358684602445e-06
The cos of the angle between the force vector and the displacement vector: 0.0777101413825706
The angle: 85.5430433468057
Setting atom values ...
  1 settings made for x
  1 settings made for y
  1 settings made for z
Setting up cg style minimization ...
  Unit style    : metal
  Current step  : 1363
Per MPI rank memory allocation (min/avg/max) = 5.441 | 5.816 | 6.074 Mbytes
Step PotEng KinEng TotEng v_fx v_fy v_fz 
    1363   -1152449.4            0   -1152449.4 0.0087722604 -0.0012658787  0.090800303 
    1540   -1152449.4            0   -1152449.4 -9.1801797e-06 -5.7739395e-06 -0.00011078621 
Loop time of 2.06657 on 104 procs for 177 steps with 288751 atoms

99.9% CPU use with 104 MPI tasks x 1 OpenMP threads

Minimization stats:
  Stopping criterion = energy tolerance
  Energy initial, next-to-last, final = 
     -1152449.36381024  -1152449.36811451  -1152449.36811451
  Force two-norm initial, final = 0.29931394 0.00029706568
  Force max component initial, final = 0.14401164 0.00011078621
  Final line search alpha, max atom move = 1.0000000 0.00011078621
  Iterations, force evaluations = 177 354

MPI task timing breakdown:
Section |  min time  |  avg time  |  max time  |%varavg| %total
---------------------------------------------------------------
Pair    | 0.53969    | 1.4924     | 1.9385     |  32.9 | 72.22
Neigh   | 0          | 0          | 0          |   0.0 |  0.00
Comm    | 0.033965   | 0.34087    | 1.008      |  47.7 | 16.49
Output  | 0          | 0          | 0          |   0.0 |  0.00
Modify  | 2.1259e-05 | 0.0029263  | 0.0062325  |   2.6 |  0.14
Other   |            | 0.2304     |            |       | 11.15

Nlocal:        2776.45 ave        3961 max           0 min
Histogram: 8 4 4 0 6 10 8 4 26 34
Nghost:        3879.05 ave        5424 max         232 min
Histogram: 8 0 8 0 16 0 8 8 16 40
Neighs:        79213.5 ave      115445 max           0 min
Histogram: 8 4 4 0 10 6 8 8 24 32

Total # of neighbors = 8238206
Ave neighs/atom = 28.530485
Neighbor list builds = 0
Dangerous builds = 0
The dot product: -7.46185969973878e-06
The cos of the angle between the force vector and the displacement vector: -0.0670332733026308
The angle: 93.8436058351213
Setting atom values ...
  1 settings made for x
  1 settings made for y
  1 settings made for z
Setting up cg style minimization ...
  Unit style    : metal
  Current step  : 1540
Per MPI rank memory allocation (min/avg/max) = 5.441 | 5.816 | 6.074 Mbytes
Step PotEng KinEng TotEng v_fx v_fy v_fz 
    1540   -1152449.3            0   -1152449.3 0.0045749194 -0.015552038  0.083074051 
    1741   -1152449.3            0   -1152449.3 -2.1198706e-07 2.9320997e-09 -9.0532821e-06 
Loop time of 2.34296 on 104 procs for 201 steps with 288751 atoms

99.9% CPU use with 104 MPI tasks x 1 OpenMP threads

Minimization stats:
  Stopping criterion = energy tolerance
  Energy initial, next-to-last, final = 
     -1152449.33970636  -1152449.34430361  -1152449.34430361
  Force two-norm initial, final = 0.29299083 0.00013819934
  Force max component initial, final = 0.13871277 2.3215340e-05
  Final line search alpha, max atom move = 1.0000000 2.3215340e-05
  Iterations, force evaluations = 201 402

MPI task timing breakdown:
Section |  min time  |  avg time  |  max time  |%varavg| %total
---------------------------------------------------------------
Pair    | 0.61818    | 1.6928     | 2.1937     |  34.9 | 72.25
Neigh   | 0          | 0          | 0          |   0.0 |  0.00
Comm    | 0.038241   | 0.38577    | 1.1545     |  51.1 | 16.46
Output  | 0          | 0          | 0          |   0.0 |  0.00
Modify  | 2.4736e-05 | 0.003311   | 0.0070196  |   2.7 |  0.14
Other   |            | 0.2611     |            |       | 11.14

Nlocal:        2776.45 ave        3961 max           0 min
Histogram: 8 4 4 0 6 10 8 4 26 34
Nghost:        3879.05 ave        5424 max         232 min
Histogram: 8 0 8 0 16 0 8 8 16 40
Neighs:        79213.5 ave      115455 max           0 min
Histogram: 8 4 4 0 10 6 8 8 24 32

Total # of neighbors = 8238206
Ave neighs/atom = 28.530485
Neighbor list builds = 0
Dangerous builds = 0
The dot product: -7.77749162550306e-07
The cos of the angle between the force vector and the displacement vector: -0.0858844327907826
The angle: 94.9268851269665
Setting atom values ...
  1 settings made for x
  1 settings made for y
  1 settings made for z
Setting up cg style minimization ...
  Unit style    : metal
  Current step  : 1741
Per MPI rank memory allocation (min/avg/max) = 5.441 | 5.816 | 6.074 Mbytes
Step PotEng KinEng TotEng v_fx v_fy v_fz 
    1741   -1152449.3            0   -1152449.3 -0.0019716005  -0.03417055  0.097087657 
    1928   -1152449.3            0   -1152449.3 4.6027495e-07 1.7513828e-06 -1.0647227e-05 
Loop time of 2.18969 on 104 procs for 187 steps with 288751 atoms

99.9% CPU use with 104 MPI tasks x 1 OpenMP threads

Minimization stats:
  Stopping criterion = energy tolerance
  Energy initial, next-to-last, final = 
     -1152449.31319601  -1152449.31861572  -1152449.31861572
  Force two-norm initial, final = 0.29232528 0.00022039353
  Force max component initial, final = 0.12884895 1.0647227e-05
  Final line search alpha, max atom move = 1.0000000 1.0647227e-05
  Iterations, force evaluations = 187 374

MPI task timing breakdown:
Section |  min time  |  avg time  |  max time  |%varavg| %total
---------------------------------------------------------------
Pair    | 0.57729    | 1.5819     | 2.0486     |  33.8 | 72.24
Neigh   | 0          | 0          | 0          |   0.0 |  0.00
Comm    | 0.039772   | 0.36243    | 1.0763     |  49.3 | 16.55
Output  | 0          | 0          | 0          |   0.0 |  0.00
Modify  | 2.529e-05  | 0.0030937  | 0.0066189  |   2.6 |  0.14
Other   |            | 0.2423     |            |       | 11.06

Nlocal:        2776.45 ave        3961 max           0 min
Histogram: 8 4 4 0 6 10 8 4 26 34
Nghost:        3879.01 ave        5424 max         232 min
Histogram: 8 0 8 0 16 0 8 8 16 40
Neighs:        79213.5 ave      115455 max           0 min
Histogram: 8 4 4 0 10 6 8 8 24 32

Total # of neighbors = 8238206
Ave neighs/atom = 28.530485
Neighbor list builds = 0
Dangerous builds = 0
The dot product: -1.10496763436411e-06
The cos of the angle between the force vector and the displacement vector: -0.102310664734914
The angle: 95.8722444287691
Setting atom values ...
  1 settings made for x
  1 settings made for y
  1 settings made for z
Setting up cg style minimization ...
  Unit style    : metal
  Current step  : 1928
Per MPI rank memory allocation (min/avg/max) = 5.441 | 5.816 | 6.074 Mbytes
Step PotEng KinEng TotEng v_fx v_fy v_fz 
    1928   -1152449.3            0   -1152449.3 -0.013158306 -0.047674982   0.10346558 
    2000   -1152449.3            0   -1152449.3 -0.00018258657 3.5394152e-05 0.0011216437 
    2134   -1152449.3            0   -1152449.3 -1.8568963e-06 -8.3076264e-08 1.1606703e-05 
Loop time of 2.38858 on 104 procs for 206 steps with 288751 atoms

99.9% CPU use with 104 MPI tasks x 1 OpenMP threads

Minimization stats:
  Stopping criterion = energy tolerance
  Energy initial, next-to-last, final = 
     -1152449.28519758  -1152449.29048163  -1152449.29048163
  Force two-norm initial, final = 0.29054109 0.00016178992
  Force max component initial, final = 0.13992456 1.1606703e-05
  Final line search alpha, max atom move = 1.0000000 1.1606703e-05
  Iterations, force evaluations = 206 412

MPI task timing breakdown:
Section |  min time  |  avg time  |  max time  |%varavg| %total
---------------------------------------------------------------
Pair    | 0.62737    | 1.7325     | 2.2531     |  35.6 | 72.53
Neigh   | 0          | 0          | 0          |   0.0 |  0.00
Comm    | 0.037804   | 0.39449    | 1.1871     |  52.0 | 16.52
Output  | 0.00013459 | 0.00014245 | 0.00026649 |   0.0 |  0.01
Modify  | 2.5641e-05 | 0.0034024  | 0.0072332  |   2.8 |  0.14
Other   |            | 0.2581     |            |       | 10.81

Nlocal:        2776.45 ave        3961 max           0 min
Histogram: 8 4 4 0 6 10 8 4 26 34
Nghost:        3878.98 ave        5426 max         232 min
Histogram: 8 0 8 0 16 0 8 8 16 40
Neighs:        79213.5 ave      115455 max           0 min
Histogram: 8 4 4 0 10 6 8 8 24 32

Total # of neighbors = 8238207
Ave neighs/atom = 28.530488
Neighbor list builds = 0
Dangerous builds = 0
The dot product: 9.66927147663222e-07
The cos of the angle between the force vector and the displacement vector: 0.0822594980327136
The angle: 85.2815463657064
Setting atom values ...
  1 settings made for x
  1 settings made for y
  1 settings made for z
Setting up cg style minimization ...
  Unit style    : metal
  Current step  : 2134
Per MPI rank memory allocation (min/avg/max) = 5.441 | 5.816 | 6.074 Mbytes
Step PotEng KinEng TotEng v_fx v_fy v_fz 
    2134   -1152449.3            0   -1152449.3 -0.020465255 -0.050097662   0.08873267 
    2343   -1152449.3            0   -1152449.3 6.8748783e-06 -1.4058952e-06 -2.7791067e-05 
Loop time of 2.4936 on 104 procs for 209 steps with 288751 atoms

99.9% CPU use with 104 MPI tasks x 1 OpenMP threads

Minimization stats:
  Stopping criterion = energy tolerance
  Energy initial, next-to-last, final = 
     -1152449.25441726  -1152449.25956265  -1152449.25956265
  Force two-norm initial, final = 0.2825566 0.00015319856
  Force max component initial, final = 0.15382122 2.7791067e-05
  Final line search alpha, max atom move = 1.0000000 2.7791067e-05
  Iterations, force evaluations = 209 418

MPI task timing breakdown:
Section |  min time  |  avg time  |  max time  |%varavg| %total
---------------------------------------------------------------
Pair    | 0.64163    | 1.7759     | 2.3237     |  36.0 | 71.22
Neigh   | 0          | 0          | 0          |   0.0 |  0.00
Comm    | 0.048907   | 0.41781    | 1.2083     |  50.6 | 16.76
Output  | 0          | 0          | 0          |   0.0 |  0.00
Modify  | 2.6271e-05 | 0.0034664  | 0.0082015  |   2.8 |  0.14
Other   |            | 0.2964     |            |       | 11.89

Nlocal:        2776.45 ave        3961 max           0 min
Histogram: 8 4 4 0 6 10 8 4 26 34
Nghost:        3879.02 ave        5429 max         232 min
Histogram: 8 0 8 0 16 0 8 8 16 40
Neighs:        79213.6 ave      115455 max           0 min
Histogram: 8 4 4 0 10 6 8 8 24 32

Total # of neighbors = 8238211
Ave neighs/atom = 28.530502
Neighbor list builds = 0
Dangerous builds = 0
The dot product: -2.03909865478886e-06
The cos of the angle between the force vector and the displacement vector: -0.0711397414865648
The angle: 94.0794528148678
Setting atom values ...
  1 settings made for x
  1 settings made for y
  1 settings made for z
Setting up cg style minimization ...
  Unit style    : metal
  Current step  : 2343
Per MPI rank memory allocation (min/avg/max) = 5.441 | 5.816 | 6.074 Mbytes
Step PotEng KinEng TotEng v_fx v_fy v_fz 
    2343   -1152449.2            0   -1152449.2 -0.025837182 -0.044931365   0.07810748 
    2562   -1152449.2            0   -1152449.2 -6.1952973e-06 4.3793074e-07 1.9073717e-05 
Loop time of 2.58659 on 104 procs for 219 steps with 288751 atoms

99.9% CPU use with 104 MPI tasks x 1 OpenMP threads

Minimization stats:
  Stopping criterion = energy tolerance
  Energy initial, next-to-last, final = 
     -1152449.22102901  -1152449.22605182  -1152449.22605182
  Force two-norm initial, final = 0.27598155 9.0875755e-05
  Force max component initial, final = 0.16537608 2.5820523e-05
  Final line search alpha, max atom move = 1.0000000 2.5820523e-05
  Iterations, force evaluations = 219 438

MPI task timing breakdown:
Section |  min time  |  avg time  |  max time  |%varavg| %total
---------------------------------------------------------------
Pair    | 0.68805    | 1.8442     | 2.3917     |  36.1 | 71.30
Neigh   | 0          | 0          | 0          |   0.0 |  0.00
Comm    | 0.048594   | 0.42073    | 1.2593     |  52.9 | 16.27
Output  | 0          | 0          | 0          |   0.0 |  0.00
Modify  | 2.6779e-05 | 0.0036118  | 0.0076882  |   2.8 |  0.14
Other   |            | 0.318      |            |       | 12.30

Nlocal:        2776.45 ave        3961 max           0 min
Histogram: 8 4 4 0 6 10 8 4 26 34
Nghost:        3879.02 ave        5426 max         232 min
Histogram: 8 0 8 0 16 0 8 8 16 40
Neighs:        79213.6 ave      115459 max           0 min
Histogram: 8 4 4 0 10 6 8 8 24 32

Total # of neighbors = 8238218
Ave neighs/atom = 28.530526
Neighbor list builds = 0
Dangerous builds = 0
The dot product: 1.31651038270242e-06
The cos of the angle between the force vector and the displacement vector: 0.0656305438010679
The angle: 86.2369420493801
Setting atom values ...
  1 settings made for x
  1 settings made for y
  1 settings made for z
Setting up cg style minimization ...
  Unit style    : metal
  Current step  : 2562
Per MPI rank memory allocation (min/avg/max) = 5.441 | 5.816 | 6.074 Mbytes
Step PotEng KinEng TotEng v_fx v_fy v_fz 
    2562   -1152449.2            0   -1152449.2 -0.029365194 -0.033387409  0.070343681 
    2785   -1152449.2            0   -1152449.2 6.9912172e-06 4.7484413e-07 -1.7432996e-05 
Loop time of 2.62315 on 104 procs for 223 steps with 288751 atoms

99.9% CPU use with 104 MPI tasks x 1 OpenMP threads

Minimization stats:
  Stopping criterion = energy tolerance
  Energy initial, next-to-last, final = 
     -1152449.18519573  -1152449.19056697  -1152449.19056697
  Force two-norm initial, final = 0.2706804 8.7838022e-05
  Force max component initial, final = 0.17528129 1.9510280e-05
  Final line search alpha, max atom move = 1.0000000 1.9510280e-05
  Iterations, force evaluations = 223 446

MPI task timing breakdown:
Section |  min time  |  avg time  |  max time  |%varavg| %total
---------------------------------------------------------------
Pair    | 0.67977    | 1.8815     | 2.4544     |  37.1 | 71.73
Neigh   | 0          | 0          | 0          |   0.0 |  0.00
Comm    | 0.041367   | 0.43275    | 1.2853     |  53.5 | 16.50
Output  | 0          | 0          | 0          |   0.0 |  0.00
Modify  | 2.7427e-05 | 0.0036856  | 0.0078393  |   2.9 |  0.14
Other   |            | 0.3052     |            |       | 11.64

Nlocal:        2776.45 ave        3961 max           0 min
Histogram: 8 4 4 0 6 10 8 4 26 34
Nghost:        3879.06 ave        5424 max         232 min
Histogram: 8 0 8 0 16 0 8 8 16 40
Neighs:        79213.6 ave      115462 max           0 min
Histogram: 8 4 4 0 10 6 8 8 24 32

Total # of neighbors = 8238216
Ave neighs/atom = 28.530519
Neighbor list builds = 0
Dangerous builds = 0
The dot product: -1.30502369217608e-06
The cos of the angle between the force vector and the displacement vector: -0.06945822636407
The angle: 93.9828701347509
Setting atom values ...
  1 settings made for x
  1 settings made for y
  1 settings made for z
Setting up cg style minimization ...
  Unit style    : metal
  Current step  : 2785
Per MPI rank memory allocation (min/avg/max) = 5.441 | 5.816 | 6.074 Mbytes
Step PotEng KinEng TotEng v_fx v_fy v_fz 
    2785   -1152449.1            0   -1152449.1 -0.035245823 -0.018421809  0.071045279 
    2975   -1152449.2            0   -1152449.2 -6.5530579e-06 -2.1533804e-06 1.3343567e-05 
Loop time of 2.20464 on 104 procs for 190 steps with 288751 atoms

99.9% CPU use with 104 MPI tasks x 1 OpenMP threads

Minimization stats:
  Stopping criterion = energy tolerance
  Energy initial, next-to-last, final = 
     -1152449.14830909  -1152449.15359594  -1152449.15359594
  Force two-norm initial, final = 0.26795122 0.00018021148
  Force max component initial, final = 0.18324717 1.3343567e-05
  Final line search alpha, max atom move = 1.0000000 1.3343567e-05
  Iterations, force evaluations = 190 380

MPI task timing breakdown:
Section |  min time  |  avg time  |  max time  |%varavg| %total
---------------------------------------------------------------
Pair    | 0.58501    | 1.5975     | 2.0734     |  34.0 | 72.46
Neigh   | 0          | 0          | 0          |   0.0 |  0.00
Comm    | 0.03765    | 0.36229    | 1.0811     |  49.7 | 16.43
Output  | 0          | 0          | 0          |   0.0 |  0.00
Modify  | 2.3087e-05 | 0.0031325  | 0.0066444  |   2.6 |  0.14
Other   |            | 0.2417     |            |       | 10.96

Nlocal:        2776.45 ave        3960 max           0 min
Histogram: 8 4 4 0 4 12 8 3 27 34
Nghost:        3879.07 ave        5424 max         232 min
Histogram: 8 0 8 0 16 0 8 8 16 40
Neighs:        79213.6 ave      115436 max           0 min
Histogram: 8 4 4 0 10 6 8 8 24 32

Total # of neighbors = 8238217
Ave neighs/atom = 28.530523
Neighbor list builds = 0
Dangerous builds = 0
The dot product: 9.1861630742042e-07
The cos of the angle between the force vector and the displacement vector: 0.0611554748384729
The angle: 86.4938615889619
Setting atom values ...
  1 settings made for x
  1 settings made for y
  1 settings made for z
Setting up cg style minimization ...
  Unit style    : metal
  Current step  : 2975
Per MPI rank memory allocation (min/avg/max) = 5.441 | 5.816 | 6.074 Mbytes
Step PotEng KinEng TotEng v_fx v_fy v_fz 
    2975   -1152449.1            0   -1152449.1 -0.034318598 -0.0074264953  0.060424256 
    3000   -1152449.1            0   -1152449.1 0.00084620113 7.2476332e-05 -0.001501042 
    3159   -1152449.1            0   -1152449.1 -2.2480266e-05 -4.6992273e-06 3.959735e-05 
Loop time of 2.14635 on 104 procs for 184 steps with 288751 atoms

99.9% CPU use with 104 MPI tasks x 1 OpenMP threads

Minimization stats:
  Stopping criterion = energy tolerance
  Energy initial, next-to-last, final = 
     -1152449.10960901  -1152449.11426184  -1152449.11426184
  Force two-norm initial, final = 0.26438231 0.00018825088
  Force max component initial, final = 0.19091124 3.9597350e-05
  Final line search alpha, max atom move = 1.0000000 3.9597350e-05
  Iterations, force evaluations = 184 368

MPI task timing breakdown:
Section |  min time  |  avg time  |  max time  |%varavg| %total
---------------------------------------------------------------
Pair    | 0.56685    | 1.5531     | 2.0109     |  33.5 | 72.36
Neigh   | 0          | 0          | 0          |   0.0 |  0.00
Comm    | 0.037591   | 0.35352    | 1.0666     |  49.2 | 16.47
Output  | 0.00014017 | 0.00014237 | 0.00022503 |   0.0 |  0.01
Modify  | 2.3156e-05 | 0.0030389  | 0.0064578  |   2.6 |  0.14
Other   |            | 0.2366     |            |       | 11.02

Nlocal:        2776.45 ave        3959 max           0 min
Histogram: 8 4 4 0 4 12 8 3 27 34
Nghost:        3879.03 ave        5424 max         232 min
Histogram: 8 0 8 0 16 0 8 8 16 40
Neighs:        79213.6 ave      115411 max           0 min
Histogram: 8 4 4 0 10 6 8 8 24 32

Total # of neighbors = 8238217
Ave neighs/atom = 28.530523
Neighbor list builds = 0
Dangerous builds = 0
The dot product: 2.18742704702975e-06
The cos of the angle between the force vector and the displacement vector: 0.0477859916920461
The angle: 87.2610212708627
Setting atom values ...
  1 settings made for x
  1 settings made for y
  1 settings made for z
Setting up cg style minimization ...
  Unit style    : metal
  Current step  : 3159
Per MPI rank memory allocation (min/avg/max) = 5.441 | 5.816 | 6.074 Mbytes
Step PotEng KinEng TotEng v_fx v_fy v_fz 
    3159   -1152449.1            0   -1152449.1 -0.027979803 -0.001992576  0.044503578 
    3340   -1152449.1            0   -1152449.1 -1.309012e-05 -8.3267676e-08 2.0898919e-05 
Loop time of 2.09929 on 104 procs for 181 steps with 288751 atoms

99.9% CPU use with 104 MPI tasks x 1 OpenMP threads

Minimization stats:
  Stopping criterion = energy tolerance
  Energy initial, next-to-last, final = 
     -1152449.06796992  -1152449.07208075  -1152449.07208075
  Force two-norm initial, final = 0.26192022 0.00018313591
  Force max component initial, final = 0.19826753 2.1071335e-05
  Final line search alpha, max atom move = 1.0000000 2.1071335e-05
  Iterations, force evaluations = 181 362

MPI task timing breakdown:
Section |  min time  |  avg time  |  max time  |%varavg| %total
---------------------------------------------------------------
Pair    | 0.55322    | 1.5185     | 1.9711     |  33.2 | 72.33
Neigh   | 0          | 0          | 0          |   0.0 |  0.00
Comm    | 0.034562   | 0.34494    | 1.0301     |  48.4 | 16.43
Output  | 0          | 0          | 0          |   0.0 |  0.00
Modify  | 2.1557e-05 | 0.0029784  | 0.0063779  |   2.6 |  0.14
Other   |            | 0.2329     |            |       | 11.09

Nlocal:        2776.45 ave        3959 max           0 min
Histogram: 8 4 4 0 4 12 8 3 27 34
Nghost:        3879.00 ave        5425 max         232 min
Histogram: 8 0 8 0 16 0 8 8 16 40
Neighs:        79213.6 ave      115407 max           0 min
Histogram: 8 4 4 0 10 6 8 8 24 32

Total # of neighbors = 8238212
Ave neighs/atom = 28.530506
Neighbor list builds = 0
Dangerous builds = 0
The dot product: 8.90466396037291e-07
The cos of the angle between the force vector and the displacement vector: 0.0361095292021142
The angle: 87.9306265015683
Setting atom values ...
  1 settings made for x
  1 settings made for y
  1 settings made for z
Setting up cg style minimization ...
  Unit style    : metal
  Current step  : 3340
Per MPI rank memory allocation (min/avg/max) = 5.441 | 5.816 | 6.074 Mbytes
Step PotEng KinEng TotEng v_fx v_fy v_fz 
    3340     -1152449            0     -1152449  -0.02038104 -0.00044475483  0.030038016 
    3592     -1152449            0     -1152449 -2.0206047e-06 -5.6846714e-07 2.9332858e-06 
Loop time of 2.94743 on 104 procs for 252 steps with 288751 atoms

99.9% CPU use with 104 MPI tasks x 1 OpenMP threads

Minimization stats:
  Stopping criterion = energy tolerance
  Energy initial, next-to-last, final = 
     -1152449.02317013  -1152449.02705012  -1152449.02705012
  Force two-norm initial, final = 0.2618256 1.5033070e-05
  Force max component initial, final = 0.2050176 2.9332858e-06
  Final line search alpha, max atom move = 1.0000000 2.9332858e-06
  Iterations, force evaluations = 252 504

MPI task timing breakdown:
Section |  min time  |  avg time  |  max time  |%varavg| %total
---------------------------------------------------------------
Pair    | 0.78021    | 2.1303     | 2.7553     |  39.2 | 72.28
Neigh   | 0          | 0          | 0          |   0.0 |  0.00
Comm    | 0.05351    | 0.48773    | 1.4484     |  57.1 | 16.55
Output  | 0          | 0          | 0          |   0.0 |  0.00
Modify  | 3.0891e-05 | 0.0041612  | 0.0089238  |   3.0 |  0.14
Other   |            | 0.3252     |            |       | 11.03

Nlocal:        2776.45 ave        3958 max           0 min
Histogram: 8 4 4 0 4 12 8 2 28 34
Nghost:        3878.98 ave        5425 max         232 min
Histogram: 8 0 8 0 16 0 8 8 16 40
Neighs:        79213.6 ave      115381 max           0 min
Histogram: 8 4 4 0 10 6 8 8 24 32

Total # of neighbors = 8238214
Ave neighs/atom = 28.530512
Neighbor list builds = 0
Dangerous builds = 0
The dot product: 9.83416819075436e-08
The cos of the angle between the force vector and the displacement vector: 0.0272644192504734
The angle: 88.437670246029
Setting atom values ...
  1 settings made for x
  1 settings made for y
  1 settings made for z
Setting up cg style minimization ...
  Unit style    : metal
  Current step  : 3592
Per MPI rank memory allocation (min/avg/max) = 5.441 | 5.816 | 6.074 Mbytes
Step PotEng KinEng TotEng v_fx v_fy v_fz 
    3592     -1152449            0     -1152449 -0.013806967 -0.00032936153  0.019177218 
    3777     -1152449            0     -1152449 -3.8895845e-05 -5.214722e-06 5.3679329e-05 
Loop time of 2.16637 on 104 procs for 185 steps with 288751 atoms

99.9% CPU use with 104 MPI tasks x 1 OpenMP threads

Minimization stats:
  Stopping criterion = energy tolerance
  Energy initial, next-to-last, final = 
     -1152448.97562925  -1152448.97948544  -1152448.97948544
  Force two-norm initial, final = 0.26314417 0.00022816673
  Force max component initial, final = 0.21070646 5.3679329e-05
  Final line search alpha, max atom move = 1.0000000 5.3679329e-05
  Iterations, force evaluations = 185 370

MPI task timing breakdown:
Section |  min time  |  avg time  |  max time  |%varavg| %total
---------------------------------------------------------------
Pair    | 0.56789    | 1.5564     | 2.0246     |  33.6 | 71.84
Neigh   | 0          | 0          | 0          |   0.0 |  0.00
Comm    | 0.03303    | 0.35555    | 1.0664     |  49.1 | 16.41
Output  | 0          | 0          | 0          |   0.0 |  0.00
Modify  | 2.2828e-05 | 0.0030541  | 0.0065626  |   2.6 |  0.14
Other   |            | 0.2514     |            |       | 11.60

Nlocal:        2776.45 ave        3958 max           0 min
Histogram: 8 4 4 0 4 12 8 2 28 34
Nghost:        3878.90 ave        5425 max         232 min
Histogram: 8 0 8 0 16 0 8 8 16 40
Neighs:        79213.6 ave      115376 max           0 min
Histogram: 8 4 4 0 10 6 8 8 24 32

Total # of neighbors = 8238219
Ave neighs/atom = 28.530530
Neighbor list builds = 0
Dangerous builds = 0
The dot product: 1.45088739481187e-06
The cos of the angle between the force vector and the displacement vector: 0.0218195813245188
The angle: 88.7497308583437
Setting atom values ...
  1 settings made for x
  1 settings made for y
  1 settings made for z
Setting up cg style minimization ...
  Unit style    : metal
  Current step  : 3777
Per MPI rank memory allocation (min/avg/max) = 5.441 | 5.816 | 6.074 Mbytes
Step PotEng KinEng TotEng v_fx v_fy v_fz 
    3777   -1152448.9            0   -1152448.9 -0.0080724605 -5.9815237e-05  0.010718387 
    3984   -1152448.9            0   -1152448.9 -1.2631766e-05 -3.8162586e-06 1.6484627e-05 
Loop time of 2.4251 on 104 procs for 207 steps with 288751 atoms

99.9% CPU use with 104 MPI tasks x 1 OpenMP threads

Minimization stats:
  Stopping criterion = energy tolerance
  Energy initial, next-to-last, final = 
     -1152448.92577129   -1152448.9297125   -1152448.9297125
  Force two-norm initial, final = 0.26503308 0.00014341505
  Force max component initial, final = 0.21548331 1.6484627e-05
  Final line search alpha, max atom move = 1.0000000 1.6484627e-05
  Iterations, force evaluations = 207 414

MPI task timing breakdown:
Section |  min time  |  avg time  |  max time  |%varavg| %total
---------------------------------------------------------------
Pair    | 0.63512    | 1.7501     | 2.2723     |  35.6 | 72.17
Neigh   | 0          | 0          | 0          |   0.0 |  0.00
Comm    | 0.040428   | 0.40167    | 1.1923     |  51.5 | 16.56
Output  | 0          | 0          | 0          |   0.0 |  0.00
Modify  | 2.525e-05  | 0.0034306  | 0.0079939  |   2.8 |  0.14
Other   |            | 0.2699     |            |       | 11.13

Nlocal:        2776.45 ave        3957 max           0 min
Histogram: 8 4 4 0 4 12 8 2 28 34
Nghost:        3878.91 ave        5425 max         232 min
Histogram: 8 0 8 0 16 0 8 8 16 40
Neighs:        79213.6 ave      115355 max           0 min
Histogram: 8 4 4 0 10 6 8 8 24 32

Total # of neighbors = 8238217
Ave neighs/atom = 28.530523
Neighbor list builds = 0
Dangerous builds = 0
The dot product: 3.77191599238525e-07
The cos of the angle between the force vector and the displacement vector: 0.0178631783636628
The angle: 88.9764608320961
Setting atom values ...
  1 settings made for x
  1 settings made for y
  1 settings made for z
Setting up cg style minimization ...
  Unit style    : metal
  Current step  : 3984
Per MPI rank memory allocation (min/avg/max) = 5.441 | 5.816 | 6.074 Mbytes
Step PotEng KinEng TotEng v_fx v_fy v_fz 
    3984   -1152448.9            0   -1152448.9 -0.0031322651 0.00061544809 0.0040525767 
    4000   -1152448.9            0   -1152448.9 0.0040991122 0.0013878055 -0.0051392662 
    4221   -1152448.9            0   -1152448.9 -2.5364844e-06 -1.0250243e-06 3.1676696e-06 
Loop time of 2.76468 on 104 procs for 237 steps with 288751 atoms

99.9% CPU use with 104 MPI tasks x 1 OpenMP threads

Minimization stats:
  Stopping criterion = energy tolerance
  Energy initial, next-to-last, final = 
     -1152448.87404867   -1152448.8777844   -1152448.8777844
  Force two-norm initial, final = 0.26674879 3.9613253e-05
  Force max component initial, final = 0.21919468 7.5656234e-06
  Final line search alpha, max atom move = 1.0000000 7.5656234e-06
  Iterations, force evaluations = 237 474

MPI task timing breakdown:
Section |  min time  |  avg time  |  max time  |%varavg| %total
---------------------------------------------------------------
Pair    | 0.72567    | 1.9977     | 2.5894     |  38.2 | 72.26
Neigh   | 0          | 0          | 0          |   0.0 |  0.00
Comm    | 0.048208   | 0.45727    | 1.3623     |  55.7 | 16.54
Output  | 0.0001271  | 0.00013559 | 0.00024348 |   0.0 |  0.00
Modify  | 2.8759e-05 | 0.0039161  | 0.0083233  |   3.0 |  0.14
Other   |            | 0.3057     |            |       | 11.06

Nlocal:        2776.45 ave        3957 max           0 min
Histogram: 8 4 4 0 4 12 8 2 28 34
Nghost:        3878.91 ave        5425 max         232 min
Histogram: 8 0 8 0 16 0 8 8 16 40
Neighs:        79213.6 ave      115358 max           0 min
Histogram: 8 4 4 0 10 6 8 8 24 32

Total # of neighbors = 8238217
Ave neighs/atom = 28.530523
Neighbor list builds = 0
Dangerous builds = 0
The dot product: 5.51186661063135e-08
The cos of the angle between the force vector and the displacement vector: 0.0131689004354417
The angle: 89.2454557743137
Setting atom values ...
  1 settings made for x
  1 settings made for y
  1 settings made for z
Setting up cg style minimization ...
  Unit style    : metal
  Current step  : 4221
Per MPI rank memory allocation (min/avg/max) = 5.441 | 5.816 | 6.074 Mbytes
Step PotEng KinEng TotEng v_fx v_fy v_fz 
    4221   -1152448.8            0   -1152448.8 0.0035271636 0.0013234523 -0.0042899149 
    4426   -1152448.8            0   -1152448.8 1.4771213e-05 4.2126683e-06 -1.8063354e-05 
Loop time of 2.39596 on 104 procs for 205 steps with 288751 atoms

99.9% CPU use with 104 MPI tasks x 1 OpenMP threads

Minimization stats:
  Stopping criterion = energy tolerance
  Energy initial, next-to-last, final = 
     -1152448.81980311  -1152448.82361957  -1152448.82361957
  Force two-norm initial, final = 0.26965665 0.00013784993
  Force max component initial, final = 0.22331947 2.2876828e-05
  Final line search alpha, max atom move = 1.0000000 2.2876828e-05
  Iterations, force evaluations = 205 410

MPI task timing breakdown:
Section |  min time  |  avg time  |  max time  |%varavg| %total
---------------------------------------------------------------
Pair    | 0.63292    | 1.7261     | 2.2406     |  35.2 | 72.04
Neigh   | 0          | 0          | 0          |   0.0 |  0.00
Comm    | 0.04402    | 0.39232    | 1.1643     |  51.5 | 16.37
Output  | 0          | 0          | 0          |   0.0 |  0.00
Modify  | 2.5021e-05 | 0.0033798  | 0.0072699  |   2.7 |  0.14
Other   |            | 0.2742     |            |       | 11.44

Nlocal:        2776.45 ave        3956 max           0 min
Histogram: 8 4 4 0 4 12 8 0 30 34
Nghost:        3878.90 ave        5425 max         232 min
Histogram: 8 0 8 0 16 0 8 8 16 40
Neighs:        79213.6 ave      115320 max           0 min
Histogram: 8 4 4 0 10 6 8 8 24 32

Total # of neighbors = 8238214
Ave neighs/atom = 28.530512
Neighbor list builds = 0
Dangerous builds = 0
The dot product: -2.45547250232474e-07
The cos of the angle between the force vector and the displacement vector: -0.0103557581568086
The angle: 90.5933518417118
Setting atom values ...
  1 settings made for x
  1 settings made for y
  1 settings made for z
Setting up cg style minimization ...
  Unit style    : metal
  Current step  : 4426
Per MPI rank memory allocation (min/avg/max) = 5.441 | 5.816 | 6.074 Mbytes
Step PotEng KinEng TotEng v_fx v_fy v_fz 
    4426   -1152448.8            0   -1152448.8 0.0093412413 0.0025149001 -0.011189166 
    4635   -1152448.8            0   -1152448.8 2.2658174e-05 5.4849746e-06 -2.71855e-05 
Loop time of 2.46562 on 104 procs for 209 steps with 288751 atoms

99.9% CPU use with 104 MPI tasks x 1 OpenMP threads

Minimization stats:
  Stopping criterion = energy tolerance
  Energy initial, next-to-last, final = 
     -1152448.76367901  -1152448.76736074  -1152448.76736074
  Force two-norm initial, final = 0.2714589 0.00012734438
  Force max component initial, final = 0.22629275 3.4275549e-05
  Final line search alpha, max atom move = 1.0000000 3.4275549e-05
  Iterations, force evaluations = 209 418

MPI task timing breakdown:
Section |  min time  |  avg time  |  max time  |%varavg| %total
---------------------------------------------------------------
Pair    | 0.65018    | 1.7593     | 2.2811     |  35.6 | 71.35
Neigh   | 0          | 0          | 0          |   0.0 |  0.00
Comm    | 0.039954   | 0.40196    | 1.1918     |  51.6 | 16.30
Output  | 0          | 0          | 0          |   0.0 |  0.00
Modify  | 2.5055e-05 | 0.0034494  | 0.0073605  |   2.8 |  0.14
Other   |            | 0.3009     |            |       | 12.20

Nlocal:        2776.45 ave        3956 max           0 min
Histogram: 8 4 4 0 4 12 8 0 30 34
Nghost:        3878.89 ave        5425 max         232 min
Histogram: 8 0 8 0 16 0 8 8 16 40
Neighs:        79213.6 ave      115313 max           0 min
Histogram: 8 4 4 0 10 6 8 8 24 32

Total # of neighbors = 8238212
Ave neighs/atom = 28.530506
Neighbor list builds = 0
Dangerous builds = 0
The dot product: -2.34007031502176e-07
The cos of the angle between the force vector and the displacement vector: -0.00653424294028976
The angle: 90.3743872069839
Setting atom values ...
  1 settings made for x
  1 settings made for y
  1 settings made for z
Setting up cg style minimization ...
  Unit style    : metal
  Current step  : 4635
Per MPI rank memory allocation (min/avg/max) = 5.441 | 5.816 | 6.074 Mbytes
Step PotEng KinEng TotEng v_fx v_fy v_fz 
    4635   -1152448.7            0   -1152448.7  0.016308483 0.0044249208 -0.019268481 
    4820   -1152448.7            0   -1152448.7 7.0411004e-05 1.1781888e-05 -8.3728285e-05 
Loop time of 2.16667 on 104 procs for 185 steps with 288751 atoms

99.9% CPU use with 104 MPI tasks x 1 OpenMP threads

Minimization stats:
  Stopping criterion = energy tolerance
  Energy initial, next-to-last, final = 
     -1152448.70522318  -1152448.70914041  -1152448.70914041
  Force two-norm initial, final = 0.27326631 0.0003371916
  Force max component initial, final = 0.22943861 8.7600852e-05
  Final line search alpha, max atom move = 1.0000000 8.7600852e-05
  Iterations, force evaluations = 185 370

MPI task timing breakdown:
Section |  min time  |  avg time  |  max time  |%varavg| %total
---------------------------------------------------------------
Pair    | 0.56792    | 1.5628     | 2.0325     |  33.7 | 72.13
Neigh   | 0          | 0          | 0          |   0.0 |  0.00
Comm    | 0.035192   | 0.3575     | 1.061      |  48.8 | 16.50
Output  | 0          | 0          | 0          |   0.0 |  0.00
Modify  | 2.2612e-05 | 0.0030565  | 0.0065289  |   2.6 |  0.14
Other   |            | 0.2433     |            |       | 11.23

Nlocal:        2776.45 ave        3955 max           0 min
Histogram: 8 4 4 0 4 12 8 0 30 34
Nghost:        3878.85 ave        5425 max         232 min
Histogram: 8 0 8 0 16 0 8 8 16 40
Neighs:        79213.6 ave      115277 max           0 min
Histogram: 8 4 4 0 10 6 8 8 24 32

Total # of neighbors = 8238212
Ave neighs/atom = 28.530506
Neighbor list builds = 0
Dangerous builds = 0
The dot product: -4.29051467273205e-07
The cos of the angle between the force vector and the displacement vector: -0.0038993484880653
The angle: 90.2234167773919
Setting atom values ...
  1 settings made for x
  1 settings made for y
  1 settings made for z
Setting up cg style minimization ...
  Unit style    : metal
  Current step  : 4820
Per MPI rank memory allocation (min/avg/max) = 5.441 | 5.816 | 6.074 Mbytes
Step PotEng KinEng TotEng v_fx v_fy v_fz 
    4820   -1152448.6            0   -1152448.6  0.021852537 0.0067729875 -0.025544938 
    4967   -1152448.6            0   -1152448.6 2.3490714e-05 5.0541694e-06 -2.7626578e-05 
Loop time of 1.71091 on 104 procs for 147 steps with 288751 atoms

99.9% CPU use with 104 MPI tasks x 1 OpenMP threads

Minimization stats:
  Stopping criterion = energy tolerance
  Energy initial, next-to-last, final = 
     -1152448.64583184  -1152448.64986832  -1152448.64986832
  Force two-norm initial, final = 0.27180645 0.00017468678
  Force max component initial, final = 0.23026234 2.9761829e-05
  Final line search alpha, max atom move = 1.0000000 2.9761829e-05
  Iterations, force evaluations = 147 294

MPI task timing breakdown:
Section |  min time  |  avg time  |  max time  |%varavg| %total
---------------------------------------------------------------
Pair    | 0.4563     | 1.2364     | 1.6035     |  29.8 | 72.26
Neigh   | 0          | 0          | 0          |   0.0 |  0.00
Comm    | 0.028182   | 0.28081    | 0.8382     |  43.6 | 16.41
Output  | 0          | 0          | 0          |   0.0 |  0.00
Modify  | 1.7696e-05 | 0.0024308  | 0.0055888  |   2.4 |  0.14
Other   |            | 0.1913     |            |       | 11.18

Nlocal:        2776.45 ave        3956 max           0 min
Histogram: 8 4 4 0 4 12 8 0 30 34
Nghost:        3878.84 ave        5425 max         232 min
Histogram: 8 0 8 0 16 0 8 8 16 40
Neighs:        79213.5 ave      115312 max           0 min
Histogram: 8 4 4 0 10 6 8 8 24 32

Total # of neighbors = 8238204
Ave neighs/atom = 28.530478
Neighbor list builds = 0
Dangerous builds = 0
The dot product: -2.69916302593135e-08
The cos of the angle between the force vector and the displacement vector: -0.000737193941142317
The angle: 90.0422381053358
Setting atom values ...
  1 settings made for x
  1 settings made for y
  1 settings made for z
Setting up cg style minimization ...
  Unit style    : metal
  Current step  : 4967
Per MPI rank memory allocation (min/avg/max) = 5.441 | 5.816 | 6.074 Mbytes
Step PotEng KinEng TotEng v_fx v_fy v_fz 
    4967   -1152448.6            0   -1152448.6   0.02871142 0.0064597656 -0.033693174 
    5000   -1152448.6            0   -1152448.6 -0.0022293585 -3.381856e-05 0.0026524927 
    5289   -1152448.6            0   -1152448.6 -1.4498363e-06 -1.9333835e-07 1.7117138e-06 
Loop time of 3.77169 on 104 procs for 322 steps with 288751 atoms

99.9% CPU use with 104 MPI tasks x 1 OpenMP threads

Minimization stats:
  Stopping criterion = energy tolerance
  Energy initial, next-to-last, final = 
      -1152448.5866821  -1152448.59184172  -1152448.59184172
  Force two-norm initial, final = 0.27085219 6.6570526e-06
  Force max component initial, final = 0.22869378 1.7754763e-06
  Final line search alpha, max atom move = 1.0000000 1.7754763e-06
  Iterations, force evaluations = 322 644

MPI task timing breakdown:
Section |  min time  |  avg time  |  max time  |%varavg| %total
---------------------------------------------------------------
Pair    | 0.99583    | 2.7299     | 3.5236     |  44.4 | 72.38
Neigh   | 0          | 0          | 0          |   0.0 |  0.00
Comm    | 0.065002   | 0.62494    | 1.8723     |  65.3 | 16.57
Output  | 0.00013174 | 0.00013833 | 0.00023546 |   0.0 |  0.00
Modify  | 4.1169e-05 | 0.0053232  | 0.011363   |   3.5 |  0.14
Other   |            | 0.4114     |            |       | 10.91

Nlocal:        2776.45 ave        3955 max           0 min
Histogram: 8 4 4 0 4 12 8 0 30 34
Nghost:        3878.84 ave        5425 max         232 min
Histogram: 8 0 8 0 16 0 8 8 16 40
Neighs:        79213.5 ave      115277 max           0 min
Histogram: 8 4 4 0 10 6 8 8 24 32

Total # of neighbors = 8238203
Ave neighs/atom = 28.530474
Neighbor list builds = 0
Dangerous builds = 0
The dot product: 2.2194155811209e-09
The cos of the angle between the force vector and the displacement vector: 0.00098573838933682
The angle: 89.9435213414403
Setting atom values ...
  1 settings made for x
  1 settings made for y
  1 settings made for z
Setting up cg style minimization ...
  Unit style    : metal
  Current step  : 5289
Per MPI rank memory allocation (min/avg/max) = 5.441 | 5.816 | 6.074 Mbytes
Step PotEng KinEng TotEng v_fx v_fy v_fz 
    5289   -1152448.5            0   -1152448.5  0.032068043 0.0015730703 -0.038005861 
    5534   -1152448.6            0   -1152448.6 1.514809e-05 7.4181306e-07 -1.795306e-05 
Loop time of 2.85807 on 104 procs for 245 steps with 288751 atoms

99.9% CPU use with 104 MPI tasks x 1 OpenMP threads

Minimization stats:
  Stopping criterion = energy tolerance
  Energy initial, next-to-last, final = 
      -1152448.5332951    -1152448.554798    -1152448.554798
  Force two-norm initial, final = 0.28699244 0.00010028666
  Force max component initial, final = 0.2221931 1.9511108e-05
  Final line search alpha, max atom move = 1.0000000 1.9511108e-05
  Iterations, force evaluations = 245 490

MPI task timing breakdown:
Section |  min time  |  avg time  |  max time  |%varavg| %total
---------------------------------------------------------------
Pair    | 0.75856    | 2.0591     | 2.6689     |  38.5 | 72.05
Neigh   | 1.0272e-05 | 0.0029536  | 0.0042642  |   2.2 |  0.10
Comm    | 0.048485   | 0.47049    | 1.4032     |  56.0 | 16.46
Output  | 0          | 0          | 0          |   0.0 |  0.00
Modify  | 3.0339e-05 | 0.0040423  | 0.0086701  |   3.0 |  0.14
Other   |            | 0.3215     |            |       | 11.25

Nlocal:        2776.45 ave        3956 max           0 min
Histogram: 8 4 4 0 4 12 8 0 30 34
Nghost:        3878.85 ave        5425 max         232 min
Histogram: 8 0 8 0 16 0 8 8 16 40
Neighs:        79213.4 ave      115308 max           0 min
Histogram: 8 4 4 0 10 6 8 8 24 32

Total # of neighbors = 8238194
Ave neighs/atom = 28.530443
Neighbor list builds = 1
Dangerous builds = 0
The dot product: -4.43712025351328e-07
The cos of the angle between the force vector and the displacement vector: -0.0188800417721035
The angle: 91.0818109867298
Setting atom values ...
  1 settings made for x
  1 settings made for y
  1 settings made for z
Setting up cg style minimization ...
  Unit style    : metal
  Current step  : 5534
Per MPI rank memory allocation (min/avg/max) = 5.441 | 5.816 | 6.074 Mbytes
Step PotEng KinEng TotEng v_fx v_fy v_fz 
    5534   -1152448.5            0   -1152448.5  0.035910819  0.012744832 -0.040035872 
    5804   -1152448.5            0   -1152448.5 2.8765203e-06 -1.8676358e-10 -3.2927536e-06 
Loop time of 3.13948 on 104 procs for 270 steps with 288751 atoms

99.9% CPU use with 104 MPI tasks x 1 OpenMP threads

Minimization stats:
  Stopping criterion = energy tolerance
  Energy initial, next-to-last, final = 
     -1152448.51649772  -1152448.52170928  -1152448.52170928
  Force two-norm initial, final = 0.26540626 2.4678244e-05
  Force max component initial, final = 0.22006551 4.0585466e-06
  Final line search alpha, max atom move = 1.0000000 4.0585466e-06
  Iterations, force evaluations = 270 540

MPI task timing breakdown:
Section |  min time  |  avg time  |  max time  |%varavg| %total
---------------------------------------------------------------
Pair    | 0.83014    | 2.2785     | 2.9439     |  40.6 | 72.58
Neigh   | 0          | 0          | 0          |   0.0 |  0.00
Comm    | 0.054148   | 0.51754    | 1.5512     |  59.2 | 16.48
Output  | 0          | 0          | 0          |   0.0 |  0.00
Modify  | 3.2942e-05 | 0.0044505  | 0.0094973  |   3.1 |  0.14
Other   |            | 0.339      |            |       | 10.80

Nlocal:        2776.45 ave        3956 max           0 min
Histogram: 8 4 4 0 4 12 8 0 30 34
Nghost:        3878.95 ave        5427 max         232 min
Histogram: 8 0 8 0 16 0 8 8 16 40
Neighs:        79213.4 ave      115305 max           0 min
Histogram: 8 4 4 0 10 6 8 8 24 32

Total # of neighbors = 8238195
Ave neighs/atom = 28.530447
Neighbor list builds = 0
Dangerous builds = 0
The dot product: -2.5846723590883e-08
The cos of the angle between the force vector and the displacement vector: -0.0059115344991109
The angle: 90.338707950026
Setting atom values ...
  1 settings made for x
  1 settings made for y
  1 settings made for z
Setting up cg style minimization ...
  Unit style    : metal
  Current step  : 5804
Per MPI rank memory allocation (min/avg/max) = 5.441 | 5.816 | 6.074 Mbytes
Step PotEng KinEng TotEng v_fx v_fy v_fz 
    5804   -1152448.5            0   -1152448.5  0.054197352  0.036350387 -0.058503369 
    6000   -1152448.5            0   -1152448.5 -8.14546e-05 1.0752579e-07 9.2142533e-05 
    6065   -1152448.5            0   -1152448.5 1.105382e-05 -5.5215119e-09 -1.2503531e-05 
Loop time of 3.08203 on 104 procs for 261 steps with 288751 atoms

99.9% CPU use with 104 MPI tasks x 1 OpenMP threads

Minimization stats:
  Stopping criterion = energy tolerance
  Energy initial, next-to-last, final = 
     -1152448.48641852  -1152448.49770504  -1152448.49770504
  Force two-norm initial, final = 0.26809904 6.7042031e-05
  Force max component initial, final = 0.2124338 1.6844816e-05
  Final line search alpha, max atom move = 1.0000000 1.6844816e-05
  Iterations, force evaluations = 261 526

MPI task timing breakdown:
Section |  min time  |  avg time  |  max time  |%varavg| %total
---------------------------------------------------------------
Pair    | 0.81374    | 2.216      | 2.8674     |  40.0 | 71.90
Neigh   | 1.0183e-05 | 0.0029533  | 0.0042756  |   2.2 |  0.10
Comm    | 0.051482   | 0.50549    | 1.5072     |  58.7 | 16.40
Output  | 0.000148   | 0.0001513  | 0.0003136  |   0.0 |  0.00
Modify  | 3.212e-05  | 0.0043408  | 0.0092777  |   3.1 |  0.14
Other   |            | 0.3531     |            |       | 11.46

Nlocal:        2776.45 ave        3956 max           0 min
Histogram: 8 4 4 0 4 12 8 0 30 34
Nghost:        3878.90 ave        5425 max         232 min
Histogram: 8 0 8 0 16 0 8 8 16 40
Neighs:        79213.3 ave      115285 max           0 min
Histogram: 8 4 4 0 10 6 8 8 24 32

Total # of neighbors = 8238187
Ave neighs/atom = 28.530419
Neighbor list builds = 1
Dangerous builds = 0
The dot product: 6.94253242703404e-07
The cos of the angle between the force vector and the displacement vector: 0.0415992624683942
The angle: 87.6158498641607
Setting atom values ...
  1 settings made for x
  1 settings made for y
  1 settings made for z
Setting up cg style minimization ...
  Unit style    : metal
  Current step  : 6065
Per MPI rank memory allocation (min/avg/max) = 5.441 | 5.816 | 6.074 Mbytes
Step PotEng KinEng TotEng v_fx v_fy v_fz 
    6065   -1152448.5            0   -1152448.5  0.071990556   0.11116301 -0.096567071 
    6289   -1152448.6            0   -1152448.6 -1.4872534e-05 3.7832835e-06 1.8035775e-05 
Loop time of 2.63423 on 104 procs for 224 steps with 288751 atoms

99.9% CPU use with 104 MPI tasks x 1 OpenMP threads

Minimization stats:
  Stopping criterion = energy tolerance
  Energy initial, next-to-last, final = 
     -1152448.47441929  -1152448.55443152  -1152448.55443152
  Force two-norm initial, final = 0.28805462 0.00016690879
  Force max component initial, final = 0.18808277 1.9353916e-05
  Final line search alpha, max atom move = 1.0000000 1.9353916e-05
  Iterations, force evaluations = 224 448

MPI task timing breakdown:
Section |  min time  |  avg time  |  max time  |%varavg| %total
---------------------------------------------------------------
Pair    | 0.69422    | 1.8913     | 2.4692     |  36.8 | 71.80
Neigh   | 2.0264e-05 | 0.0059268  | 0.008582   |   3.2 |  0.22
Comm    | 0.042446   | 0.4351     | 1.2819     |  53.3 | 16.52
Output  | 0          | 0          | 0          |   0.0 |  0.00
Modify  | 2.7948e-05 | 0.0036957  | 0.0078652  |   2.9 |  0.14
Other   |            | 0.2982     |            |       | 11.32

Nlocal:        2776.45 ave        3957 max           0 min
Histogram: 8 4 4 0 4 12 8 2 28 34
Nghost:        3878.97 ave        5424 max         232 min
Histogram: 8 0 8 0 16 0 8 8 16 40
Neighs:        79213.6 ave      115331 max           0 min
Histogram: 8 4 4 0 10 6 8 8 24 32

Total # of neighbors = 8238211
Ave neighs/atom = 28.530502
Neighbor list builds = 2
Dangerous builds = 0
The dot product: -1.62007017042082e-06
The cos of the angle between the force vector and the displacement vector: -0.0684119367064337
The angle: 93.9227792029876
Setting atom values ...
  1 settings made for x
  1 settings made for y
  1 settings made for z
Setting up cg style minimization ...
  Unit style    : metal
  Current step  : 6289
Per MPI rank memory allocation (min/avg/max) = 5.441 | 5.816 | 6.074 Mbytes
Step PotEng KinEng TotEng v_fx v_fy v_fz 
    6289   -1152448.6            0   -1152448.6  0.041345452  0.026791187 -0.076947601 
    6433   -1152448.6            0   -1152448.6 8.6723448e-06 3.0020866e-07 -1.3540188e-05 
Loop time of 1.72244 on 104 procs for 144 steps with 288751 atoms

99.9% CPU use with 104 MPI tasks x 1 OpenMP threads

Minimization stats:
  Stopping criterion = energy tolerance
  Energy initial, next-to-last, final = 
      -1152448.5519028  -1152448.55514881  -1152448.55514881
  Force two-norm initial, final = 0.2102014 8.6908984e-05
  Force max component initial, final = 0.13947423 1.3540188e-05
  Final line search alpha, max atom move = 1.0000000 1.3540188e-05
  Iterations, force evaluations = 144 288

MPI task timing breakdown:
Section |  min time  |  avg time  |  max time  |%varavg| %total
---------------------------------------------------------------
Pair    | 0.44492    | 1.2191     | 1.5724     |  29.7 | 70.78
Neigh   | 0          | 0          | 0          |   0.0 |  0.00
Comm    | 0.027044   | 0.27688    | 0.82404    |  43.3 | 16.08
Output  | 0          | 0          | 0          |   0.0 |  0.00
Modify  | 1.7995e-05 | 0.0023764  | 0.0050658  |   2.3 |  0.14
Other   |            | 0.2241     |            |       | 13.01

Nlocal:        2776.45 ave        3957 max           0 min
Histogram: 8 4 4 0 4 12 8 2 28 34
Nghost:        3879.05 ave        5425 max         232 min
Histogram: 8 0 8 0 16 0 8 8 16 40
Neighs:        79213.5 ave      115317 max           0 min
Histogram: 8 4 4 0 10 6 8 8 24 32

Total # of neighbors = 8238204
Ave neighs/atom = 28.530478
Neighbor list builds = 0
Dangerous builds = 0
The dot product: -1.77330039848266e-07
The cos of the angle between the force vector and the displacement vector: -0.0110264952798303
The angle: 90.6317844452337
Setting atom values ...
  1 settings made for x
  1 settings made for y
  1 settings made for z
Setting up cg style minimization ...
  Unit style    : metal
  Current step  : 6433
Per MPI rank memory allocation (min/avg/max) = 5.441 | 5.816 | 6.074 Mbytes
Step PotEng KinEng TotEng v_fx v_fy v_fz 
    6433   -1152448.6            0   -1152448.6  0.053281356  0.033281002 -0.095800006 
    6627   -1152448.6            0   -1152448.6 8.4359684e-06 8.8792492e-07 -1.3126599e-05 
Loop time of 2.26906 on 104 procs for 194 steps with 288751 atoms

99.9% CPU use with 104 MPI tasks x 1 OpenMP threads

Minimization stats:
  Stopping criterion = energy tolerance
  Energy initial, next-to-last, final = 
     -1152448.55214955  -1152448.55499592  -1152448.55499592
  Force two-norm initial, final = 0.22159399 9.0980816e-05
  Force max component initial, final = 0.13610843 1.3126599e-05
  Final line search alpha, max atom move = 1.0000000 1.3126599e-05
  Iterations, force evaluations = 194 388

MPI task timing breakdown:
Section |  min time  |  avg time  |  max time  |%varavg| %total
---------------------------------------------------------------
Pair    | 0.59721    | 1.6357     | 2.1283     |  34.4 | 72.09
Neigh   | 0          | 0          | 0          |   0.0 |  0.00
Comm    | 0.038233   | 0.37383    | 1.1043     |  49.9 | 16.48
Output  | 0          | 0          | 0          |   0.0 |  0.00
Modify  | 2.2974e-05 | 0.0032048  | 0.0069268  |   2.7 |  0.14
Other   |            | 0.2563     |            |       | 11.30

Nlocal:        2776.45 ave        3957 max           0 min
Histogram: 8 4 4 0 4 12 8 2 28 34
Nghost:        3879.06 ave        5425 max         232 min
Histogram: 8 0 8 0 16 0 8 8 16 40
Neighs:        79213.5 ave      115318 max           0 min
Histogram: 8 4 4 0 10 6 8 8 24 32

Total # of neighbors = 8238202
Ave neighs/atom = 28.530471
Neighbor list builds = 0
Dangerous builds = 0
The dot product: -3.83860769356362e-08
The cos of the angle between the force vector and the displacement vector: -0.00245610064332496
The angle: 90.1407243424069
Setting atom values ...
  1 settings made for x
  1 settings made for y
  1 settings made for z
Setting up cg style minimization ...
  Unit style    : metal
  Current step  : 6627
Per MPI rank memory allocation (min/avg/max) = 5.441 | 5.816 | 6.074 Mbytes
Step PotEng KinEng TotEng v_fx v_fy v_fz 
    6627   -1152448.5            0   -1152448.5  0.054098192  0.038302953  -0.09868543 
    6806   -1152448.6            0   -1152448.6 -6.170407e-06 -3.8407191e-07 9.4273143e-06 
Loop time of 2.08024 on 104 procs for 179 steps with 288751 atoms

99.9% CPU use with 104 MPI tasks x 1 OpenMP threads

Minimization stats:
  Stopping criterion = energy tolerance
  Energy initial, next-to-last, final = 
     -1152448.54988682  -1152448.55261383  -1152448.55261383
  Force two-norm initial, final = 0.22839846 0.00013344894
  Force max component initial, final = 0.13300209 9.4273143e-06
  Final line search alpha, max atom move = 1.0000000 9.4273143e-06
  Iterations, force evaluations = 179 358

MPI task timing breakdown:
Section |  min time  |  avg time  |  max time  |%varavg| %total
---------------------------------------------------------------
Pair    | 0.5478     | 1.5012     | 1.9487     |  33.0 | 72.16
Neigh   | 0          | 0          | 0          |   0.0 |  0.00
Comm    | 0.033631   | 0.3417     | 1.0154     |  48.0 | 16.43
Output  | 0          | 0          | 0          |   0.0 |  0.00
Modify  | 2.208e-05  | 0.0029562  | 0.0063107  |   2.6 |  0.14
Other   |            | 0.2344     |            |       | 11.27

Nlocal:        2776.45 ave        3956 max           0 min
Histogram: 8 4 4 0 4 12 8 0 30 34
Nghost:        3879.03 ave        5425 max         232 min
Histogram: 8 0 8 0 16 0 8 8 16 40
Neighs:        79213.5 ave      115316 max           0 min
Histogram: 8 4 4 0 10 6 8 8 24 32

Total # of neighbors = 8238208
Ave neighs/atom = 28.530492
Neighbor list builds = 0
Dangerous builds = 0
The dot product: -1.53769645922359e-08
The cos of the angle between the force vector and the displacement vector: -0.00136397121712779
The angle: 90.0781498183506
Setting atom values ...
  1 settings made for x
  1 settings made for y
  1 settings made for z
Setting up cg style minimization ...
  Unit style    : metal
  Current step  : 6806
Per MPI rank memory allocation (min/avg/max) = 5.441 | 5.816 | 6.074 Mbytes
Step PotEng KinEng TotEng v_fx v_fy v_fz 
    6806   -1152448.5            0   -1152448.5  0.053575331  0.041809301 -0.099828912 
    6979   -1152448.5            0   -1152448.5 -2.7439426e-06 -9.6981175e-07 4.5731425e-06 
Loop time of 2.02362 on 104 procs for 173 steps with 288751 atoms

99.9% CPU use with 104 MPI tasks x 1 OpenMP threads

Minimization stats:
  Stopping criterion = energy tolerance
  Energy initial, next-to-last, final = 
     -1152448.54443718  -1152448.54723236  -1152448.54723236
  Force two-norm initial, final = 0.23176869 0.00017813388
  Force max component initial, final = 0.13108603 6.0755732e-06
  Final line search alpha, max atom move = 1.0000000 6.0755732e-06
  Iterations, force evaluations = 173 346

MPI task timing breakdown:
Section |  min time  |  avg time  |  max time  |%varavg| %total
---------------------------------------------------------------
Pair    | 0.53464    | 1.4642     | 1.8897     |  32.5 | 72.35
Neigh   | 0          | 0          | 0          |   0.0 |  0.00
Comm    | 0.033772   | 0.33304    | 0.99144    |  47.6 | 16.46
Output  | 0          | 0          | 0          |   0.0 |  0.00
Modify  | 2.0906e-05 | 0.0028603  | 0.0060978  |   2.5 |  0.14
Other   |            | 0.2235     |            |       | 11.05

Nlocal:        2776.45 ave        3956 max           0 min
Histogram: 8 4 4 0 4 12 8 0 30 34
Nghost:        3879.03 ave        5425 max         232 min
Histogram: 8 0 8 0 16 0 8 8 16 40
Neighs:        79213.5 ave      115315 max           0 min
Histogram: 8 4 4 0 10 6 8 8 24 32

Total # of neighbors = 8238207
Ave neighs/atom = 28.530488
Neighbor list builds = 0
Dangerous builds = 0
The dot product: -1.06174973724376e-08
The cos of the angle between the force vector and the displacement vector: -0.00195871488728046
The angle: 90.1122261680714
Setting atom values ...
  1 settings made for x
  1 settings made for y
  1 settings made for z
Setting up cg style minimization ...
  Unit style    : metal
  Current step  : 6979
Per MPI rank memory allocation (min/avg/max) = 5.441 | 5.816 | 6.074 Mbytes
Step PotEng KinEng TotEng v_fx v_fy v_fz 
    6979   -1152448.5            0   -1152448.5  0.052092041  0.043925642 -0.099052902 
    7000   -1152448.5            0   -1152448.5 8.0847582e-05 0.0001213567 -0.00017844856 
    7431   -1152448.5            0   -1152448.5 8.4965168e-06 1.4537249e-06 -1.3502008e-05 
Loop time of 5.29742 on 104 procs for 452 steps with 288751 atoms

99.9% CPU use with 104 MPI tasks x 1 OpenMP threads

Minimization stats:
  Stopping criterion = energy tolerance
  Energy initial, next-to-last, final = 
     -1152448.53568715  -1152448.53852738  -1152448.53852738
  Force two-norm initial, final = 0.23098301 0.00016890033
  Force max component initial, final = 0.12948251 1.3502008e-05
  Final line search alpha, max atom move = 1.0000000 1.3502008e-05
  Iterations, force evaluations = 452 904

MPI task timing breakdown:
Section |  min time  |  avg time  |  max time  |%varavg| %total
---------------------------------------------------------------
Pair    | 1.3906     | 3.7969     | 4.9323     |  52.4 | 71.67
Neigh   | 0          | 0          | 0          |   0.0 |  0.00
Comm    | 0.09065    | 0.86997    | 2.5923     |  76.0 | 16.42
Output  | 0.00011798 | 0.00012886 | 0.00021499 |   0.0 |  0.00
Modify  | 5.5563e-05 | 0.0074653  | 0.016299   |   4.1 |  0.14
Other   |            | 0.6229     |            |       | 11.76

Nlocal:        2776.45 ave        3957 max           0 min
Histogram: 8 4 4 0 4 12 8 2 28 34
Nghost:        3878.99 ave        5425 max         232 min
Histogram: 8 0 8 0 16 0 8 8 16 40
Neighs:        79213.5 ave      115359 max           0 min
Histogram: 8 4 4 0 10 6 8 8 24 32

Total # of neighbors = 8238205
Ave neighs/atom = 28.530481
Neighbor list builds = 0
Dangerous builds = 0
The dot product: 8.39424012847379e-09
The cos of the angle between the force vector and the displacement vector: 0.000524017762979797
The angle: 89.969975992417
Setting atom values ...
  1 settings made for x
  1 settings made for y
  1 settings made for z
Setting up cg style minimization ...
  Unit style    : metal
  Current step  : 7431
Per MPI rank memory allocation (min/avg/max) = 5.441 | 5.816 | 6.074 Mbytes
Step PotEng KinEng TotEng v_fx v_fy v_fz 
    7431   -1152448.5            0   -1152448.5  0.049722047  0.044866396 -0.096108031 
    7625   -1152448.5            0   -1152448.5 2.9705072e-06 8.2194933e-07 -4.8726823e-06 
Loop time of 2.26729 on 104 procs for 194 steps with 288751 atoms

99.9% CPU use with 104 MPI tasks x 1 OpenMP threads

Minimization stats:
  Stopping criterion = energy tolerance
  Energy initial, next-to-last, final = 
     -1152448.52363556  -1152448.52644108  -1152448.52644108
  Force two-norm initial, final = 0.22694835 9.3377173e-05
  Force max component initial, final = 0.12784569 4.8726823e-06
  Final line search alpha, max atom move = 1.0000000 4.8726823e-06
  Iterations, force evaluations = 194 388

MPI task timing breakdown:
Section |  min time  |  avg time  |  max time  |%varavg| %total
---------------------------------------------------------------
Pair    | 0.59049    | 1.6402     | 2.131      |  34.7 | 72.34
Neigh   | 0          | 0          | 0          |   0.0 |  0.00
Comm    | 0.03579    | 0.37558    | 1.1238     |  50.4 | 16.56
Output  | 0          | 0          | 0          |   0.0 |  0.00
Modify  | 2.379e-05  | 0.0032091  | 0.0068267  |   2.7 |  0.14
Other   |            | 0.2483     |            |       | 10.95

Nlocal:        2776.45 ave        3956 max           0 min
Histogram: 8 4 4 0 4 12 8 0 30 34
Nghost:        3878.96 ave        5425 max         232 min
Histogram: 8 0 8 0 16 0 8 8 16 40
Neighs:        79213.5 ave      115319 max           0 min
Histogram: 8 4 4 0 10 6 8 8 24 32

Total # of neighbors = 8238206
Ave neighs/atom = 28.530485
Neighbor list builds = 0
Dangerous builds = 0
The dot product: 5.97072491983048e-09
The cos of the angle between the force vector and the displacement vector: 0.00103557109085119
The angle: 89.9406661365033
Setting atom values ...
  1 settings made for x
  1 settings made for y
  1 settings made for z
Setting up cg style minimization ...
  Unit style    : metal
  Current step  : 7625
Per MPI rank memory allocation (min/avg/max) = 5.441 | 5.816 | 6.074 Mbytes
Step PotEng KinEng TotEng v_fx v_fy v_fz 
    7625   -1152448.5            0   -1152448.5  0.046926693  0.045979424 -0.092742781 
    7807   -1152448.5            0   -1152448.5 -2.7236982e-06 -1.639475e-06 4.8966296e-06 
Loop time of 2.13385 on 104 procs for 182 steps with 288751 atoms

99.9% CPU use with 104 MPI tasks x 1 OpenMP threads

Minimization stats:
  Stopping criterion = energy tolerance
  Energy initial, next-to-last, final = 
     -1152448.50804925  -1152448.51077781  -1152448.51077781
  Force two-norm initial, final = 0.22224457 0.00015727184
  Force max component initial, final = 0.12645713 4.8966296e-06
  Final line search alpha, max atom move = 1.0000000 4.8966296e-06
  Iterations, force evaluations = 182 364

MPI task timing breakdown:
Section |  min time  |  avg time  |  max time  |%varavg| %total
---------------------------------------------------------------
Pair    | 0.56218    | 1.5329     | 1.9866     |  33.3 | 71.84
Neigh   | 0          | 0          | 0          |   0.0 |  0.00
Comm    | 0.03377    | 0.35029    | 1.0394     |  48.4 | 16.42
Output  | 0          | 0          | 0          |   0.0 |  0.00
Modify  | 2.2513e-05 | 0.0030052  | 0.0064051  |   2.6 |  0.14
Other   |            | 0.2476     |            |       | 11.60

Nlocal:        2776.45 ave        3956 max           0 min
Histogram: 8 4 4 0 4 12 8 0 30 34
Nghost:        3878.96 ave        5425 max         232 min
Histogram: 8 0 8 0 16 0 8 8 16 40
Neighs:        79213.5 ave      115330 max           0 min
Histogram: 8 4 4 0 10 6 8 8 24 32

Total # of neighbors = 8238206
Ave neighs/atom = 28.530485
Neighbor list builds = 0
Dangerous builds = 0
The dot product: -7.99511865069541e-09
The cos of the angle between the force vector and the displacement vector: -0.0013694731169132
The angle: 90.0784650542818
Setting atom values ...
  1 settings made for x
  1 settings made for y
  1 settings made for z
Setting up cg style minimization ...
  Unit style    : metal
  Current step  : 7807
Per MPI rank memory allocation (min/avg/max) = 5.441 | 5.816 | 6.074 Mbytes
Step PotEng KinEng TotEng v_fx v_fy v_fz 
    7807   -1152448.5            0   -1152448.5  0.043459749  0.047395503 -0.088536003 
    8000   -1152448.5            0   -1152448.5 2.4446123e-05 1.027887e-05 -4.1960243e-05 
    8076   -1152448.5            0   -1152448.5 -1.7755411e-06 -1.6867026e-06 3.4976302e-06 
Loop time of 3.15377 on 104 procs for 269 steps with 288751 atoms

99.9% CPU use with 104 MPI tasks x 1 OpenMP threads

Minimization stats:
  Stopping criterion = energy tolerance
  Energy initial, next-to-last, final = 
     -1152448.48884728  -1152448.49158352  -1152448.49158352
  Force two-norm initial, final = 0.21791497 0.00014906718
  Force max component initial, final = 0.12520916 6.1558699e-06
  Final line search alpha, max atom move = 1.0000000 6.1558699e-06
  Iterations, force evaluations = 269 538

MPI task timing breakdown:
Section |  min time  |  avg time  |  max time  |%varavg| %total
---------------------------------------------------------------
Pair    | 0.82532    | 2.2678     | 2.9503     |  40.6 | 71.91
Neigh   | 0          | 0          | 0          |   0.0 |  0.00
Comm    | 0.064864   | 0.51828    | 1.5358     |  58.8 | 16.43
Output  | 0.00015053 | 0.00015349 | 0.00031746 |   0.0 |  0.00
Modify  | 3.1792e-05 | 0.0044416  | 0.0095035  |   3.1 |  0.14
Other   |            | 0.3631     |            |       | 11.51

Nlocal:        2776.45 ave        3956 max           0 min
Histogram: 8 4 4 0 4 12 8 0 30 34
Nghost:        3878.94 ave        5425 max         232 min
Histogram: 8 0 8 0 16 0 8 8 16 40
Neighs:        79213.5 ave      115331 max           0 min
Histogram: 8 4 4 0 10 6 8 8 24 32

Total # of neighbors = 8238202
Ave neighs/atom = 28.530471
Neighbor list builds = 0
Dangerous builds = 0
The dot product: 4.53444644389559e-10
[...]
  Current step  : 7304
Per MPI rank memory allocation (min/avg/max) = 5.441 | 5.816 | 6.074 Mbytes
Step PotEng KinEng TotEng v_fx v_fy v_fz 
    7304   -1152448.5            0   -1152448.5  0.052161447  0.043869143  -0.09911098 
    7858   -1152448.5            0   -1152448.5 6.866032e-06 -4.4374099e-07 -1.0157169e-05 
Loop time of 6.49504 on 104 procs for 554 steps with 288751 atoms

99.9% CPU use with 104 MPI tasks x 1 OpenMP threads

Minimization stats:
  Stopping criterion = energy tolerance
  Energy initial, next-to-last, final = 
     -1152448.53605504  -1152448.53889028  -1152448.53889028
  Force two-norm initial, final = 0.23107526 0.00015315094
  Force max component initial, final = 0.12954159 1.0157169e-05
  Final line search alpha, max atom move = 1.0000000 1.0157169e-05
  Iterations, force evaluations = 554 1108

MPI task timing breakdown:
Section |  min time  |  avg time  |  max time  |%varavg| %total
---------------------------------------------------------------
Pair    | 1.6782     | 4.6621     | 6.1029     |  58.6 | 71.78
Neigh   | 0          | 0          | 0          |   0.0 |  0.00
Comm    | 0.10276    | 1.0836     | 3.2563     |  85.1 | 16.68
Output  | 0          | 0          | 0          |   0.0 |  0.00
Modify  | 7.0333e-05 | 0.0090984  | 0.01945    |   4.5 |  0.14
Other   |            | 0.7402     |            |       | 11.40

Nlocal:        2776.45 ave        3957 max           0 min
Histogram: 8 4 4 0 4 12 8 2 28 34
Nghost:        3878.98 ave        5425 max         232 min
Histogram: 8 0 8 0 16 0 8 8 16 40
Neighs:        79213.5 ave      115359 max           0 min
Histogram: 8 4 4 0 10 6 8 8 24 32

Total # of neighbors = 8238205
Ave neighs/atom = 28.530481
Neighbor list builds = 0
Dangerous builds = 0
The dot product: 5.45395022919634e-09
The cos of the angle between the force vector and the displacement vector: 0.00044456193686304
The angle: 89.9745284764466
Setting atom values ...
  1 settings made for x
  1 settings made for y
  1 settings made for z
Setting up cg style minimization ...
  Unit style    : metal
  Current step  : 7858
Per MPI rank memory allocation (min/avg/max) = 5.441 | 5.816 | 6.074 Mbytes
Step PotEng KinEng TotEng v_fx v_fy v_fz 
    7858   -1152448.5            0   -1152448.5  0.049817885  0.044841159 -0.096240795 
    8000   -1152448.5            0   -1152448.5 1.6642854e-05 4.8755979e-06 -2.7427413e-05 
    8039   -1152448.5            0   -1152448.5  3.71663e-06 2.4442176e-08 -5.6273946e-06 
Loop time of 2.14306 on 104 procs for 181 steps with 288751 atoms

99.9% CPU use with 104 MPI tasks x 1 OpenMP threads

Minimization stats:
  Stopping criterion = energy tolerance
  Energy initial, next-to-last, final = 
     -1152448.52411708  -1152448.52692904  -1152448.52692904
  Force two-norm initial, final = 0.22711398 0.00017790075
  Force max component initial, final = 0.1278914 5.6600158e-06
  Final line search alpha, max atom move = 1.0000000 5.6600158e-06
  Iterations, force evaluations = 181 362

MPI task timing breakdown:
Section |  min time  |  avg time  |  max time  |%varavg| %total
---------------------------------------------------------------
Pair    | 0.54598    | 1.5213     | 1.9857     |  33.4 | 70.99
Neigh   | 0          | 0          | 0          |   0.0 |  0.00
Comm    | 0.035072   | 0.34261    | 1.0258     |  49.1 | 15.99
Output  | 0.00014579 | 0.00014843 | 0.00032556 |   0.0 |  0.01
Modify  | 2.3531e-05 | 0.0029819  | 0.0063962  |   2.6 |  0.14
Other   |            | 0.276      |            |       | 12.88

Nlocal:        2776.45 ave        3956 max           0 min
Histogram: 8 4 4 0 4 12 8 0 30 34
Nghost:        3878.96 ave        5425 max         232 min
Histogram: 8 0 8 0 16 0 8 8 16 40
Neighs:        79213.5 ave      115319 max           0 min
Histogram: 8 4 4 0 10 6 8 8 24 32

Total # of neighbors = 8238207
Ave neighs/atom = 28.530488
Neighbor list builds = 0
Dangerous builds = 0
The dot product: 4.60485960565426e-09
The cos of the angle between the force vector and the displacement vector: 0.000682808585029054
The angle: 89.9608779468226
Setting atom values ...
  1 settings made for x
  1 settings made for y
  1 settings made for z
Setting up cg style minimization ...
  Unit style    : metal
  Current step  : 8039
Per MPI rank memory allocation (min/avg/max) = 5.441 | 5.816 | 6.074 Mbytes
Step PotEng KinEng TotEng v_fx v_fy v_fz 
    8039   -1152448.5            0   -1152448.5  0.047028332  0.045932281 -0.092863244 
    8205   -1152448.5            0   -1152448.5 4.0867504e-06 4.0380964e-07 -6.3753157e-06 
Loop time of 1.92638 on 104 procs for 166 steps with 288751 atoms

99.9% CPU use with 104 MPI tasks x 1 OpenMP threads

Minimization stats:
  Stopping criterion = energy tolerance
  Energy initial, next-to-last, final = 
     -1152448.50866207  -1152448.51139308  -1152448.51139308
  Force two-norm initial, final = 0.22240246 0.00027813263
  Force max component initial, final = 0.12650213 8.4057424e-06
  Final line search alpha, max atom move = 1.0000000 8.4057424e-06
  Iterations, force evaluations = 166 332

MPI task timing breakdown:
Section |  min time  |  avg time  |  max time  |%varavg| %total
---------------------------------------------------------------
Pair    | 0.50022    | 1.3977     | 1.8193     |  32.1 | 72.55
Neigh   | 0          | 0          | 0          |   0.0 |  0.00
Comm    | 0.028156   | 0.31919    | 0.9671     |  47.4 | 16.57
Output  | 0          | 0          | 0          |   0.0 |  0.00
Modify  | 2.2344e-05 | 0.00274    | 0.005901   |   2.5 |  0.14
Other   |            | 0.2068     |            |       | 10.73

Nlocal:        2776.45 ave        3956 max           0 min
Histogram: 8 4 4 0 4 12 8 0 30 34
Nghost:        3878.96 ave        5425 max         232 min
Histogram: 8 0 8 0 16 0 8 8 16 40
Neighs:        79213.5 ave      115330 max           0 min
Histogram: 8 4 4 0 10 6 8 8 24 32

Total # of neighbors = 8238207
Ave neighs/atom = 28.530488
Neighbor list builds = 0
Dangerous builds = 0
The dot product: 5.35049884209452e-09
The cos of the angle between the force vector and the displacement vector: 0.000705546193980568
The angle: 89.9595751774795
Setting atom values ...
  1 settings made for x
  1 settings made for y
  1 settings made for z
Setting up cg style minimization ...
  Unit style    : metal
  Current step  : 8205
Per MPI rank memory allocation (min/avg/max) = 5.441 | 5.816 | 6.074 Mbytes
Step PotEng KinEng TotEng v_fx v_fy v_fz 
    8205   -1152448.5            0   -1152448.5  0.043599445  0.047338343 -0.088710373 
    8470   -1152448.5            0   -1152448.5 -1.9912174e-06 -2.1733273e-07 3.1210336e-06 
Loop time of 3.08518 on 104 procs for 265 steps with 288751 atoms

99.9% CPU use with 104 MPI tasks x 1 OpenMP threads

Minimization stats:
  Stopping criterion = energy tolerance
  Energy initial, next-to-last, final = 
     -1152448.48958724  -1152448.49231928  -1152448.49231928
  Force two-norm initial, final = 0.21806207 0.00016963501
  Force max component initial, final = 0.12525991 6.7528637e-06
  Final line search alpha, max atom move = 1.0000000 6.7528637e-06
  Iterations, force evaluations = 265 530

MPI task timing breakdown:
Section |  min time  |  avg time  |  max time  |%varavg| %total
---------------------------------------------------------------
Pair    | 0.80115    | 2.2245     | 2.9059     |  40.4 | 72.10
Neigh   | 0          | 0          | 0          |   0.0 |  0.00
Comm    | 0.04646    | 0.50123    | 1.5107     |  59.8 | 16.25
Output  | 0          | 0          | 0          |   0.0 |  0.00
Modify  | 3.5048e-05 | 0.0043687  | 0.0093087  |   3.1 |  0.14
Other   |            | 0.3551     |            |       | 11.51

Nlocal:        2776.45 ave        3956 max           0 min
Histogram: 8 4 4 0 4 12 8 0 30 34
Nghost:        3878.94 ave        5425 max         232 min
Histogram: 8 0 8 0 16 0 8 8 16 40
Neighs:        79213.5 ave      115331 max           0 min
Histogram: 8 4 4 0 10 6 8 8 24 32

Total # of neighbors = 8238203
Ave neighs/atom = 28.530474
Neighbor list builds = 0
Dangerous builds = 0
The dot product: 4.32117132864152e-09
The cos of the angle between the force vector and the displacement vector: 0.00116520481899852
The angle: 89.933238666496
Setting atom values ...
  1 settings made for x
  1 settings made for y
  1 settings made for z
Setting up cg style minimization ...
  Unit style    : metal
  Current step  : 8470
Per MPI rank memory allocation (min/avg/max) = 5.441 | 5.816 | 6.074 Mbytes
Step PotEng KinEng TotEng v_fx v_fy v_fz 
    8470   -1152448.5            0   -1152448.5   0.03914307  0.048697501 -0.082644077 
    8649   -1152448.5            0   -1152448.5 9.4601766e-06 5.0417441e-06 -1.6725215e-05 
Loop time of 2.08629 on 104 procs for 179 steps with 288751 atoms

99.9% CPU use with 104 MPI tasks x 1 OpenMP threads

Minimization stats:
  Stopping criterion = energy tolerance
  Energy initial, next-to-last, final = 
     -1152448.46714561  -1152448.46988152  -1152448.46988152
  Force two-norm initial, final = 0.21430714 0.00021314213
  Force max component initial, final = 0.12390528 1.6725215e-05
  Final line search alpha, max atom move = 1.0000000 1.6725215e-05
  Iterations, force evaluations = 179 358

MPI task timing breakdown:
Section |  min time  |  avg time  |  max time  |%varavg| %total
---------------------------------------------------------------
Pair    | 0.53884    | 1.503      | 1.9705     |  33.3 | 72.04
Neigh   | 0          | 0          | 0          |   0.0 |  0.00
Comm    | 0.038028   | 0.34115    | 1.0224     |  48.4 | 16.35
Output  | 0          | 0          | 0          |   0.0 |  0.00
Modify  | 2.3053e-05 | 0.0029424  | 0.0062757  |   2.6 |  0.14
Other   |            | 0.2392     |            |       | 11.46

Nlocal:        2776.45 ave        3955 max           0 min
Histogram: 8 4 4 0 4 12 8 0 30 34
Nghost:        3878.94 ave        5425 max         232 min
Histogram: 8 0 8 0 16 0 8 8 16 40
Neighs:        79213.5 ave      115311 max           0 min
Histogram: 8 4 4 0 10 6 8 8 24 32

Total # of neighbors = 8238208
Ave neighs/atom = 28.530492
Neighbor list builds = 0
Dangerous builds = 0
The dot product: -3.04801693916336e-08
The cos of the angle between the force vector and the displacement vector: -0.00153430963797904
The angle: 90.0879095012136
Setting atom values ...
  1 settings made for x
  1 settings made for y
  1 settings made for z
Setting up cg style minimization ...
  Unit style    : metal
  Current step  : 8649
Per MPI rank memory allocation (min/avg/max) = 5.441 | 5.816 | 6.074 Mbytes
Step PotEng KinEng TotEng v_fx v_fy v_fz 
    8649   -1152448.4            0   -1152448.4  0.035154335  0.051166126 -0.077743748 
    8861   -1152448.4            0   -1152448.4 -2.1538954e-06 -6.6841041e-07 3.5613641e-06 
Loop time of 2.47714 on 104 procs for 212 steps with 288751 atoms

99.9% CPU use with 104 MPI tasks x 1 OpenMP threads

Minimization stats:
  Stopping criterion = energy tolerance
  Energy initial, next-to-last, final = 
     -1152448.44138797  -1152448.44430749  -1152448.44430749
  Force two-norm initial, final = 0.21341106 0.00016064841
  Force max component initial, final = 0.12268384 4.8757370e-06
  Final line search alpha, max atom move = 1.0000000 4.8757370e-06
  Iterations, force evaluations = 212 424

MPI task timing breakdown:
Section |  min time  |  avg time  |  max time  |%varavg| %total
---------------------------------------------------------------
Pair    | 0.64173    | 1.7808     | 2.3173     |  36.0 | 71.89
Neigh   | 0          | 0          | 0          |   0.0 |  0.00
Comm    | 0.038519   | 0.40032    | 1.2099     |  53.7 | 16.16
Output  | 0          | 0          | 0          |   0.0 |  0.00
Modify  | 2.8175e-05 | 0.0034944  | 0.0074685  |   2.8 |  0.14
Other   |            | 0.2925     |            |       | 11.81

Nlocal:        2776.45 ave        3954 max           0 min
Histogram: 8 4 4 0 4 12 8 0 30 34
Nghost:        3878.98 ave        5425 max         232 min
Histogram: 8 0 8 0 16 0 8 8 16 40
Neighs:        79213.5 ave      115275 max           0 min
Histogram: 8 4 4 0 10 6 8 8 24 32

Total # of neighbors = 8238208
Ave neighs/atom = 28.530492
Neighbor list builds = 0
Dangerous builds = 0
The dot product: 1.71320711848099e-08
The cos of the angle between the force vector and the displacement vector: 0.0040641906368281
The angle: 89.767138388316
Setting atom values ...
  1 settings made for x
  1 settings made for y
  1 settings made for z
Setting up cg style minimization ...
  Unit style    : metal
  Current step  : 8861
Per MPI rank memory allocation (min/avg/max) = 5.441 | 5.816 | 6.074 Mbytes
Step PotEng KinEng TotEng v_fx v_fy v_fz 
    8861   -1152448.4            0   -1152448.4  0.030480893  0.054420189 -0.071985389 
    9000   -1152448.4            0   -1152448.4 -3.0785949e-06 2.8377765e-06 3.1856766e-06 
    9044   -1152448.4            0   -1152448.4 -1.1359355e-06 -1.1593985e-06 2.2569163e-06 
Loop time of 2.14567 on 104 procs for 183 steps with 288751 atoms

99.9% CPU use with 104 MPI tasks x 1 OpenMP threads

Minimization stats:
  Stopping criterion = energy tolerance
  Energy initial, next-to-last, final = 
     -1152448.41264618  -1152448.41537909  -1152448.41537909
  Force two-norm initial, final = 0.21397007 0.00014761187
  Force max component initial, final = 0.12152539 4.4442774e-06
  Final line search alpha, max atom move = 1.0000000 4.4442774e-06
  Iterations, force evaluations = 183 366

MPI task timing breakdown:
Section |  min time  |  avg time  |  max time  |%varavg| %total
---------------------------------------------------------------
Pair    | 0.55326    | 1.5441     | 2.0273     |  33.7 | 71.96
Neigh   | 0          | 0          | 0          |   0.0 |  0.00
Comm    | 0.036968   | 0.35535    | 1.0624     |  48.8 | 16.56
Output  | 0.00010553 | 0.00011222 | 0.00028455 |   0.0 |  0.01
Modify  | 2.3526e-05 | 0.0030173  | 0.0064447  |   2.6 |  0.14
Other   |            | 0.2431     |            |       | 11.33

Nlocal:        2776.45 ave        3953 max           0 min
Histogram: 8 4 4 0 4 12 8 0 30 34
Nghost:        3879.03 ave        5425 max         232 min
Histogram: 8 0 8 0 16 0 8 8 16 40
Neighs:        79213.6 ave      115241 max           0 min
Histogram: 8 4 4 0 10 6 8 8 24 32

Total # of neighbors = 8238215
Ave neighs/atom = 28.530516
Neighbor list builds = 0
Dangerous builds = 0
The dot product: 2.52480582949054e-10
The cos of the angle between the force vector and the displacement vector: 9.08213798082329e-05
The angle: 89.9947963182401
OMP_NUM_THREADS environment is not set. Defaulting to 1 thread. (../comm.cpp:94)
  using 1 OpenMP thread(s) per MPI task
Reading data file ...
  orthogonal box = (-122.39241 -121.13707 -37.090501) to (122.39241 121.13707 37.090501)
  13 by 4 by 2 MPI processor grid
  reading atoms ...
  288751 atoms
  read_data CPU = 0.342 seconds
199981 atoms in group inner
88770 atoms in group outer
Setting atom values ...
  1 settings made for x
  1 settings made for y
  1 settings made for z
Neighbor list info ...
  update every 1 steps, delay 0 steps, check yes
  max neighbors/atom: 2000, page size: 100000
  master list distance cutoff = 5.6
  ghost atom cutoff = 5.6
  binsize = 2.8, bins = 88 87 27
  1 neighbor lists, perpetual/occasional/extra = 1 0 0
  (1) pair eam/alloy, perpetual
      attributes: half, newton on
      pair build: half/bin/atomonly/newton
      stencil: half/bin/3d/newton
      bin: standard
Setting up cg style minimization ...
  Unit style    : metal
  Current step  : 0
Per MPI rank memory allocation (min/avg/max) = 5.441 | 5.816 | 6.074 Mbytes
Step Temp E_pair E_mol TotEng Press 
       0            0   -1152441.1            0   -1152441.1   -519.31582 
     170            0   -1152449.5            0   -1152449.5   -526.37361 
Loop time of 1.96797 on 104 procs for 170 steps with 288751 atoms

99.9% CPU use with 104 MPI tasks x 1 OpenMP threads

Minimization stats:
  Stopping criterion = energy tolerance
  Energy initial, next-to-last, final = 
     -1152441.12998757  -1152449.45035286  -1152449.45035286
  Force two-norm initial, final = 49.615675 0.00010485444
  Force max component initial, final = 31.763278 2.4834594e-05
  Final line search alpha, max atom move = 1.0000000 2.4834594e-05
  Iterations, force evaluations = 170 335

MPI task timing breakdown:
Section |  min time  |  avg time  |  max time  |%varavg| %total
---------------------------------------------------------------
Pair    | 0.52664    | 1.4118     | 1.8339     |  31.4 | 71.74
Neigh   | 5.0351e-05 | 0.014814   | 0.021717   |   5.0 |  0.75
Comm    | 0.032662   | 0.32045    | 0.96337    |  47.1 | 16.28
Output  | 0          | 0          | 0          |   0.0 |  0.00
Modify  | 1.9293e-05 | 0.001808   | 0.0046938  |   2.7 |  0.09
Other   |            | 0.2191     |            |       | 11.13

Nlocal:        2776.45 ave        3961 max           0 min
Histogram: 8 4 4 0 6 10 8 2 28 34
Nghost:        3879.01 ave        5424 max         232 min
Histogram: 8 0 8 0 16 0 8 8 16 40
Neighs:        79213.7 ave      115455 max           0 min
Histogram: 8 4 4 0 10 6 8 8 24 32

Total # of neighbors = 8238221
Ave neighs/atom = 28.530537
Neighbor list builds = 5
Dangerous builds = 0
OMP_NUM_THREADS environment is not set. Defaulting to 1 thread. (../comm.cpp:94)
  using 1 OpenMP thread(s) per MPI task
Reading data file ...
  orthogonal box = (-122.39241 -121.13707 -37.090501) to (122.39241 121.13707 37.090501)
  13 by 4 by 2 MPI processor grid
  reading atoms ...
  288751 atoms
  read_data CPU = 0.340 seconds
199981 atoms in group inner
88770 atoms in group outer
Setting atom values ...
  1 settings made for x
  1 settings made for y
  1 settings made for z
Neighbor list info ...
  update every 1 steps, delay 0 steps, check yes
  max neighbors/atom: 2000, page size: 100000
  master list distance cutoff = 5.6
  ghost atom cutoff = 5.6
  binsize = 2.8, bins = 88 87 27
  1 neighbor lists, perpetual/occasional/extra = 1 0 0
  (1) pair eam/alloy, perpetual
      attributes: half, newton on
      pair build: half/bin/atomonly/newton
      stencil: half/bin/3d/newton
      bin: standard
Setting up cg style minimization ...
  Unit style    : metal
  Current step  : 0
Per MPI rank memory allocation (min/avg/max) = 5.441 | 5.816 | 6.074 Mbytes
Step Temp E_pair E_mol TotEng Press 
       0            0   -1152419.1            0   -1152419.1   -513.66192 
     229            0     -1152449            0     -1152449   -525.35076 
Loop time of 2.70767 on 104 procs for 229 steps with 288751 atoms

99.9% CPU use with 104 MPI tasks x 1 OpenMP threads

Minimization stats:
  Stopping criterion = energy tolerance
  Energy initial, next-to-last, final = 
     -1152419.05603385  -1152448.97218783  -1152448.97218783
  Force two-norm initial, final = 145.53016 0.00013570659
  Force max component initial, final = 93.464453 2.0109492e-05
  Final line search alpha, max atom move = 1.0000000 2.0109492e-05
  Iterations, force evaluations = 229 452

MPI task timing breakdown:
Section |  min time  |  avg time  |  max time  |%varavg| %total
---------------------------------------------------------------
Pair    | 0.71885    | 1.9133     | 2.5172     |  36.5 | 70.66
Neigh   | 9.1498e-05 | 0.026635   | 0.039331   |   6.7 |  0.98
Comm    | 0.041148   | 0.43816    | 1.2917     |  53.8 | 16.18
Output  | 0          | 0          | 0          |   0.0 |  0.00
Modify  | 2.5093e-05 | 0.0024257  | 0.006267   |   3.1 |  0.09
Other   |            | 0.3271     |            |       | 12.08

Nlocal:        2776.45 ave        3954 max           0 min
Histogram: 8 4 4 0 4 12 8 0 30 34
Nghost:        3879.02 ave        5424 max         232 min
Histogram: 8 0 8 0 16 0 8 8 16 40
Neighs:        79213.6 ave      115277 max           0 min
Histogram: 8 4 4 0 10 6 8 8 24 32

Total # of neighbors = 8238215
Ave neighs/atom = 28.530516
Neighbor list builds = 9
Dangerous builds = 0
0.639369968431573 2.95187794323275 20.9138221392404
