LAMMPS (29 Oct 2020)
OMP_NUM_THREADS environment is not set. Defaulting to 1 thread. (../comm.cpp:94)
  using 1 OpenMP thread(s) per MPI task
OMP_NUM_THREADS environment is not set. Defaulting to 1 thread. (../comm.cpp:94)
  using 1 OpenMP thread(s) per MPI task
Reading data file ...
  orthogonal box = (-122.39241 -121.13707 -37.090501) to (122.39241 121.13707 37.090501)
  13 by 4 by 2 MPI processor grid
  reading atoms ...
  288751 atoms
  read_data CPU = 0.461 seconds
199981 atoms in group inner
88770 atoms in group outer
1 atoms in group carbon
Neighbor list info ...
  update every 1 steps, delay 0 steps, check yes
  max neighbors/atom: 2000, page size: 100000
  master list distance cutoff = 5.6
  ghost atom cutoff = 5.6
  binsize = 2.8, bins = 88 87 27
  1 neighbor lists, perpetual/occasional/extra = 1 0 0
  (1) pair eam/alloy, perpetual
      attributes: half, newton on
      pair build: half/bin/atomonly/newton
      stencil: half/bin/3d/newton
      bin: standard
Setting up cg style minimization ...
  Unit style    : metal
  Current step  : 0
Per MPI rank memory allocation (min/avg/max) = 5.441 | 5.816 | 6.074 Mbytes
Step v_fx v_fy v_fz PotEng KinEng TotEng 
       0   -13.703003   -22.530649   -7.9169829   -1152441.8            0   -1152441.8 
     233 -6.639517e-07 1.4257794e-06 4.7459688e-06     -1152449            0     -1152449 
Loop time of 2.8391 on 104 procs for 233 steps with 288751 atoms

99.8% CPU use with 104 MPI tasks x 1 OpenMP threads

Minimization stats:
  Stopping criterion = energy tolerance
  Energy initial, next-to-last, final = 
     -1152441.82385641   -1152448.9721877   -1152448.9721877
  Force two-norm initial, final = 45.135912 0.00015186115
  Force max component initial, final = 29.396115 3.0349057e-05
  Final line search alpha, max atom move = 1.0000000 3.0349057e-05
  Iterations, force evaluations = 233 462

MPI task timing breakdown:
Section |  min time  |  avg time  |  max time  |%varavg| %total
---------------------------------------------------------------
Pair    | 0.75506    | 1.9748     | 2.5702     |  36.8 | 69.56
Neigh   | 9.7365e-05 | 0.028111   | 0.041945   |   7.0 |  0.99
Comm    | 0.05458    | 0.46002    | 1.3424     |  54.0 | 16.20
Output  | 0          | 0          | 0          |   0.0 |  0.00
Modify  | 2.6667e-05 | 0.0025291  | 0.0064549  |   3.1 |  0.09
Other   |            | 0.3737     |            |       | 13.16

Nlocal:        2776.45 ave        3946 max           0 min
Histogram: 8 4 4 0 4 12 8 0 28 36
Nghost:        3879.09 ave        5424 max         232 min
Histogram: 8 0 8 0 16 0 8 8 16 40
Neighs:        79213.5 ave      114978 max           0 min
Histogram: 8 4 4 0 10 6 8 8 23 33

Total # of neighbors = 8238208
Ave neighs/atom = 28.530492
Neighbor list builds = 9
Dangerous builds = 0
Setting atom values ...
  1 settings made for x
  1 settings made for y
  1 settings made for z
Setting up cg style minimization ...
  Unit style    : metal
  Current step  : 233
Per MPI rank memory allocation (min/avg/max) = 5.441 | 5.816 | 6.074 Mbytes
Step PotEng KinEng TotEng v_fx v_fy v_fz 
     233     -1152449            0     -1152449 -0.0044206373  0.012437227   0.02868697 
     386     -1152449            0     -1152449 -2.6843621e-06 -3.7459897e-06 -1.8653009e-05 
Loop time of 1.82666 on 104 procs for 153 steps with 288751 atoms

99.9% CPU use with 104 MPI tasks x 1 OpenMP threads

Minimization stats:
  Stopping criterion = energy tolerance
  Energy initial, next-to-last, final = 
     -1152448.97139453  -1152448.97198519  -1152448.97198519
  Force two-norm initial, final = 0.10905688 0.00010504733
  Force max component initial, final = 0.041005545 1.8951398e-05
  Final line search alpha, max atom move = 1.0000000 1.8951398e-05
  Iterations, force evaluations = 153 306

MPI task timing breakdown:
Section |  min time  |  avg time  |  max time  |%varavg| %total
---------------------------------------------------------------
Pair    | 0.46841    | 1.2982     | 1.6888     |  30.7 | 71.07
Neigh   | 0          | 0          | 0          |   0.0 |  0.00
Comm    | 0.034636   | 0.29389    | 0.87864    |  44.6 | 16.09
Output  | 0          | 0          | 0          |   0.0 |  0.00
Modify  | 1.9765e-05 | 0.002539   | 0.0054309  |   2.4 |  0.14
Other   |            | 0.232      |            |       | 12.70

Nlocal:        2776.45 ave        3946 max           0 min
Histogram: 8 4 4 0 4 12 8 0 28 36
Nghost:        3879.20 ave        5423 max         232 min
Histogram: 8 0 8 0 16 0 8 8 16 40
Neighs:        79213.5 ave      114989 max           0 min
Histogram: 8 4 4 0 10 6 8 8 24 32

Total # of neighbors = 8238205
Ave neighs/atom = 28.530481
Neighbor list builds = 0
Dangerous builds = 0
Setting atom values ...
  1 settings made for x
  1 settings made for y
  1 settings made for z
Setting up cg style minimization ...
  Unit style    : metal
  Current step  : 386
Per MPI rank memory allocation (min/avg/max) = 5.441 | 5.816 | 6.074 Mbytes
Step PotEng KinEng TotEng v_fx v_fy v_fz 
     386     -1152449            0     -1152449 -0.0073195106   0.02570844   0.02615792 
     543     -1152449            0     -1152449 -1.2764984e-05 -1.5997612e-05 -3.4947624e-05 
Loop time of 1.86016 on 104 procs for 157 steps with 288751 atoms

99.9% CPU use with 104 MPI tasks x 1 OpenMP threads

Minimization stats:
  Stopping criterion = energy tolerance
  Energy initial, next-to-last, final = 
     -1152448.96938217   -1152448.9710185   -1152448.9710185
  Force two-norm initial, final = 0.16307778 0.00022038574
  Force max component initial, final = 0.081165042 3.9138000e-05
  Final line search alpha, max atom move = 1.0000000 3.9138000e-05
  Iterations, force evaluations = 157 314

MPI task timing breakdown:
Section |  min time  |  avg time  |  max time  |%varavg| %total
---------------------------------------------------------------
Pair    | 0.48385    | 1.3237     | 1.7263     |  31.0 | 71.16
Neigh   | 0          | 0          | 0          |   0.0 |  0.00
Comm    | 0.029766   | 0.30009    | 0.88949    |  45.0 | 16.13
Output  | 0          | 0          | 0          |   0.0 |  0.00
Modify  | 2.0152e-05 | 0.0026098  | 0.006185   |   2.4 |  0.14
Other   |            | 0.2338     |            |       | 12.57

Nlocal:        2776.45 ave        3946 max           0 min
Histogram: 8 4 4 0 4 12 8 0 28 36
Nghost:        3879.24 ave        5424 max         232 min
Histogram: 8 0 8 0 16 0 8 8 16 40
Neighs:        79213.5 ave      114988 max           0 min
Histogram: 8 4 4 0 10 6 8 8 24 32

Total # of neighbors = 8238203
Ave neighs/atom = 28.530474
Neighbor list builds = 0
Dangerous builds = 0
The dot product: -3.83071204382577e-07
Setting atom values ...
  1 settings made for x
  1 settings made for y
  1 settings made for z
Setting up cg style minimization ...
  Unit style    : metal
  Current step  : 543
Per MPI rank memory allocation (min/avg/max) = 5.441 | 5.816 | 6.074 Mbytes
Step PotEng KinEng TotEng v_fx v_fy v_fz 
     543     -1152449            0     -1152449 -0.010922729  0.011662718 0.0024677042 
     761     -1152449            0     -1152449 4.6924674e-06 5.6797666e-06 6.9784758e-06 
Loop time of 2.59482 on 104 procs for 218 steps with 288751 atoms

99.9% CPU use with 104 MPI tasks x 1 OpenMP threads

Minimization stats:
  Stopping criterion = energy tolerance
  Energy initial, next-to-last, final = 
     -1152448.96769567  -1152448.97007172  -1152448.97007172
  Force two-norm initial, final = 0.15650331 6.8676089e-05
  Force max component initial, final = 0.088424529 9.8428184e-06
  Final line search alpha, max atom move = 1.0000000 9.8428184e-06
  Iterations, force evaluations = 218 436

MPI task timing breakdown:
Section |  min time  |  avg time  |  max time  |%varavg| %total
---------------------------------------------------------------
Pair    | 0.66787    | 1.8498     | 2.4154     |  36.6 | 71.29
Neigh   | 0          | 0          | 0          |   0.0 |  0.00
Comm    | 0.044899   | 0.42389    | 1.2511     |  53.3 | 16.34
Output  | 0          | 0          | 0          |   0.0 |  0.00
Modify  | 2.9565e-05 | 0.0036109  | 0.0076609  |   2.8 |  0.14
Other   |            | 0.3176     |            |       | 12.24

Nlocal:        2776.45 ave        3945 max           0 min
Histogram: 8 4 4 0 4 12 8 0 28 36
Nghost:        3879.23 ave        5423 max         232 min
Histogram: 8 0 8 0 16 0 8 8 16 40
Neighs:        79213.5 ave      114927 max           0 min
Histogram: 8 4 4 0 10 6 8 8 22 34

Total # of neighbors = 8238200
Ave neighs/atom = 28.530464
Neighbor list builds = 0
Dangerous builds = 0
The dot product: 1.66148902426962e-07
Setting atom values ...
  1 settings made for x
  1 settings made for y
  1 settings made for z
Setting up cg style minimization ...
  Unit style    : metal
  Current step  : 761
Per MPI rank memory allocation (min/avg/max) = 5.441 | 5.816 | 6.074 Mbytes
Step PotEng KinEng TotEng v_fx v_fy v_fz 
     761     -1152449            0     -1152449 -0.018307501 -0.014970833 -0.011013033 
    1000     -1152449            0     -1152449 9.103713e-06 1.4074144e-05 8.5481092e-06 
    1008     -1152449            0     -1152449 1.0368151e-05 1.6000474e-05 9.7221896e-06 
Loop time of 2.89818 on 104 procs for 247 steps with 288751 atoms

99.9% CPU use with 104 MPI tasks x 1 OpenMP threads

Minimization stats:
  Stopping criterion = energy tolerance
  Energy initial, next-to-last, final = 
     -1152448.96672817  -1152448.96890351  -1152448.96890351
  Force two-norm initial, final = 0.16875694 6.3468116e-05
  Force max component initial, final = 0.089067905 1.6681729e-05
  Final line search alpha, max atom move = 1.0000000 1.6681729e-05
  Iterations, force evaluations = 247 494

MPI task timing breakdown:
Section |  min time  |  avg time  |  max time  |%varavg| %total
---------------------------------------------------------------
Pair    | 0.75168    | 2.0762     | 2.7082     |  38.9 | 71.64
Neigh   | 0          | 0          | 0          |   0.0 |  0.00
Comm    | 0.047408   | 0.46925    | 1.4029     |  56.7 | 16.19
Output  | 0.00056224 | 0.00056856 | 0.00072273 |   0.0 |  0.02
Modify  | 2.8651e-05 | 0.0040846  | 0.0086737  |   3.0 |  0.14
Other   |            | 0.3481     |            |       | 12.01

Nlocal:        2776.45 ave        3944 max           0 min
Histogram: 8 4 4 0 4 12 8 0 28 36
Nghost:        3879.18 ave        5423 max         232 min
Histogram: 8 0 8 0 16 0 8 8 16 40
Neighs:        79213.5 ave      114911 max           0 min
Histogram: 8 4 4 0 10 6 8 8 22 34

Total # of neighbors = 8238209
Ave neighs/atom = 28.530495
Neighbor list builds = 0
Dangerous builds = 0
The dot product: 1.98618597222691e-07
Setting atom values ...
  1 settings made for x
  1 settings made for y
  1 settings made for z
Setting up cg style minimization ...
  Unit style    : metal
  Current step  : 1008
Per MPI rank memory allocation (min/avg/max) = 5.441 | 5.816 | 6.074 Mbytes
Step PotEng KinEng TotEng v_fx v_fy v_fz 
    1008     -1152449            0     -1152449 -0.022700495  -0.02780971 -0.012665421 
    1378   -1152449.2            0   -1152449.2 -1.4850109e-05 -2.0618582e-05 -9.1577119e-06 
Loop time of 4.36929 on 104 procs for 370 steps with 288751 atoms

99.9% CPU use with 104 MPI tasks x 1 OpenMP threads

Minimization stats:
  Stopping criterion = energy tolerance
  Energy initial, next-to-last, final = 
     -1152448.96483109  -1152449.19762062  -1152449.19762062
  Force two-norm initial, final = 0.17786926 0.00013184521
  Force max component initial, final = 0.087155702 3.5115040e-05
  Final line search alpha, max atom move = 1.0000000 3.5115040e-05
  Iterations, force evaluations = 370 740

MPI task timing breakdown:
Section |  min time  |  avg time  |  max time  |%varavg| %total
---------------------------------------------------------------
Pair    | 1.1424     | 3.1301     | 4.0695     |  47.3 | 71.64
Neigh   | 4.085e-05  | 0.01167    | 0.016988   |   4.5 |  0.27
Comm    | 0.071178   | 0.7074     | 2.1188     |  70.0 | 16.19
Output  | 0          | 0          | 0          |   0.0 |  0.00
Modify  | 4.7023e-05 | 0.0061053  | 0.012996   |   3.7 |  0.14
Other   |            | 0.514      |            |       | 11.76

Nlocal:        2776.45 ave        3946 max           0 min
Histogram: 8 4 4 0 4 12 8 0 28 36
Nghost:        3879.36 ave        5423 max         232 min
Histogram: 8 0 8 0 16 0 8 8 16 40
Neighs:        79214.3 ave      114938 max           0 min
Histogram: 8 4 4 0 10 6 8 8 22 34

Total # of neighbors = 8238284
Ave neighs/atom = 28.530755
Neighbor list builds = 4
Dangerous builds = 0
The dot product: -9.49068946823896e-07
Setting atom values ...
  1 settings made for x
  1 settings made for y
  1 settings made for z
Setting up cg style minimization ...
  Unit style    : metal
  Current step  : 1378
Per MPI rank memory allocation (min/avg/max) = 5.441 | 5.816 | 6.074 Mbytes
Step PotEng KinEng TotEng v_fx v_fy v_fz 
    1378   -1152449.2            0   -1152449.2 -0.046772339 -0.060302429 0.00047139863 
    1585   -1152449.2            0   -1152449.2 8.206574e-06 1.4669876e-05 1.3998022e-07 
Loop time of 2.43743 on 104 procs for 207 steps with 288751 atoms

99.9% CPU use with 104 MPI tasks x 1 OpenMP threads

Minimization stats:
  Stopping criterion = energy tolerance
  Energy initial, next-to-last, final = 
     -1152449.19677522    -1152449.199467    -1152449.199467
  Force two-norm initial, final = 0.20935429 7.8730950e-05
  Force max component initial, final = 0.081679178 1.7849056e-05
  Final line search alpha, max atom move = 1.0000000 1.7849056e-05
  Iterations, force evaluations = 207 414

MPI task timing breakdown:
Section |  min time  |  avg time  |  max time  |%varavg| %total
---------------------------------------------------------------
Pair    | 0.62824    | 1.7401     | 2.2774     |  35.7 | 71.39
Neigh   | 0          | 0          | 0          |   0.0 |  0.00
Comm    | 0.040719   | 0.39449    | 1.1762     |  52.0 | 16.18
Output  | 0          | 0          | 0          |   0.0 |  0.00
Modify  | 2.477e-05  | 0.0034236  | 0.007265   |   2.7 |  0.14
Other   |            | 0.2994     |            |       | 12.28

Nlocal:        2776.45 ave        3945 max           0 min
Histogram: 8 4 4 0 4 12 8 0 28 36
Nghost:        3879.12 ave        5422 max         232 min
Histogram: 8 0 8 0 16 0 8 8 16 40
Neighs:        79214.8 ave      114923 max           0 min
Histogram: 8 4 4 0 10 6 8 8 22 34

Total # of neighbors = 8238334
Ave neighs/atom = 28.530928
Neighbor list builds = 0
Dangerous builds = 0
The dot product: -2.04502654293876e-07
Setting atom values ...
  1 settings made for x
  1 settings made for y
  1 settings made for z
Setting up cg style minimization ...
  Unit style    : metal
  Current step  : 1585
Per MPI rank memory allocation (min/avg/max) = 5.441 | 5.816 | 6.074 Mbytes
Step PotEng KinEng TotEng v_fx v_fy v_fz 
    1585   -1152449.2            0   -1152449.2 -0.023278509  -0.03063895 -0.0037469099 
    1971   -1152449.2            0   -1152449.2 -1.6076614e-05 -2.3171565e-05 -2.8377616e-06 
Loop time of 4.51776 on 104 procs for 386 steps with 288751 atoms

99.9% CPU use with 104 MPI tasks x 1 OpenMP threads

Minimization stats:
  Stopping criterion = energy tolerance
  Energy initial, next-to-last, final = 
     -1152449.19782692   -1152449.2001831   -1152449.2001831
  Force two-norm initial, final = 0.19497001 0.00014104969
  Force max component initial, final = 0.085846531 4.3549405e-05
  Final line search alpha, max atom move = 1.0000000 4.3549405e-05
  Iterations, force evaluations = 386 772

MPI task timing breakdown:
Section |  min time  |  avg time  |  max time  |%varavg| %total
---------------------------------------------------------------
Pair    | 1.1705     | 3.2524     | 4.2339     |  48.5 | 71.99
Neigh   | 0          | 0          | 0          |   0.0 |  0.00
Comm    | 0.077031   | 0.73347    | 2.1915     |  71.2 | 16.24
Output  | 0          | 0          | 0          |   0.0 |  0.00
Modify  | 4.732e-05  | 0.0063743  | 0.013534   |   3.7 |  0.14
Other   |            | 0.5255     |            |       | 11.63

Nlocal:        2776.45 ave        3945 max           0 min
Histogram: 8 4 4 0 4 12 8 0 28 36
Nghost:        3879.12 ave        5422 max         232 min
Histogram: 8 0 8 0 16 0 8 8 16 40
Neighs:        79214.6 ave      114927 max           0 min
Histogram: 8 4 4 0 10 6 8 8 22 34

Total # of neighbors = 8238323
Ave neighs/atom = 28.530890
Neighbor list builds = 0
Dangerous builds = 0
The dot product: -4.65215600327175e-08
Setting atom values ...
  1 settings made for x
  1 settings made for y
  1 settings made for z
Setting up cg style minimization ...
  Unit style    : metal
  Current step  : 1971
Per MPI rank memory allocation (min/avg/max) = 5.441 | 5.816 | 6.074 Mbytes
Step PotEng KinEng TotEng v_fx v_fy v_fz 
    1971   -1152449.2            0   -1152449.2 -0.022338683 -0.037139478 -0.0039857246 
    2000   -1152449.2            0   -1152449.2 0.00029574408 0.00058507194 6.2093197e-05 
    2371   -1152449.4            0   -1152449.4 -7.4078371e-06 -6.1391145e-06 -7.0483564e-07 
Loop time of 4.77847 on 104 procs for 400 steps with 288751 atoms

99.9% CPU use with 104 MPI tasks x 1 OpenMP threads

Minimization stats:
  Stopping criterion = energy tolerance
  Energy initial, next-to-last, final = 
     -1152449.19791375  -1152449.40581445  -1152449.40581445
  Force two-norm initial, final = 0.19760738 0.00011589183
  Force max component initial, final = 0.086065762 2.6680950e-05
  Final line search alpha, max atom move = 1.0000000 2.6680950e-05
  Iterations, force evaluations = 400 800

MPI task timing breakdown:
Section |  min time  |  avg time  |  max time  |%varavg| %total
---------------------------------------------------------------
Pair    | 1.251      | 3.3777     | 4.4208     |  49.1 | 70.68
Neigh   | 9.2132e-05 | 0.02633    | 0.038249   |   6.7 |  0.55
Comm    | 0.080469   | 0.76533    | 2.2735     |  72.0 | 16.02
Output  | 0.0002365  | 0.00024477 | 0.00033641 |   0.0 |  0.01
Modify  | 4.8161e-05 | 0.0066082  | 0.014094   |   3.8 |  0.14
Other   |            | 0.6023     |            |       | 12.60

Nlocal:        2776.45 ave        3952 max           0 min
Histogram: 8 4 4 0 4 12 8 0 30 34
Nghost:        3879.03 ave        5423 max         232 min
Histogram: 8 0 8 0 16 0 8 8 16 40
Neighs:        79213.2 ave      115080 max           0 min
Histogram: 8 4 4 0 10 6 8 8 24 32

Total # of neighbors = 8238169
Ave neighs/atom = 28.530357
Neighbor list builds = 9
Dangerous builds = 0
The dot product: 7.00812573528496e-07
Setting atom values ...
  1 settings made for x
  1 settings made for y
  1 settings made for z
Setting up cg style minimization ...
  Unit style    : metal
  Current step  : 2371
Per MPI rank memory allocation (min/avg/max) = 5.441 | 5.816 | 6.074 Mbytes
Step PotEng KinEng TotEng v_fx v_fy v_fz 
    2371   -1152449.4            0   -1152449.4  0.097659363   0.16743057   0.11357859 
    2612   -1152449.4            0   -1152449.4 -3.1766913e-06 -5.0918874e-06 -3.5095587e-06 
Loop time of 2.85004 on 104 procs for 241 steps with 288751 atoms

99.9% CPU use with 104 MPI tasks x 1 OpenMP threads

Minimization stats:
  Stopping criterion = energy tolerance
  Energy initial, next-to-last, final = 
     -1152449.41355063  -1152449.42201522  -1152449.42201522
  Force two-norm initial, final = 0.29694683 3.9904784e-05
  Force max component initial, final = 0.16743057 5.0918874e-06
  Final line search alpha, max atom move = 1.0000000 5.0918874e-06
  Iterations, force evaluations = 241 482

MPI task timing breakdown:
Section |  min time  |  avg time  |  max time  |%varavg| %total
---------------------------------------------------------------
Pair    | 0.735      | 2.0378     | 2.682      |  38.6 | 71.50
Neigh   | 0          | 0          | 0          |   0.0 |  0.00
Comm    | 0.042933   | 0.46565    | 1.3701     |  55.9 | 16.34
Output  | 0          | 0          | 0          |   0.0 |  0.00
Modify  | 2.8163e-05 | 0.0039771  | 0.0084663  |   3.0 |  0.14
Other   |            | 0.3426     |            |       | 12.02

Nlocal:        2776.45 ave        3960 max           0 min
Histogram: 8 4 4 0 4 12 8 2 28 34
Nghost:        3879.14 ave        5423 max         232 min
Histogram: 8 0 8 0 16 0 8 8 16 40
Neighs:        79213.4 ave      115346 max           0 min
Histogram: 8 4 4 0 10 6 8 8 24 32

Total # of neighbors = 8238194
Ave neighs/atom = 28.530443
Neighbor list builds = 0
Dangerous builds = 0
The dot product: -3.96229191067953e-07
Setting atom values ...
  1 settings made for x
  1 settings made for y
  1 settings made for z
Setting up cg style minimization ...
  Unit style    : metal
  Current step  : 2612
Per MPI rank memory allocation (min/avg/max) = 5.441 | 5.816 | 6.074 Mbytes
Step PotEng KinEng TotEng v_fx v_fy v_fz 
    2612   -1152449.4            0   -1152449.4 -0.072910746  -0.11782251 -0.035840274 
    2844   -1152449.4            0   -1152449.4 1.6673616e-07 2.0782424e-06 4.9826411e-07 
Loop time of 2.75296 on 104 procs for 232 steps with 288751 atoms

99.9% CPU use with 104 MPI tasks x 1 OpenMP threads

Minimization stats:
  Stopping criterion = energy tolerance
  Energy initial, next-to-last, final = 
     -1152449.42712923  -1152449.43103082  -1152449.43103082
  Force two-norm initial, final = 0.24803151 3.5509885e-05
  Force max component initial, final = 0.11782251 7.3028716e-06
  Final line search alpha, max atom move = 1.0000000 7.3028716e-06
  Iterations, force evaluations = 232 464

MPI task timing breakdown:
Section |  min time  |  avg time  |  max time  |%varavg| %total
---------------------------------------------------------------
Pair    | 0.70466    | 1.9573     | 2.5584     |  37.9 | 71.10
Neigh   | 0          | 0          | 0          |   0.0 |  0.00
Comm    | 0.044966   | 0.44519    | 1.3203     |  55.0 | 16.17
Output  | 0          | 0          | 0          |   0.0 |  0.00
Modify  | 2.7343e-05 | 0.0038333  | 0.0081497  |   2.9 |  0.14
Other   |            | 0.3466     |            |       | 12.59

Nlocal:        2776.45 ave        3960 max           0 min
Histogram: 8 4 4 0 4 12 8 3 27 34
Nghost:        3879.07 ave        5423 max         232 min
Histogram: 8 0 8 0 16 0 8 8 16 40
Neighs:        79213.5 ave      115351 max           0 min
Histogram: 8 4 4 0 10 6 8 8 24 32

Total # of neighbors = 8238200
Ave neighs/atom = 28.530464
Neighbor list builds = 0
Dangerous builds = 0
The dot product: -6.10113029329438e-08
Setting atom values ...
  1 settings made for x
  1 settings made for y
  1 settings made for z
Setting up cg style minimization ...
  Unit style    : metal
  Current step  : 2844
Per MPI rank memory allocation (min/avg/max) = 5.441 | 5.816 | 6.074 Mbytes
Step PotEng KinEng TotEng v_fx v_fy v_fz 
    2844   -1152449.4            0   -1152449.4 -0.0020688436  0.018375413 0.0062773846 
    3000   -1152449.4            0   -1152449.4 6.5171469e-06 1.7459072e-05 7.5136696e-06 
    3009   -1152449.4            0   -1152449.4 2.0973163e-06 3.348844e-06 1.5959501e-06 
Loop time of 1.94541 on 104 procs for 165 steps with 288751 atoms

99.9% CPU use with 104 MPI tasks x 1 OpenMP threads

Minimization stats:
  Stopping criterion = energy tolerance
  Energy initial, next-to-last, final = 
     -1152449.43447686  -1152449.43657783  -1152449.43657783
  Force two-norm initial, final = 0.19981959 9.2664042e-05
  Force max component initial, final = 0.10351195 5.9438453e-06
  Final line search alpha, max atom move = 1.0000000 5.9438453e-06
  Iterations, force evaluations = 165 330

MPI task timing breakdown:
Section |  min time  |  avg time  |  max time  |%varavg| %total
---------------------------------------------------------------
Pair    | 0.50175    | 1.3943     | 1.826      |  31.9 | 71.67
Neigh   | 0          | 0          | 0          |   0.0 |  0.00
Comm    | 0.028832   | 0.31574    | 0.94604    |  46.2 | 16.23
Output  | 0.00025795 | 0.00026974 | 0.00042471 |   0.0 |  0.01
Modify  | 2.0251e-05 | 0.002727   | 0.0057996  |   2.5 |  0.14
Other   |            | 0.2323     |            |       | 11.94

Nlocal:        2776.45 ave        3960 max           0 min
Histogram: 8 4 4 0 4 12 8 2 28 34
Nghost:        3879.07 ave        5423 max         232 min
Histogram: 8 0 8 0 16 0 8 8 16 40
Neighs:        79213.5 ave      115360 max           0 min
Histogram: 8 4 4 0 10 6 8 8 24 32

Total # of neighbors = 8238199
Ave neighs/atom = 28.530461
Neighbor list builds = 0
Dangerous builds = 0
The dot product: 3.76236522019317e-08
Setting atom values ...
  1 settings made for x
  1 settings made for y
  1 settings made for z
Setting up cg style minimization ...
  Unit style    : metal
  Current step  : 3009
Per MPI rank memory allocation (min/avg/max) = 5.441 | 5.816 | 6.074 Mbytes
Step PotEng KinEng TotEng v_fx v_fy v_fz 
    3009   -1152449.4            0   -1152449.4  -0.01766275 -0.030214513 -0.012744742 
    3184   -1152449.4            0   -1152449.4 1.7292595e-05 2.9663256e-05 1.2503979e-05 
Loop time of 2.05243 on 104 procs for 175 steps with 288751 atoms

99.9% CPU use with 104 MPI tasks x 1 OpenMP threads

Minimization stats:
  Stopping criterion = energy tolerance
  Energy initial, next-to-last, final = 
     -1152449.43810392  -1152449.44006595  -1152449.44006595
  Force two-norm initial, final = 0.2033587 0.00015978027
  Force max component initial, final = 0.10140457 3.4591299e-05
  Final line search alpha, max atom move = 1.0000000 3.4591299e-05
  Iterations, force evaluations = 175 350

MPI task timing breakdown:
Section |  min time  |  avg time  |  max time  |%varavg| %total
---------------------------------------------------------------
Pair    | 0.5324     | 1.471      | 1.9309     |  32.8 | 71.67
Neigh   | 0          | 0          | 0          |   0.0 |  0.00
Comm    | 0.032839   | 0.33279    | 0.98661    |  47.7 | 16.21
Output  | 0          | 0          | 0          |   0.0 |  0.00
Modify  | 2.1149e-05 | 0.0028942  | 0.0061371  |   2.5 |  0.14
Other   |            | 0.2457     |            |       | 11.97

Nlocal:        2776.45 ave        3961 max           0 min
Histogram: 8 4 4 0 6 10 8 3 27 34
Nghost:        3879.07 ave        5423 max         232 min
Histogram: 8 0 8 0 16 0 8 8 16 40
Neighs:        79213.4 ave      115382 max           0 min
Histogram: 8 4 4 0 10 6 8 8 24 32

Total # of neighbors = 8238196
Ave neighs/atom = 28.530450
Neighbor list builds = 0
Dangerous builds = 0
The dot product: -1.07232772819363e-07
Setting atom values ...
  1 settings made for x
  1 settings made for y
  1 settings made for z
Setting up cg style minimization ...
  Unit style    : metal
  Current step  : 3184
Per MPI rank memory allocation (min/avg/max) = 5.441 | 5.816 | 6.074 Mbytes
Step PotEng KinEng TotEng v_fx v_fy v_fz 
    3184   -1152449.4            0   -1152449.4 -0.014304884 -0.025762012 -0.011099922 
    3362   -1152449.4            0   -1152449.4 1.8589869e-06 5.5267832e-06 2.1669355e-06 
Loop time of 2.09997 on 104 procs for 178 steps with 288751 atoms

99.9% CPU use with 104 MPI tasks x 1 OpenMP threads

Minimization stats:
  Stopping criterion = energy tolerance
  Energy initial, next-to-last, final = 
      -1152449.4396346  -1152449.44158701  -1152449.44158701
  Force two-norm initial, final = 0.20218637 0.00012200281
  Force max component initial, final = 0.099802439 9.9279033e-06
  Final line search alpha, max atom move = 1.0000000 9.9279033e-06
  Iterations, force evaluations = 178 356

MPI task timing breakdown:
Section |  min time  |  avg time  |  max time  |%varavg| %total
---------------------------------------------------------------
Pair    | 0.54202    | 1.504      | 1.965      |  33.1 | 71.62
Neigh   | 0          | 0          | 0          |   0.0 |  0.00
Comm    | 0.035484   | 0.34062    | 1.0216     |  48.4 | 16.22
Output  | 0          | 0          | 0          |   0.0 |  0.00
Modify  | 2.0819e-05 | 0.0029456  | 0.0062523  |   2.5 |  0.14
Other   |            | 0.2524     |            |       | 12.02

Nlocal:        2776.45 ave        3961 max           0 min
Histogram: 8 4 4 0 6 10 8 3 27 34
Nghost:        3879.07 ave        5423 max         232 min
Histogram: 8 0 8 0 16 0 8 8 16 40
Neighs:        79213.5 ave      115385 max           0 min
Histogram: 8 4 4 0 10 6 8 8 24 32

Total # of neighbors = 8238199
Ave neighs/atom = 28.530461
Neighbor list builds = 0
Dangerous builds = 0
The dot product: -8.14858702298703e-09
Setting atom values ...
  1 settings made for x
  1 settings made for y
  1 settings made for z
Setting up cg style minimization ...
  Unit style    : metal
  Current step  : 3362
Per MPI rank memory allocation (min/avg/max) = 5.441 | 5.816 | 6.074 Mbytes
Step PotEng KinEng TotEng v_fx v_fy v_fz 
    3362   -1152449.4            0   -1152449.4 -0.014925845 -0.029797756 -0.012723997 
    3519   -1152449.4            0   -1152449.4 -3.8158725e-06 -1.3747067e-05 -5.3194697e-06 
Loop time of 1.84082 on 104 procs for 157 steps with 288751 atoms

99.9% CPU use with 104 MPI tasks x 1 OpenMP threads

Minimization stats:
  Stopping criterion = energy tolerance
  Energy initial, next-to-last, final = 
     -1152449.43913351   -1152449.4410981   -1152449.4410981
  Force two-norm initial, final = 0.20289278 0.00021146367
  Force max component initial, final = 0.098003413 1.8536720e-05
  Final line search alpha, max atom move = 1.0000000 1.8536720e-05
  Iterations, force evaluations = 157 314

MPI task timing breakdown:
Section |  min time  |  avg time  |  max time  |%varavg| %total
---------------------------------------------------------------
Pair    | 0.47852    | 1.3213     | 1.7307     |  31.0 | 71.78
Neigh   | 0          | 0          | 0          |   0.0 |  0.00
Comm    | 0.027551   | 0.29792    | 0.88996    |  45.5 | 16.18
Output  | 0          | 0          | 0          |   0.0 |  0.00
Modify  | 1.916e-05  | 0.0025983  | 0.0055342  |   2.4 |  0.14
Other   |            | 0.219      |            |       | 11.90

Nlocal:        2776.45 ave        3961 max           0 min
Histogram: 8 4 4 0 6 10 8 3 27 34
Nghost:        3879.09 ave        5424 max         232 min
Histogram: 8 0 8 0 16 0 8 8 16 40
Neighs:        79213.5 ave      115392 max           0 min
Histogram: 8 4 4 0 10 6 8 8 24 32

Total # of neighbors = 8238199
Ave neighs/atom = 28.530461
Neighbor list builds = 0
Dangerous builds = 0
The dot product: 3.19140343476684e-08
Setting atom values ...
  1 settings made for x
  1 settings made for y
  1 settings made for z
Setting up cg style minimization ...
  Unit style    : metal
  Current step  : 3519
Per MPI rank memory allocation (min/avg/max) = 5.441 | 5.816 | 6.074 Mbytes
Step PotEng KinEng TotEng v_fx v_fy v_fz 
    3519   -1152449.4            0   -1152449.4  -0.01713543 -0.030695808 -0.013695895 
    3664   -1152449.4            0   -1152449.4 1.5325235e-05 2.4873491e-05 1.1360914e-05 
Loop time of 1.70305 on 104 procs for 145 steps with 288751 atoms

99.9% CPU use with 104 MPI tasks x 1 OpenMP threads

Minimization stats:
  Stopping criterion = energy tolerance
  Energy initial, next-to-last, final = 
     -1152449.43663236  -1152449.43859193  -1152449.43859193
  Force two-norm initial, final = 0.20299929 0.00029947192
  Force max component initial, final = 0.096090629 7.5221963e-05
  Final line search alpha, max atom move = 1.0000000 7.5221963e-05
  Iterations, force evaluations = 145 290

MPI task timing breakdown:
Section |  min time  |  avg time  |  max time  |%varavg| %total
---------------------------------------------------------------
Pair    | 0.44007    | 1.2243     | 1.6004     |  29.9 | 71.89
Neigh   | 0          | 0          | 0          |   0.0 |  0.00
Comm    | 0.025401   | 0.27574    | 0.82794    |  44.1 | 16.19
Output  | 0          | 0          | 0          |   0.0 |  0.00
Modify  | 1.6921e-05 | 0.0023979  | 0.0050984  |   2.3 |  0.14
Other   |            | 0.2006     |            |       | 11.78

Nlocal:        2776.45 ave        3961 max           0 min
Histogram: 8 4 4 0 6 10 8 4 26 34
Nghost:        3879.09 ave        5424 max         232 min
Histogram: 8 0 8 0 16 0 8 8 16 40
Neighs:        79213.5 ave      115382 max           0 min
Histogram: 8 4 4 0 10 6 8 8 24 32

Total # of neighbors = 8238200
Ave neighs/atom = 28.530464
Neighbor list builds = 0
Dangerous builds = 0
The dot product: -8.25792885743405e-08
Setting atom values ...
  1 settings made for x
  1 settings made for y
  1 settings made for z
Setting up cg style minimization ...
  Unit style    : metal
  Current step  : 3664
Per MPI rank memory allocation (min/avg/max) = 5.441 | 5.816 | 6.074 Mbytes
Step PotEng KinEng TotEng v_fx v_fy v_fz 
    3664   -1152449.4            0   -1152449.4 -0.018153618 -0.030500704 -0.014140396 
    3856   -1152449.4            0   -1152449.4 -1.3480238e-06 -3.0252849e-06 -1.3176685e-06 
Loop time of 2.24507 on 104 procs for 192 steps with 288751 atoms

99.9% CPU use with 104 MPI tasks x 1 OpenMP threads

Minimization stats:
  Stopping criterion = energy tolerance
  Energy initial, next-to-last, final = 
     -1152449.43212452  -1152449.43407387  -1152449.43407387
  Force two-norm initial, final = 0.20265222 9.3387977e-05
  Force max component initial, final = 0.098438282 4.7279555e-06
  Final line search alpha, max atom move = 1.0000000 4.7279555e-06
  Iterations, force evaluations = 192 384

MPI task timing breakdown:
Section |  min time  |  avg time  |  max time  |%varavg| %total
---------------------------------------------------------------
Pair    | 0.58225    | 1.6118     | 2.1176     |  34.3 | 71.79
Neigh   | 0          | 0          | 0          |   0.0 |  0.00
Comm    | 0.032402   | 0.36409    | 1.0901     |  50.2 | 16.22
Output  | 0          | 0          | 0          |   0.0 |  0.00
Modify  | 2.248e-05  | 0.0031707  | 0.006735   |   2.6 |  0.14
Other   |            | 0.266      |            |       | 11.85

Nlocal:        2776.45 ave        3960 max           0 min
Histogram: 8 4 4 0 4 12 8 4 26 34
Nghost:        3879.16 ave        5426 max         232 min
Histogram: 8 0 8 0 16 0 8 8 16 40
Neighs:        79213.4 ave      115353 max           0 min
Histogram: 8 4 4 0 10 6 8 8 24 32

Total # of neighbors = 8238198
Ave neighs/atom = 28.530457
Neighbor list builds = 0
Dangerous builds = 0
The dot product: 9.702968256327e-09
Setting atom values ...
  1 settings made for x
  1 settings made for y
  1 settings made for z
Setting up cg style minimization ...
  Unit style    : metal
  Current step  : 3856
Per MPI rank memory allocation (min/avg/max) = 5.441 | 5.816 | 6.074 Mbytes
Step PotEng KinEng TotEng v_fx v_fy v_fz 
    3856   -1152449.4            0   -1152449.4 -0.019111118 -0.029859225 -0.014418576 
    4000   -1152449.4            0   -1152449.4 3.2288067e-05 7.1489176e-05 3.1925638e-05 
    4030   -1152449.4            0   -1152449.4 -9.6337287e-06 -2.1974964e-05 -9.7574509e-06 
Loop time of 2.05624 on 104 procs for 174 steps with 288751 atoms

99.9% CPU use with 104 MPI tasks x 1 OpenMP threads

Minimization stats:
  Stopping criterion = energy tolerance
  Energy initial, next-to-last, final = 
     -1152449.42560604  -1152449.42754559  -1152449.42754559
  Force two-norm initial, final = 0.20221249 0.00015486157
  Force max component initial, final = 0.10079556 2.1974964e-05
  Final line search alpha, max atom move = 1.0000000 2.1974964e-05
  Iterations, force evaluations = 174 348

MPI task timing breakdown:
Section |  min time  |  avg time  |  max time  |%varavg| %total
---------------------------------------------------------------
Pair    | 0.53007    | 1.4727     | 1.9363     |  32.8 | 71.62
Neigh   | 0          | 0          | 0          |   0.0 |  0.00
Comm    | 0.030904   | 0.33495    | 0.98714    |  47.6 | 16.29
Output  | 0.00023727 | 0.00024337 | 0.00040936 |   0.0 |  0.01
Modify  | 2.1167e-05 | 0.0028744  | 0.0060996  |   2.5 |  0.14
Other   |            | 0.2455     |            |       | 11.94

Nlocal:        2776.45 ave        3960 max           0 min
Histogram: 8 4 4 0 4 12 8 4 26 34
Nghost:        3879.20 ave        5425 max         232 min
Histogram: 8 0 8 0 16 0 8 8 16 40
Neighs:        79213.5 ave      115361 max           0 min
Histogram: 8 4 4 0 10 6 8 8 24 32

Total # of neighbors = 8238200
Ave neighs/atom = 28.530464
Neighbor list builds = 0
Dangerous builds = 0
The dot product: 7.26706262947816e-08
Setting atom values ...
  1 settings made for x
  1 settings made for y
  1 settings made for z
Setting up cg style minimization ...
  Unit style    : metal
  Current step  : 4030
Per MPI rank memory allocation (min/avg/max) = 5.441 | 5.816 | 6.074 Mbytes
Step PotEng KinEng TotEng v_fx v_fy v_fz 
    4030   -1152449.4            0   -1152449.4 -0.020243691  -0.02880057 -0.014573113 
    4213   -1152449.4            0   -1152449.4 -8.4631298e-09 -3.4751136e-07 -1.2919167e-07 
Loop time of 2.14085 on 104 procs for 183 steps with 288751 atoms

99.9% CPU use with 104 MPI tasks x 1 OpenMP threads

Minimization stats:
  Stopping criterion = energy tolerance
  Energy initial, next-to-last, final = 
     -1152449.41708572  -1152449.41901458  -1152449.41901458
  Force two-norm initial, final = 0.20171237 0.00013011908
  Force max component initial, final = 0.10318965 6.6786599e-06
  Final line search alpha, max atom move = 1.0000000 6.6786599e-06
  Iterations, force evaluations = 183 366

MPI task timing breakdown:
Section |  min time  |  avg time  |  max time  |%varavg| %total
---------------------------------------------------------------
Pair    | 0.55726    | 1.5396     | 2.0126     |  33.6 | 71.92
Neigh   | 0          | 0          | 0          |   0.0 |  0.00
Comm    | 0.033766   | 0.34719    | 1.0389     |  49.3 | 16.22
Output  | 0          | 0          | 0          |   0.0 |  0.00
Modify  | 2.2941e-05 | 0.0030229  | 0.0064307  |   2.6 |  0.14
Other   |            | 0.251      |            |       | 11.72

Nlocal:        2776.45 ave        3960 max           0 min
Histogram: 8 4 4 0 4 12 8 4 26 34
Nghost:        3879.18 ave        5424 max         232 min
Histogram: 8 0 8 0 16 0 8 8 16 40
Neighs:        79213.5 ave      115361 max           0 min
Histogram: 8 4 4 0 10 6 8 8 24 32

Total # of neighbors = 8238208
Ave neighs/atom = 28.530492
Neighbor list builds = 0
Dangerous builds = 0
The dot product: 9.01294835119916e-10
Setting atom values ...
  1 settings made for x
  1 settings made for y
  1 settings made for z
Setting up cg style minimization ...
  Unit style    : metal
  Current step  : 4213
Per MPI rank memory allocation (min/avg/max) = 5.441 | 5.816 | 6.074 Mbytes
Step PotEng KinEng TotEng v_fx v_fy v_fz 
    4213   -1152449.4            0   -1152449.4 -0.021538426 -0.027242813 -0.014558887 
    4369   -1152449.4            0   -1152449.4 1.685504e-08 8.5409971e-06 3.1979592e-06 
Loop time of 1.83301 on 104 procs for 156 steps with 288751 atoms

99.9% CPU use with 104 MPI tasks x 1 OpenMP threads

Minimization stats:
  Stopping criterion = energy tolerance
  Energy initial, next-to-last, final = 
      -1152449.4065764  -1152449.40849292  -1152449.40849292
  Force two-norm initial, final = 0.20117574 0.00024412737
  Force max component initial, final = 0.10557535 1.5365652e-05
  Final line search alpha, max atom move = 1.0000000 1.5365652e-05
  Iterations, force evaluations = 156 312

MPI task timing breakdown:
Section |  min time  |  avg time  |  max time  |%varavg| %total
---------------------------------------------------------------
Pair    | 0.47397    | 1.3194     | 1.7297     |  31.0 | 71.98
Neigh   | 0          | 0          | 0          |   0.0 |  0.00
Comm    | 0.027048   | 0.29964    | 0.8857     |  45.1 | 16.35
Output  | 0          | 0          | 0          |   0.0 |  0.00
Modify  | 1.9254e-05 | 0.002578   | 0.0054713  |   2.4 |  0.14
Other   |            | 0.2114     |            |       | 11.53

Nlocal:        2776.45 ave        3960 max           0 min
Histogram: 8 4 4 0 4 12 8 4 26 34
Nghost:        3879.14 ave        5424 max         232 min
Histogram: 8 0 8 0 16 0 8 8 16 40
Neighs:        79213.6 ave      115361 max           0 min
Histogram: 8 4 4 0 10 6 8 8 24 32

Total # of neighbors = 8238211
Ave neighs/atom = 28.530502
Neighbor list builds = 0
Dangerous builds = 0
The dot product: -2.16597583942759e-08
Setting atom values ...
  1 settings made for x
  1 settings made for y
  1 settings made for z
Setting up cg style minimization ...
  Unit style    : metal
  Current step  : 4369
Per MPI rank memory allocation (min/avg/max) = 5.441 | 5.816 | 6.074 Mbytes
Step PotEng KinEng TotEng v_fx v_fy v_fz 
    4369   -1152449.4            0   -1152449.4 -0.023070607 -0.025262766 -0.014414487 
    4556   -1152449.4            0   -1152449.4 4.6765785e-06 1.0511827e-05 4.9744144e-06 
Loop time of 2.20154 on 104 procs for 187 steps with 288751 atoms

99.9% CPU use with 104 MPI tasks x 1 OpenMP threads

Minimization stats:
  Stopping criterion = energy tolerance
  Energy initial, next-to-last, final = 
     -1152449.39409343  -1152449.39599776  -1152449.39599776
  Force two-norm initial, final = 0.20067127 0.00011361538
  Force max component initial, final = 0.10789447 1.0511827e-05
  Final line search alpha, max atom move = 1.0000000 1.0511827e-05
  Iterations, force evaluations = 187 374

MPI task timing breakdown:
Section |  min time  |  avg time  |  max time  |%varavg| %total
---------------------------------------------------------------
Pair    | 0.57006    | 1.5795     | 2.0673     |  34.1 | 71.74
Neigh   | 0          | 0          | 0          |   0.0 |  0.00
Comm    | 0.034523   | 0.35564    | 1.0607     |  49.8 | 16.15
Output  | 0          | 0          | 0          |   0.0 |  0.00
Modify  | 2.2236e-05 | 0.0030943  | 0.0065514  |   2.6 |  0.14
Other   |            | 0.2633     |            |       | 11.96

Nlocal:        2776.45 ave        3960 max           0 min
Histogram: 8 4 4 0 4 12 8 4 26 34
Nghost:        3879.18 ave        5424 max         232 min
Histogram: 8 0 8 0 16 0 8 8 16 40
Neighs:        79213.6 ave      115360 max           0 min
Histogram: 8 4 4 0 10 6 8 8 24 32

Total # of neighbors = 8238211
Ave neighs/atom = 28.530502
Neighbor list builds = 0
Dangerous builds = 0
The dot product: -3.46974356220982e-08
Setting atom values ...
  1 settings made for x
  1 settings made for y
  1 settings made for z
Setting up cg style minimization ...
  Unit style    : metal
  Current step  : 4556
Per MPI rank memory allocation (min/avg/max) = 5.441 | 5.816 | 6.074 Mbytes
Step PotEng KinEng TotEng v_fx v_fy v_fz 
    4556   -1152449.4            0   -1152449.4 -0.024822643 -0.022759071 -0.014090081 
    4726   -1152449.4            0   -1152449.4 -8.1341237e-06 -1.3058905e-05 -6.7839297e-06 
Loop time of 1.99856 on 104 procs for 170 steps with 288751 atoms

99.9% CPU use with 104 MPI tasks x 1 OpenMP threads

Minimization stats:
  Stopping criterion = energy tolerance
  Energy initial, next-to-last, final = 
     -1152449.37966039   -1152449.3815525   -1152449.3815525
  Force two-norm initial, final = 0.20022481 0.00018061395
  Force max component initial, final = 0.11019178 1.3770829e-05
  Final line search alpha, max atom move = 1.0000000 1.3770829e-05
  Iterations, force evaluations = 170 340

MPI task timing breakdown:
Section |  min time  |  avg time  |  max time  |%varavg| %total
---------------------------------------------------------------
Pair    | 0.51562    | 1.4327     | 1.8724     |  32.3 | 71.69
Neigh   | 0          | 0          | 0          |   0.0 |  0.00
Comm    | 0.0312     | 0.32362    | 0.96101    |  47.0 | 16.19
Output  | 0          | 0          | 0          |   0.0 |  0.00
Modify  | 2.0423e-05 | 0.0028107  | 0.0059898  |   2.5 |  0.14
Other   |            | 0.2394     |            |       | 11.98

Nlocal:        2776.45 ave        3960 max           0 min
Histogram: 8 4 4 0 4 12 8 4 26 34
Nghost:        3879.15 ave        5424 max         232 min
Histogram: 8 0 8 0 16 0 8 8 16 40
Neighs:        79213.6 ave      115374 max           0 min
Histogram: 8 4 4 0 10 6 8 8 24 32

Total # of neighbors = 8238211
Ave neighs/atom = 28.530502
Neighbor list builds = 0
Dangerous builds = 0
The dot product: 4.68781260927933e-08
Setting atom values ...
  1 settings made for x
  1 settings made for y
  1 settings made for z
Setting up cg style minimization ...
  Unit style    : metal
  Current step  : 4726
Per MPI rank memory allocation (min/avg/max) = 5.441 | 5.816 | 6.074 Mbytes
Step PotEng KinEng TotEng v_fx v_fy v_fz 
    4726   -1152449.4            0   -1152449.4 -0.026831357 -0.019940573 -0.013677254 
    4883   -1152449.4            0   -1152449.4 -2.0348266e-05 -3.8059879e-05 -1.937055e-05 
Loop time of 1.83766 on 104 procs for 157 steps with 288751 atoms

99.9% CPU use with 104 MPI tasks x 1 OpenMP threads

Minimization stats:
  Stopping criterion = energy tolerance
  Energy initial, next-to-last, final = 
     -1152449.36330568  -1152449.36518407  -1152449.36518407
  Force two-norm initial, final = 0.19991548 0.00024419459
  Force max component initial, final = 0.11240001 4.8055757e-05
  Final line search alpha, max atom move = 1.0000000 4.8055757e-05
  Iterations, force evaluations = 157 314

MPI task timing breakdown:
Section |  min time  |  avg time  |  max time  |%varavg| %total
---------------------------------------------------------------
Pair    | 0.47633    | 1.3198     | 1.7262     |  31.1 | 71.82
Neigh   | 0          | 0          | 0          |   0.0 |  0.00
Comm    | 0.028373   | 0.29711    | 0.88486    |  45.4 | 16.17
Output  | 0          | 0          | 0          |   0.0 |  0.00
Modify  | 1.8678e-05 | 0.002595   | 0.0055237  |   2.4 |  0.14
Other   |            | 0.2182     |            |       | 11.87

Nlocal:        2776.45 ave        3959 max           0 min
Histogram: 8 4 4 0 4 12 8 4 26 34
Nghost:        3879.16 ave        5424 max         232 min
Histogram: 8 0 8 0 16 0 8 8 16 40
Neighs:        79213.6 ave      115348 max           0 min
Histogram: 8 4 4 0 10 6 8 8 24 32

Total # of neighbors = 8238210
Ave neighs/atom = 28.530499
Neighbor list builds = 0
Dangerous builds = 0
The dot product: 1.22292081191956e-07
Setting atom values ...
  1 settings made for x
  1 settings made for y
  1 settings made for z
Setting up cg style minimization ...
  Unit style    : metal
  Current step  : 4883
Per MPI rank memory allocation (min/avg/max) = 5.441 | 5.816 | 6.074 Mbytes
Step PotEng KinEng TotEng v_fx v_fy v_fz 
    4883   -1152449.3            0   -1152449.3 -0.028855381 -0.017982234 -0.013593837 
    5000   -1152449.3            0   -1152449.3 1.2370493e-05 5.9065343e-06 5.1125744e-06 
    5050   -1152449.3            0   -1152449.3 -9.0440309e-06 -1.2292678e-05 -6.9017499e-06 
Loop time of 1.97042 on 104 procs for 167 steps with 288751 atoms

99.9% CPU use with 104 MPI tasks x 1 OpenMP threads

Minimization stats:
  Stopping criterion = energy tolerance
  Energy initial, next-to-last, final = 
     -1152449.34506981   -1152449.3469267   -1152449.3469267
  Force two-norm initial, final = 0.19979348 0.00017840606
  Force max component initial, final = 0.11458616 1.8738857e-05
  Final line search alpha, max atom move = 1.0000000 1.8738857e-05
  Iterations, force evaluations = 167 334

MPI task timing breakdown:
Section |  min time  |  avg time  |  max time  |%varavg| %total
---------------------------------------------------------------
Pair    | 0.51173    | 1.4139     | 1.8457     |  32.1 | 71.75
Neigh   | 0          | 0          | 0          |   0.0 |  0.00
Comm    | 0.030127   | 0.31789    | 0.95568    |  47.0 | 16.13
Output  | 0.00018996 | 0.00019485 | 0.00034374 |   0.0 |  0.01
Modify  | 1.9714e-05 | 0.0027601  | 0.005878   |   2.5 |  0.14
Other   |            | 0.2357     |            |       | 11.96

Nlocal:        2776.45 ave        3959 max           0 min
Histogram: 8 4 4 0 4 12 8 4 26 34
Nghost:        3879.16 ave        5424 max         232 min
Histogram: 8 0 8 0 16 0 8 8 16 40
Neighs:        79213.6 ave      115357 max           0 min
Histogram: 8 4 4 0 10 6 8 8 24 32

Total # of neighbors = 8238214
Ave neighs/atom = 28.530512
Neighbor list builds = 0
Dangerous builds = 0
The dot product: 4.73235029553522e-08
Setting atom values ...
  1 settings made for x
  1 settings made for y
  1 settings made for z
Setting up cg style minimization ...
  Unit style    : metal
  Current step  : 5050
Per MPI rank memory allocation (min/avg/max) = 5.441 | 5.816 | 6.074 Mbytes
Step PotEng KinEng TotEng v_fx v_fy v_fz 
    5050   -1152449.3            0   -1152449.3 -0.032003742 -0.015275392 -0.013482881 
    5217   -1152449.3            0   -1152449.3 -1.5342369e-06 2.9141989e-08 -3.4109029e-07 
Loop time of 1.96216 on 104 procs for 167 steps with 288751 atoms

99.9% CPU use with 104 MPI tasks x 1 OpenMP threads

Minimization stats:
  Stopping criterion = energy tolerance
  Energy initial, next-to-last, final = 
     -1152449.32501483  -1152449.32684843  -1152449.32684843
  Force two-norm initial, final = 0.20003638 0.00017809899
  Force max component initial, final = 0.11676384 8.2668459e-06
  Final line search alpha, max atom move = 1.0000000 8.2668459e-06
  Iterations, force evaluations = 167 334

MPI task timing breakdown:
Section |  min time  |  avg time  |  max time  |%varavg| %total
---------------------------------------------------------------
Pair    | 0.50717    | 1.4071     | 1.8391     |  32.1 | 71.71
Neigh   | 0          | 0          | 0          |   0.0 |  0.00
Comm    | 0.029177   | 0.31887    | 0.96004    |  47.0 | 16.25
Output  | 0          | 0          | 0          |   0.0 |  0.00
Modify  | 2.0203e-05 | 0.0027634  | 0.0058989  |   2.5 |  0.14
Other   |            | 0.2334     |            |       | 11.89

Nlocal:        2776.45 ave        3959 max           0 min
Histogram: 8 4 4 0 4 12 8 6 24 34
Nghost:        3879.15 ave        5424 max         232 min
Histogram: 8 0 8 0 16 0 8 8 16 40
Neighs:        79213.6 ave      115357 max           0 min
Histogram: 8 4 4 0 10 6 8 8 24 32

Total # of neighbors = 8238215
Ave neighs/atom = 28.530516
Neighbor list builds = 0
Dangerous builds = 0
The dot product: 5.79704341582479e-09
Setting atom values ...
  1 settings made for x
  1 settings made for y
  1 settings made for z
Setting up cg style minimization ...
  Unit style    : metal
  Current step  : 5217
Per MPI rank memory allocation (min/avg/max) = 5.441 | 5.816 | 6.074 Mbytes
Step PotEng KinEng TotEng v_fx v_fy v_fz 
    5217   -1152449.3            0   -1152449.3 -0.037890983 -0.010023656 -0.013071501 
    5400   -1152449.3            0   -1152449.3 2.4230824e-05 3.9385864e-05 2.1675465e-05 
Loop time of 2.18267 on 104 procs for 183 steps with 288751 atoms

99.9% CPU use with 104 MPI tasks x 1 OpenMP threads

Minimization stats:
  Stopping criterion = energy tolerance
  Energy initial, next-to-last, final = 
     -1152449.30324103  -1152449.30654049  -1152449.30654049
  Force two-norm initial, final = 0.20120989 0.00024013492
  Force max component initial, final = 0.11896651 5.5106308e-05
  Final line search alpha, max atom move = 1.0000000 5.5106308e-05
  Iterations, force evaluations = 183 366

MPI task timing breakdown:
Section |  min time  |  avg time  |  max time  |%varavg| %total
---------------------------------------------------------------
Pair    | 0.55675    | 1.5534     | 2.0284     |  33.6 | 71.17
Neigh   | 0          | 0          | 0          |   0.0 |  0.00
Comm    | 0.033893   | 0.35244    | 1.0485     |  49.5 | 16.15
Output  | 0          | 0          | 0          |   0.0 |  0.00
Modify  | 2.1671e-05 | 0.0030282  | 0.0064342  |   2.6 |  0.14
Other   |            | 0.2738     |            |       | 12.54

Nlocal:        2776.45 ave        3958 max           0 min
Histogram: 8 4 4 0 4 12 8 6 24 34
Nghost:        3879.06 ave        5424 max         232 min
Histogram: 8 0 8 0 16 0 8 8 16 40
Neighs:        79213.6 ave      115330 max           0 min
Histogram: 8 4 4 0 10 6 8 8 24 32

Total # of neighbors = 8238218
Ave neighs/atom = 28.530526
Neighbor list builds = 0
Dangerous builds = 0
The dot product: 5.59791134412036e-07
Setting atom values ...
  1 settings made for x
  1 settings made for y
  1 settings made for z
Setting up cg style minimization ...
  Unit style    : metal
  Current step  : 5400
Per MPI rank memory allocation (min/avg/max) = 5.441 | 5.816 | 6.074 Mbytes
Step PotEng KinEng TotEng v_fx v_fy v_fz 
    5400   -1152449.3            0   -1152449.3  -0.16222737   0.12402626 -0.022884955 
    5668   -1152449.3            0   -1152449.3 1.1584211e-05 1.1757608e-05 7.7233493e-06 
Loop time of 3.13268 on 104 procs for 268 steps with 288751 atoms

99.9% CPU use with 104 MPI tasks x 1 OpenMP threads

Minimization stats:
  Stopping criterion = energy tolerance
  Energy initial, next-to-last, final = 
     -1152449.28503637  -1152449.33958485  -1152449.33958485
  Force two-norm initial, final = 0.28157175 5.4027135e-05
  Force max component initial, final = 0.16222737 1.3314780e-05
  Final line search alpha, max atom move = 1.0000000 1.3314780e-05
  Iterations, force evaluations = 268 536

MPI task timing breakdown:
Section |  min time  |  avg time  |  max time  |%varavg| %total
---------------------------------------------------------------
Pair    | 0.81886    | 2.2515     | 2.9423     |  40.4 | 71.87
Neigh   | 2.0238e-05 | 0.0058746  | 0.008582   |   3.2 |  0.19
Comm    | 0.048153   | 0.50861    | 1.5223     |  59.3 | 16.24
Output  | 0          | 0          | 0          |   0.0 |  0.00
Modify  | 3.0962e-05 | 0.0044286  | 0.0094332  |   3.1 |  0.14
Other   |            | 0.3623     |            |       | 11.56

Nlocal:        2776.45 ave        3958 max           0 min
Histogram: 8 4 4 0 4 12 8 5 25 34
Nghost:        3879.15 ave        5424 max         232 min
Histogram: 8 0 8 0 16 0 8 8 16 40
Neighs:        79213.5 ave      115330 max           0 min
Histogram: 8 4 4 0 10 6 8 8 24 32

Total # of neighbors = 8238200
Ave neighs/atom = 28.530464
Neighbor list builds = 2
Dangerous builds = 0
The dot product: 2.82477191608089e-07
Setting atom values ...
  1 settings made for x
  1 settings made for y
  1 settings made for z
Setting up cg style minimization ...
  Unit style    : metal
  Current step  : 5668
Per MPI rank memory allocation (min/avg/max) = 5.441 | 5.816 | 6.074 Mbytes
Step PotEng KinEng TotEng v_fx v_fy v_fz 
    5668   -1152449.3            0   -1152449.3 -0.074582256   0.08802593  -0.06195107 
    5801   -1152449.3            0   -1152449.3 6.4661412e-05 6.0131449e-06 4.5731403e-05 
Loop time of 1.5838 on 104 procs for 133 steps with 288751 atoms

99.9% CPU use with 104 MPI tasks x 1 OpenMP threads

Minimization stats:
  Stopping criterion = energy tolerance
  Energy initial, next-to-last, final = 
     -1152449.33459276  -1152449.33659833  -1152449.33659833
  Force two-norm initial, final = 0.19516276 0.0002476662
  Force max component initial, final = 0.08802593 6.4661412e-05
  Final line search alpha, max atom move = 1.0000000 6.4661412e-05
  Iterations, force evaluations = 133 266

MPI task timing breakdown:
Section |  min time  |  avg time  |  max time  |%varavg| %total
---------------------------------------------------------------
Pair    | 0.40439    | 1.1254     | 1.4899     |  28.7 | 71.05
Neigh   | 0          | 0          | 0          |   0.0 |  0.00
Comm    | 0.025849   | 0.2597     | 0.75979    |  41.1 | 16.40
Output  | 0          | 0          | 0          |   0.0 |  0.00
Modify  | 1.5941e-05 | 0.0022005  | 0.0046582  |   2.2 |  0.14
Other   |            | 0.1965     |            |       | 12.41

Nlocal:        2776.45 ave        3960 max           0 min
Histogram: 8 4 4 0 4 12 8 4 26 34
Nghost:        3879.20 ave        5424 max         232 min
Histogram: 8 0 8 0 16 0 8 8 16 40
Neighs:        79213.4 ave      115353 max           0 min
Histogram: 8 4 4 0 10 6 8 8 24 32

Total # of neighbors = 8238189
Ave neighs/atom = 28.530426
Neighbor list builds = 0
Dangerous builds = 0
The dot product: -8.28030005576487e-07
Setting atom values ...
  1 settings made for x
  1 settings made for y
  1 settings made for z
Setting up cg style minimization ...
  Unit style    : metal
  Current step  : 5801
Per MPI rank memory allocation (min/avg/max) = 5.441 | 5.816 | 6.074 Mbytes
Step PotEng KinEng TotEng v_fx v_fy v_fz 
    5801   -1152449.3            0   -1152449.3 -0.042314559  0.035313664 -0.036005987 
    5954   -1152449.3            0   -1152449.3 6.9659333e-05 2.3199313e-05 4.888674e-05 
Loop time of 1.7946 on 104 procs for 153 steps with 288751 atoms

99.9% CPU use with 104 MPI tasks x 1 OpenMP threads

Minimization stats:
  Stopping criterion = energy tolerance
  Energy initial, next-to-last, final = 
     -1152449.33041948  -1152449.33159317  -1152449.33159317
  Force two-norm initial, final = 0.15574316 0.00027692465
  Force max component initial, final = 0.061851426 6.9659333e-05
  Final line search alpha, max atom move = 1.0000000 6.9659333e-05
  Iterations, force evaluations = 153 306

MPI task timing breakdown:
Section |  min time  |  avg time  |  max time  |%varavg| %total
---------------------------------------------------------------
Pair    | 0.46468    | 1.2899     | 1.6916     |  30.8 | 71.88
Neigh   | 0          | 0          | 0          |   0.0 |  0.00
Comm    | 0.028004   | 0.29142    | 0.86946    |  45.0 | 16.24
Output  | 0          | 0          | 0          |   0.0 |  0.00
Modify  | 1.8139e-05 | 0.0025295  | 0.0053785  |   2.4 |  0.14
Other   |            | 0.2107     |            |       | 11.74

Nlocal:        2776.45 ave        3960 max           0 min
Histogram: 8 4 4 0 4 12 8 4 26 34
Nghost:        3879.20 ave        5424 max         232 min
Histogram: 8 0 8 0 16 0 8 8 16 40
Neighs:        79213.3 ave      115353 max           0 min
Histogram: 8 4 4 0 10 6 8 8 24 32

Total # of neighbors = 8238187
Ave neighs/atom = 28.530419
Neighbor list builds = 0
Dangerous builds = 0
The dot product: -2.09361650466634e-07
Setting atom values ...
  1 settings made for x
  1 settings made for y
  1 settings made for z
Setting up cg style minimization ...
  Unit style    : metal
  Current step  : 5954
Per MPI rank memory allocation (min/avg/max) = 5.441 | 5.816 | 6.074 Mbytes
Step PotEng KinEng TotEng v_fx v_fy v_fz 
    5954   -1152449.3            0   -1152449.3 -0.039354233  0.031514622 -0.033850559 
    6000   -1152449.3            0   -1152449.3 -4.2572443e-05 0.00016205338 -5.3839779e-05 
    6123   -1152449.3            0   -1152449.3 -1.194941e-06 1.0937738e-05 -2.3710499e-06 
Loop time of 1.99023 on 104 procs for 169 steps with 288751 atoms

99.9% CPU use with 104 MPI tasks x 1 OpenMP threads

Minimization stats:
  Stopping criterion = energy tolerance
  Energy initial, next-to-last, final = 
     -1152449.32397171  -1152449.32509802  -1152449.32509802
  Force two-norm initial, final = 0.1521121 0.00017311882
  Force max component initial, final = 0.059934777 3.9019076e-05
  Final line search alpha, max atom move = 1.0000000 3.9019076e-05
  Iterations, force evaluations = 169 338

MPI task timing breakdown:
Section |  min time  |  avg time  |  max time  |%varavg| %total
---------------------------------------------------------------
Pair    | 0.5104     | 1.4316     | 1.8692     |  32.4 | 71.93
Neigh   | 0          | 0          | 0          |   0.0 |  0.00
Comm    | 0.030954   | 0.32204    | 0.9751     |  47.2 | 16.18
Output  | 0.00023523 | 0.0002424  | 0.00035978 |   0.0 |  0.01
Modify  | 2.1654e-05 | 0.002794   | 0.005953   |   2.5 |  0.14
Other   |            | 0.2335     |            |       | 11.73

Nlocal:        2776.45 ave        3960 max           0 min
Histogram: 8 4 4 0 4 12 8 4 26 34
Nghost:        3879.18 ave        5426 max         232 min
Histogram: 8 0 8 0 16 0 8 8 16 40
Neighs:        79213.3 ave      115356 max           0 min
Histogram: 8 4 4 0 10 6 8 8 24 32

Total # of neighbors = 8238188
Ave neighs/atom = 28.530422
Neighbor list builds = 0
Dangerous builds = 0
The dot product: 3.37115602854846e-08
Setting atom values ...
  1 settings made for x
  1 settings made for y
  1 settings made for z
Setting up cg style minimization ...
  Unit style    : metal
  Current step  : 6123
Per MPI rank memory allocation (min/avg/max) = 5.441 | 5.816 | 6.074 Mbytes
Step PotEng KinEng TotEng v_fx v_fy v_fz 
    6123   -1152449.3            0   -1152449.3 -0.038439212  0.030682949 -0.033455032 
    6320   -1152449.3            0   -1152449.3 7.9245708e-06 -4.8721948e-06 6.6941174e-06 
Loop time of 2.30144 on 104 procs for 197 steps with 288751 atoms

99.9% CPU use with 104 MPI tasks x 1 OpenMP threads

Minimization stats:
  Stopping criterion = energy tolerance
  Energy initial, next-to-last, final = 
     -1152449.31600052  -1152449.31710517  -1152449.31710517
  Force two-norm initial, final = 0.15047445 8.0842746e-05
  Force max component initial, final = 0.058016614 1.6157573e-05
  Final line search alpha, max atom move = 1.0000000 1.6157573e-05
  Iterations, force evaluations = 197 394

MPI task timing breakdown:
Section |  min time  |  avg time  |  max time  |%varavg| %total
---------------------------------------------------------------
Pair    | 0.59857    | 1.657      | 2.1713     |  34.8 | 72.00
Neigh   | 0          | 0          | 0          |   0.0 |  0.00
Comm    | 0.036333   | 0.37171    | 1.1129     |  51.2 | 16.15
Output  | 0          | 0          | 0          |   0.0 |  0.00
Modify  | 2.3349e-05 | 0.0032533  | 0.006911   |   2.7 |  0.14
Other   |            | 0.2695     |            |       | 11.71

Nlocal:        2776.45 ave        3960 max           0 min
Histogram: 8 4 4 0 4 12 8 4 26 34
Nghost:        3879.16 ave        5427 max         232 min
Histogram: 8 0 8 0 16 0 8 8 16 40
Neighs:        79213.4 ave      115361 max           0 min
Histogram: 8 4 4 0 10 6 8 8 24 32

Total # of neighbors = 8238189
Ave neighs/atom = 28.530426
Neighbor list builds = 0
Dangerous builds = 0
The dot product: -3.93855344094886e-08
Setting atom values ...
  1 settings made for x
  1 settings made for y
  1 settings made for z
Setting up cg style minimization ...
  Unit style    : metal
  Current step  : 6320
Per MPI rank memory allocation (min/avg/max) = 5.441 | 5.816 | 6.074 Mbytes
Step PotEng KinEng TotEng v_fx v_fy v_fz 
    6320   -1152449.3            0   -1152449.3 -0.037739092   0.02960021 -0.033143539 
    6526   -1152449.3            0   -1152449.3 1.6543416e-05 4.6168532e-06 1.1990791e-05 
Loop time of 2.44546 on 104 procs for 206 steps with 288751 atoms

99.9% CPU use with 104 MPI tasks x 1 OpenMP threads

Minimization stats:
  Stopping criterion = energy tolerance
  Energy initial, next-to-last, final = 
     -1152449.30650592  -1152449.30759478  -1152449.30759478
  Force two-norm initial, final = 0.1490604 5.9216849e-05
  Force max component initial, final = 0.056030007 1.6543416e-05
  Final line search alpha, max atom move = 1.0000000 1.6543416e-05
  Iterations, force evaluations = 206 412

MPI task timing breakdown:
Section |  min time  |  avg time  |  max time  |%varavg| %total
---------------------------------------------------------------
Pair    | 0.62477    | 1.7382     | 2.2773     |  35.6 | 71.08
Neigh   | 0          | 0          | 0          |   0.0 |  0.00
Comm    | 0.038003   | 0.39368    | 1.1656     |  51.7 | 16.10
Output  | 0          | 0          | 0          |   0.0 |  0.00
Modify  | 2.4315e-05 | 0.0033974  | 0.0072323  |   2.7 |  0.14
Other   |            | 0.3101     |            |       | 12.68

Nlocal:        2776.45 ave        3960 max           0 min
Histogram: 8 4 4 0 4 12 8 4 26 34
Nghost:        3879.16 ave        5425 max         232 min
Histogram: 8 0 8 0 16 0 8 8 16 40
Neighs:        79213.4 ave      115361 max           0 min
Histogram: 8 4 4 0 10 6 8 8 24 32

Total # of neighbors = 8238189
Ave neighs/atom = 28.530426
Neighbor list builds = 0
Dangerous builds = 0
The dot product: -4.45266831667686e-08
Setting atom values ...
  1 settings made for x
  1 settings made for y
  1 settings made for z
Setting up cg style minimization ...
  Unit style    : metal
  Current step  : 6526
Per MPI rank memory allocation (min/avg/max) = 5.441 | 5.816 | 6.074 Mbytes
Step PotEng KinEng TotEng v_fx v_fy v_fz 
    6526   -1152449.3            0   -1152449.3 -0.037233324  0.028140295  -0.03288941 
    6702   -1152449.3            0   -1152449.3 -4.0584269e-05 8.753187e-06 -3.2592783e-05 
Loop time of 2.05941 on 104 procs for 176 steps with 288751 atoms

99.9% CPU use with 104 MPI tasks x 1 OpenMP threads

Minimization stats:
  Stopping criterion = energy tolerance
  Energy initial, next-to-last, final = 
     -1152449.29546645  -1152449.29654219  -1152449.29654219
  Force two-norm initial, final = 0.14788873 0.0001696472
  Force max component initial, final = 0.055631423 4.0584269e-05
  Final line search alpha, max atom move = 1.0000000 4.0584269e-05
  Iterations, force evaluations = 176 352

MPI task timing breakdown:
Section |  min time  |  avg time  |  max time  |%varavg| %total
---------------------------------------------------------------
Pair    | 0.53369    | 1.4773     | 1.9379     |  32.8 | 71.74
Neigh   | 0          | 0          | 0          |   0.0 |  0.00
Comm    | 0.036519   | 0.33211    | 0.99061    |  48.0 | 16.13
Output  | 0          | 0          | 0          |   0.0 |  0.00
Modify  | 2.0873e-05 | 0.0029108  | 0.0062042  |   2.5 |  0.14
Other   |            | 0.2471     |            |       | 12.00

Nlocal:        2776.45 ave        3960 max           0 min
Histogram: 8 4 4 0 4 12 8 4 26 34
Nghost:        3879.16 ave        5425 max         232 min
Histogram: 8 0 8 0 16 0 8 8 16 40
Neighs:        79213.4 ave      115361 max           0 min
Histogram: 8 4 4 0 10 6 8 8 24 32

Total # of neighbors = 8238189
Ave neighs/atom = 28.530426
Neighbor list builds = 0
Dangerous builds = 0
The dot product: 1.55792873502646e-07
Setting atom values ...
  1 settings made for x
  1 settings made for y
  1 settings made for z
Setting up cg style minimization ...
  Unit style    : metal
  Current step  : 6702
Per MPI rank memory allocation (min/avg/max) = 5.441 | 5.816 | 6.074 Mbytes
Step PotEng KinEng TotEng v_fx v_fy v_fz 
    6702   -1152449.3            0   -1152449.3 -0.037038982  0.026332516 -0.032789168 
    6895   -1152449.3            0   -1152449.3 3.2380359e-06 3.4748388e-06 1.9855585e-06 
Loop time of 2.29462 on 104 procs for 193 steps with 288751 atoms

99.9% CPU use with 104 MPI tasks x 1 OpenMP threads

Minimization stats:
  Stopping criterion = energy tolerance
  Energy initial, next-to-last, final = 
     -1152449.28285871  -1152449.28392343  -1152449.28392343
  Force two-norm initial, final = 0.14700488 0.00010188358
  Force max component initial, final = 0.055597457 8.0360686e-06
  Final line search alpha, max atom move = 1.0000000 8.0360686e-06
  Iterations, force evaluations = 193 386

MPI task timing breakdown:
Section |  min time  |  avg time  |  max time  |%varavg| %total
---------------------------------------------------------------
Pair    | 0.58928    | 1.6362     | 2.152      |  34.7 | 71.31
Neigh   | 0          | 0          | 0          |   0.0 |  0.00
Comm    | 0.037578   | 0.37275    | 1.103      |  49.9 | 16.24
Output  | 0          | 0          | 0          |   0.0 |  0.00
Modify  | 2.2223e-05 | 0.003191   | 0.0067982  |   2.6 |  0.14
Other   |            | 0.2825     |            |       | 12.31

Nlocal:        2776.45 ave        3960 max           0 min
Histogram: 8 4 4 0 4 12 8 4 26 34
Nghost:        3879.14 ave        5424 max         232 min
Histogram: 8 0 8 0 16 0 8 8 16 40
Neighs:        79213.3 ave      115361 max           0 min
Histogram: 8 4 4 0 10 6 8 8 24 32

Total # of neighbors = 8238188
Ave neighs/atom = 28.530422
Neighbor list builds = 0
Dangerous builds = 0
The dot product: -3.53838253027984e-09
Setting atom values ...
  1 settings made for x
  1 settings made for y
  1 settings made for z
Setting up cg style minimization ...
  Unit style    : metal
  Current step  : 6895
Per MPI rank memory allocation (min/avg/max) = 5.441 | 5.816 | 6.074 Mbytes
Step PotEng KinEng TotEng v_fx v_fy v_fz 
    6895   -1152449.3            0   -1152449.3 -0.037072134  0.024252955 -0.032792271 
    7000   -1152449.3            0   -1152449.3 -0.00022104816 -0.00027217706 -0.00013049969 
    7112   -1152449.3            0   -1152449.3 -2.767148e-06 -6.6415338e-06 -1.1289999e-06 
Loop time of 2.53316 on 104 procs for 217 steps with 288751 atoms

99.9% CPU use with 104 MPI tasks x 1 OpenMP threads

Minimization stats:
  Stopping criterion = energy tolerance
  Energy initial, next-to-last, final = 
     -1152449.26866531  -1152449.26971916  -1152449.26971916
  Force two-norm initial, final = 0.14624204 3.5125641e-05
  Force max component initial, final = 0.055526916 6.6415338e-06
  Final line search alpha, max atom move = 1.0000000 6.6415338e-06
  Iterations, force evaluations = 217 434

MPI task timing breakdown:
Section |  min time  |  avg time  |  max time  |%varavg| %total
---------------------------------------------------------------
Pair    | 0.65674    | 1.8233     | 2.3838     |  36.4 | 71.98
Neigh   | 0          | 0          | 0          |   0.0 |  0.00
Comm    | 0.037583   | 0.41253    | 1.2401     |  53.6 | 16.29
Output  | 0.00015373 | 0.00016511 | 0.00031547 |   0.0 |  0.01
Modify  | 2.534e-05  | 0.0035843  | 0.0076269  |   2.8 |  0.14
Other   |            | 0.2936     |            |       | 11.59

Nlocal:        2776.45 ave        3960 max           0 min
Histogram: 8 4 4 0 4 12 8 4 26 34
Nghost:        3879.11 ave        5424 max         232 min
Histogram: 8 0 8 0 16 0 8 8 16 40
Neighs:        79213.4 ave      115359 max           0 min
Histogram: 8 4 4 0 10 6 8 8 24 32

Total # of neighbors = 8238190
Ave neighs/atom = 28.530429
Neighbor list builds = 0
Dangerous builds = 0
The dot product: -3.29354309542113e-09
Setting atom values ...
  1 settings made for x
  1 settings made for y
  1 settings made for z
Setting up cg style minimization ...
  Unit style    : metal
  Current step  : 7112
Per MPI rank memory allocation (min/avg/max) = 5.441 | 5.816 | 6.074 Mbytes
Step PotEng KinEng TotEng v_fx v_fy v_fz 
    7112   -1152449.3            0   -1152449.3 -0.037535059  0.022094916 -0.033096401 
    7299   -1152449.3            0   -1152449.3 -2.0137151e-06 1.2527345e-05 -3.5808381e-06 
Loop time of 2.22741 on 104 procs for 187 steps with 288751 atoms

99.9% CPU use with 104 MPI tasks x 1 OpenMP threads

Minimization stats:
  Stopping criterion = energy tolerance
  Energy initial, next-to-last, final = 
     -1152449.25287311  -1152449.25391529  -1152449.25391529
  Force two-norm initial, final = 0.14578934 0.00013122795
  Force max component initial, final = 0.055482661 1.7653614e-05
  Final line search alpha, max atom move = 1.0000000 1.7653614e-05
  Iterations, force evaluations = 187 374

MPI task timing breakdown:
Section |  min time  |  avg time  |  max time  |%varavg| %total
---------------------------------------------------------------
Pair    | 0.57207    | 1.5942     | 2.0923     |  34.2 | 71.57
Neigh   | 0          | 0          | 0          |   0.0 |  0.00
Comm    | 0.034044   | 0.36221    | 1.0861     |  49.5 | 16.26
Output  | 0          | 0          | 0          |   0.0 |  0.00
Modify  | 2.2326e-05 | 0.0030962  | 0.0065712  |   2.6 |  0.14
Other   |            | 0.2679     |            |       | 12.03

Nlocal:        2776.45 ave        3960 max           0 min
Histogram: 8 4 4 0 4 12 8 4 26 34
Nghost:        3879.11 ave        5424 max         232 min
Histogram: 8 0 8 0 16 0 8 8 16 40
Neighs:        79213.4 ave      115367 max           0 min
Histogram: 8 4 4 0 10 6 8 8 24 32

Total # of neighbors = 8238189
Ave neighs/atom = 28.530426
Neighbor list builds = 0
Dangerous builds = 0
The dot product: 2.90440254882361e-08
Setting atom values ...
  1 settings made for x
  1 settings made for y
  1 settings made for z
Setting up cg style minimization ...
  Unit style    : metal
  Current step  : 7299
Per MPI rank memory allocation (min/avg/max) = 5.441 | 5.816 | 6.074 Mbytes
Step PotEng KinEng TotEng v_fx v_fy v_fz 
    7299   -1152449.2            0   -1152449.2 -0.038581146   0.02003426 -0.033865469 
    7508   -1152449.2            0   -1152449.2 7.8711067e-06 -7.0967879e-06 7.3966195e-06 
Loop time of 2.46017 on 104 procs for 209 steps with 288751 atoms

99.9% CPU use with 104 MPI tasks x 1 OpenMP threads

Minimization stats:
  Stopping criterion = energy tolerance
  Energy initial, next-to-last, final = 
     -1152449.23547369  -1152449.23650184  -1152449.23650184
  Force two-norm initial, final = 0.14568272 6.8114037e-05
  Force max component initial, final = 0.055455757 1.7217171e-05
  Final line search alpha, max atom move = 1.0000000 1.7217171e-05
  Iterations, force evaluations = 209 418

MPI task timing breakdown:
Section |  min time  |  avg time  |  max time  |%varavg| %total
---------------------------------------------------------------
Pair    | 0.63495    | 1.7589     | 2.3138     |  35.8 | 71.50
Neigh   | 0          | 0          | 0          |   0.0 |  0.00
Comm    | 0.036636   | 0.39939    | 1.1845     |  52.3 | 16.23
Output  | 0          | 0          | 0          |   0.0 |  0.00
Modify  | 2.4711e-05 | 0.0034519  | 0.0073258  |   2.8 |  0.14
Other   |            | 0.2984     |            |       | 12.13

Nlocal:        2776.45 ave        3960 max           0 min
Histogram: 8 4 4 0 4 12 8 4 26 34
Nghost:        3879.14 ave        5424 max         232 min
Histogram: 8 0 8 0 16 0 8 8 16 40
Neighs:        79213.3 ave      115374 max           0 min
Histogram: 8 4 4 0 10 6 8 8 24 32

Total # of neighbors = 8238188
Ave neighs/atom = 28.530422
Neighbor list builds = 0
Dangerous builds = 0
The dot product: -4.03526467734512e-08
Setting atom values ...
  1 settings made for x
  1 settings made for y
  1 settings made for z
Setting up cg style minimization ...
  Unit style    : metal
  Current step  : 7508
Per MPI rank memory allocation (min/avg/max) = 5.441 | 5.816 | 6.074 Mbytes
Step PotEng KinEng TotEng v_fx v_fy v_fz 
    7508   -1152449.2            0   -1152449.2 -0.040497554  0.018118085 -0.035355552 
    7708   -1152449.2            0   -1152449.2 -1.1470844e-05 3.3187423e-06 -9.7158391e-06 
Loop time of 2.34287 on 104 procs for 200 steps with 288751 atoms

99.9% CPU use with 104 MPI tasks x 1 OpenMP threads

Minimization stats:
  Stopping criterion = energy tolerance
  Energy initial, next-to-last, final = 
     -1152449.21647137  -1152449.21748423  -1152449.21748423
  Force two-norm initial, final = 0.14604305 9.9645032e-05
  Force max component initial, final = 0.055406659 1.4214684e-05
  Final line search alpha, max atom move = 1.0000000 1.4214684e-05
  Iterations, force evaluations = 200 400

MPI task timing breakdown:
Section |  min time  |  avg time  |  max time  |%varavg| %total
---------------------------------------------------------------
Pair    | 0.60646    | 1.686      | 2.2089     |  35.1 | 71.96
Neigh   | 0          | 0          | 0          |   0.0 |  0.00
Comm    | 0.035152   | 0.38112    | 1.136      |  51.3 | 16.27
Output  | 0          | 0          | 0          |   0.0 |  0.00
Modify  | 2.3688e-05 | 0.0033016  | 0.0070274  |   2.7 |  0.14
Other   |            | 0.2725     |            |       | 11.63

Nlocal:        2776.45 ave        3960 max           0 min
Histogram: 8 4 4 0 4 12 8 4 26 34
Nghost:        3879.16 ave        5424 max         232 min
Histogram: 8 0 8 0 16 0 8 8 16 40
Neighs:        79213.4 ave      115374 max           0 min
Histogram: 8 4 4 0 10 6 8 8 24 32

Total # of neighbors = 8238189
Ave neighs/atom = 28.530426
Neighbor list builds = 0
Dangerous builds = 0
The dot product: 5.14886835402207e-08
Setting atom values ...
  1 settings made for x
  1 settings made for y
  1 settings made for z
Setting up cg style minimization ...
  Unit style    : metal
  Current step  : 7708
Per MPI rank memory allocation (min/avg/max) = 5.441 | 5.816 | 6.074 Mbytes
Step PotEng KinEng TotEng v_fx v_fy v_fz 
    7708   -1152449.2            0   -1152449.2 -0.043720391  0.016633548 -0.038001108 
    7973   -1152449.2            0   -1152449.2 1.0559711e-06 -1.7868692e-07 8.8054619e-07 
Loop time of 3.10525 on 104 procs for 265 steps with 288751 atoms

99.9% CPU use with 104 MPI tasks x 1 OpenMP threads

Minimization stats:
  Stopping criterion = energy tolerance
  Energy initial, next-to-last, final = 
      -1152449.1958966  -1152449.19689631  -1152449.19689631
  Force two-norm initial, final = 0.14724236 5.4947287e-06
  Force max component initial, final = 0.055320927 1.4873443e-06
  Final line search alpha, max atom move = 1.0000000 1.4873443e-06
  Iterations, force evaluations = 265 530

MPI task timing breakdown:
Section |  min time  |  avg time  |  max time  |%varavg| %total
---------------------------------------------------------------
Pair    | 0.80339    | 2.2303     | 2.9242     |  40.4 | 71.82
Neigh   | 0          | 0          | 0          |   0.0 |  0.00
Comm    | 0.048355   | 0.5023     | 1.5046     |  59.3 | 16.18
Output  | 0          | 0          | 0          |   0.0 |  0.00
Modify  | 3.1597e-05 | 0.0043761  | 0.0093023  |   3.1 |  0.14
Other   |            | 0.3683     |            |       | 11.86

Nlocal:        2776.45 ave        3960 max           0 min
Histogram: 8 4 4 0 4 12 8 4 26 34
Nghost:        3879.15 ave        5424 max         232 min
Histogram: 8 0 8 0 16 0 8 8 16 40
Neighs:        79213.4 ave      115383 max           0 min
Histogram: 8 4 4 0 10 6 8 8 24 32

Total # of neighbors = 8238191
Ave neighs/atom = 28.530433
Neighbor list builds = 0
Dangerous builds = 0
The dot product: -5.41326624571709e-09
Setting atom values ...
  1 settings made for x
  1 settings made for y
  1 settings made for z
Setting up cg style minimization ...
  Unit style    : metal
  Current step  : 7973
Per MPI rank memory allocation (min/avg/max) = 5.441 | 5.816 | 6.074 Mbytes
Step PotEng KinEng TotEng v_fx v_fy v_fz 
    7973   -1152449.2            0   -1152449.2  -0.04878303   0.01594438 -0.042363272 
    8000   -1152449.2            0   -1152449.2 9.7759985e-05 -0.00010358444 9.7051098e-05 
    8222   -1152449.2            0   -1152449.2 1.938335e-06 -4.6482873e-07 1.6546245e-06 
Loop time of 2.91716 on 104 procs for 249 steps with 288751 atoms

99.9% CPU use with 104 MPI tasks x 1 OpenMP threads

Minimization stats:
  Stopping criterion = energy tolerance
  Energy initial, next-to-last, final = 
     -1152449.17382954  -1152449.17483232  -1152449.17483232
  Force two-norm initial, final = 0.14988187 1.2665755e-05
  Force max component initial, final = 0.056311607 3.0576637e-06
  Final line search alpha, max atom move = 1.0000000 3.0576637e-06
  Iterations, force evaluations = 249 498

MPI task timing breakdown:
Section |  min time  |  avg time  |  max time  |%varavg| %total
---------------------------------------------------------------
Pair    | 0.75281    | 2.1028     | 2.7516     |  39.2 | 72.08
Neigh   | 0          | 0          | 0          |   0.0 |  0.00
Comm    | 0.045518   | 0.47298    | 1.4234     |  57.3 | 16.21
Output  | 0.00016714 | 0.00017285 | 0.00026996 |   0.0 |  0.01
Modify  | 2.9109e-05 | 0.0041114  | 0.0087387  |   3.0 |  0.14
Other   |            | 0.3371     |            |       | 11.56

Nlocal:        2776.45 ave        3960 max           0 min
Histogram: 8 4 4 0 4 12 8 4 26 34
Nghost:        3879.14 ave        5424 max         232 min
Histogram: 8 0 8 0 16 0 8 8 16 40
Neighs:        79213.4 ave      115383 max           0 min
Histogram: 8 4 4 0 10 6 8 8 24 32

Total # of neighbors = 8238194
Ave neighs/atom = 28.530443
Neighbor list builds = 0
Dangerous builds = 0
The dot product: -1.40933071120976e-08
Setting atom values ...
  1 settings made for x
  1 settings made for y
  1 settings made for z
Setting up cg style minimization ...
  Unit style    : metal
  Current step  : 8222
Per MPI rank memory allocation (min/avg/max) = 5.441 | 5.816 | 6.074 Mbytes
Step PotEng KinEng TotEng v_fx v_fy v_fz 
    8222   -1152449.2            0   -1152449.2 -0.058002724  0.016340015 -0.050561479 
[...]
Histogram: 8 0 8 0 16 0 8 8 16 40
Neighs:        79213.4 ave      115433 max           0 min
Histogram: 8 4 4 0 10 6 8 8 24 32

Total # of neighbors = 8238196
Ave neighs/atom = 28.530450
Neighbor list builds = 0
Dangerous builds = 0
The dot product: 1.22747160375843e-07
Setting atom values ...
  1 settings made for x
  1 settings made for y
  1 settings made for z
Setting up cg style minimization ...
  Unit style    : metal
  Current step  : 28965
Per MPI rank memory allocation (min/avg/max) = 5.441 | 5.816 | 6.074 Mbytes
Step PotEng KinEng TotEng v_fx v_fy v_fz 
   28965   -1152449.4            0   -1152449.4 -0.028083494  0.014228033 -0.033905631 
   29000   -1152449.4            0   -1152449.4 0.00026574955 -0.00017687244 0.00031877182 
   29142   -1152449.4            0   -1152449.4 -6.2649734e-06 2.3220613e-05 -6.580486e-06 
Loop time of 2.07331 on 104 procs for 177 steps with 288751 atoms

99.9% CPU use with 104 MPI tasks x 1 OpenMP threads

Minimization stats:
  Stopping criterion = energy tolerance
  Energy initial, next-to-last, final = 
     -1152449.40854739  -1152449.41002163  -1152449.41002163
  Force two-norm initial, final = 0.17741105 0.00014494439
  Force max component initial, final = 0.082347377 2.3220613e-05
  Final line search alpha, max atom move = 1.0000000 2.3220613e-05
  Iterations, force evaluations = 177 354

MPI task timing breakdown:
Section |  min time  |  avg time  |  max time  |%varavg| %total
---------------------------------------------------------------
Pair    | 0.5332     | 1.4935     | 1.9484     |  33.1 | 72.03
Neigh   | 0          | 0          | 0          |   0.0 |  0.00
Comm    | 0.03658    | 0.34595    | 1.0086     |  47.5 | 16.69
Output  | 0.00016842 | 0.00017755 | 0.00029402 |   0.0 |  0.01
Modify  | 2.0722e-05 | 0.00293    | 0.0062067  |   2.6 |  0.14
Other   |            | 0.2308     |            |       | 11.13

Nlocal:        2776.45 ave        3962 max           0 min
Histogram: 8 4 4 0 6 10 8 4 24 36
Nghost:        3879.15 ave        5430 max         232 min
Histogram: 8 0 8 0 16 0 8 8 16 40
Neighs:        79213.4 ave      115433 max           0 min
Histogram: 8 4 4 0 10 6 8 8 24 32

Total # of neighbors = 8238194
Ave neighs/atom = 28.530443
Neighbor list builds = 0
Dangerous builds = 0
The dot product: 2.28600949719649e-08
Setting atom values ...
  1 settings made for x
  1 settings made for y
  1 settings made for z
Setting up cg style minimization ...
  Unit style    : metal
  Current step  : 29142
Per MPI rank memory allocation (min/avg/max) = 5.441 | 5.816 | 6.074 Mbytes
Step PotEng KinEng TotEng v_fx v_fy v_fz 
   29142   -1152449.4            0   -1152449.4 -0.025546546  0.016669613 -0.030702108 
   29337   -1152449.4            0   -1152449.4 1.9382887e-05 2.1934655e-05 2.4987803e-05 
Loop time of 2.28301 on 104 procs for 195 steps with 288751 atoms

99.9% CPU use with 104 MPI tasks x 1 OpenMP threads

Minimization stats:
  Stopping criterion = energy tolerance
  Energy initial, next-to-last, final = 
     -1152449.41181655  -1152449.41331933  -1152449.41331933
  Force two-norm initial, final = 0.17761056 0.00010781566
  Force max component initial, final = 0.081743012 2.6304201e-05
  Final line search alpha, max atom move = 1.0000000 2.6304201e-05
  Iterations, force evaluations = 195 390

MPI task timing breakdown:
Section |  min time  |  avg time  |  max time  |%varavg| %total
---------------------------------------------------------------
Pair    | 0.58774    | 1.6455     | 2.1502     |  34.8 | 72.08
Neigh   | 0          | 0          | 0          |   0.0 |  0.00
Comm    | 0.0371     | 0.38072    | 1.1058     |  49.9 | 16.68
Output  | 0          | 0          | 0          |   0.0 |  0.00
Modify  | 2.2858e-05 | 0.0032266  | 0.0068442  |   2.7 |  0.14
Other   |            | 0.2535     |            |       | 11.11

Nlocal:        2776.45 ave        3962 max           0 min
Histogram: 8 4 4 0 6 10 8 4 24 36
Nghost:        3879.15 ave        5430 max         232 min
Histogram: 8 0 8 0 16 0 8 8 16 40
Neighs:        79213.4 ave      115433 max           0 min
Histogram: 8 4 4 0 10 6 8 8 24 32

Total # of neighbors = 8238197
Ave neighs/atom = 28.530454
Neighbor list builds = 0
Dangerous builds = 0
The dot product: -1.38476706857275e-08
Setting atom values ...
  1 settings made for x
  1 settings made for y
  1 settings made for z
Setting up cg style minimization ...
  Unit style    : metal
  Current step  : 29337
Per MPI rank memory allocation (min/avg/max) = 5.441 | 5.816 | 6.074 Mbytes
Step PotEng KinEng TotEng v_fx v_fy v_fz 
   29337   -1152449.4            0   -1152449.4 -0.029087674  0.010215605 -0.035419198 
   29559   -1152449.4            0   -1152449.4 -4.7751878e-07 3.3746586e-06 -4.2602344e-07 
Loop time of 2.62826 on 104 procs for 222 steps with 288751 atoms

99.9% CPU use with 104 MPI tasks x 1 OpenMP threads

Minimization stats:
  Stopping criterion = energy tolerance
  Energy initial, next-to-last, final = 
     -1152449.41333591  -1152449.41486273  -1152449.41486273
  Force two-norm initial, final = 0.17863078 3.3884227e-05
  Force max component initial, final = 0.081155027 7.2598874e-06
  Final line search alpha, max atom move = 1.0000000 7.2598874e-06
  Iterations, force evaluations = 222 444

MPI task timing breakdown:
Section |  min time  |  avg time  |  max time  |%varavg| %total
---------------------------------------------------------------
Pair    | 0.66907    | 1.8712     | 2.4612     |  37.0 | 71.19
Neigh   | 0          | 0          | 0          |   0.0 |  0.00
Comm    | 0.038712   | 0.43918    | 1.2651     |  52.5 | 16.71
Output  | 0          | 0          | 0          |   0.0 |  0.00
Modify  | 2.6132e-05 | 0.0036714  | 0.0078081  |   2.9 |  0.14
Other   |            | 0.3142     |            |       | 11.96

Nlocal:        2776.45 ave        3961 max           0 min
Histogram: 8 4 4 0 6 10 8 4 24 36
Nghost:        3879.14 ave        5430 max         232 min
Histogram: 8 0 8 0 16 0 8 8 16 40
Neighs:        79213.4 ave      115403 max           0 min
Histogram: 8 4 4 0 10 6 8 8 24 32

Total # of neighbors = 8238197
Ave neighs/atom = 28.530454
Neighbor list builds = 0
Dangerous builds = 0
The dot product: 1.21411982320025e-09
Setting atom values ...
  1 settings made for x
  1 settings made for y
  1 settings made for z
Setting up cg style minimization ...
  Unit style    : metal
  Current step  : 29559
Per MPI rank memory allocation (min/avg/max) = 5.441 | 5.816 | 6.074 Mbytes
Step PotEng KinEng TotEng v_fx v_fy v_fz 
   29559   -1152449.4            0   -1152449.4 -0.034045492 0.0039063421 -0.041898167 
   29732   -1152449.4            0   -1152449.4 9.8383988e-06 -1.7198219e-05 1.132833e-05 
Loop time of 2.02586 on 104 procs for 173 steps with 288751 atoms

99.9% CPU use with 104 MPI tasks x 1 OpenMP threads

Minimization stats:
  Stopping criterion = energy tolerance
  Energy initial, next-to-last, final = 
     -1152449.41305307  -1152449.41460993  -1152449.41460993
  Force two-norm initial, final = 0.18086589 0.00021158635
  Force max component initial, final = 0.080392326 2.4694673e-05
  Final line search alpha, max atom move = 1.0000000 2.4694673e-05
  Iterations, force evaluations = 173 346

MPI task timing breakdown:
Section |  min time  |  avg time  |  max time  |%varavg| %total
---------------------------------------------------------------
Pair    | 0.52099    | 1.4617     | 1.908      |  32.8 | 72.15
Neigh   | 0          | 0          | 0          |   0.0 |  0.00
Comm    | 0.03181    | 0.33981    | 0.98802    |  46.9 | 16.77
Output  | 0          | 0          | 0          |   0.0 |  0.00
Modify  | 2.136e-05  | 0.0028643  | 0.0060819  |   2.5 |  0.14
Other   |            | 0.2215     |            |       | 10.93

Nlocal:        2776.45 ave        3961 max           0 min
Histogram: 8 4 4 0 6 10 8 4 24 36
Nghost:        3879.18 ave        5430 max         232 min
Histogram: 8 0 8 0 16 0 8 8 16 40
Neighs:        79213.5 ave      115403 max           0 min
Histogram: 8 4 4 0 10 6 8 8 24 32

Total # of neighbors = 8238199
Ave neighs/atom = 28.530461
Neighbor list builds = 0
Dangerous builds = 0
The dot product: -3.13277472601687e-08
Setting atom values ...
  1 settings made for x
  1 settings made for y
  1 settings made for z
Setting up cg style minimization ...
  Unit style    : metal
  Current step  : 29732
Per MPI rank memory allocation (min/avg/max) = 5.441 | 5.816 | 6.074 Mbytes
Step PotEng KinEng TotEng v_fx v_fy v_fz 
   29732   -1152449.4            0   -1152449.4 -0.035371891  0.003509272 -0.043653508 
   29919   -1152449.4            0   -1152449.4 2.5325238e-05 2.5702924e-05 3.2641409e-05 
Loop time of 2.23169 on 104 procs for 187 steps with 288751 atoms

99.9% CPU use with 104 MPI tasks x 1 OpenMP threads

Minimization stats:
  Stopping criterion = energy tolerance
  Energy initial, next-to-last, final = 
     -1152449.41112115  -1152449.41267332  -1152449.41267332
  Force two-norm initial, final = 0.18075568 0.00012994105
  Force max component initial, final = 0.079443551 3.2641409e-05
  Final line search alpha, max atom move = 1.0000000 3.2641409e-05
  Iterations, force evaluations = 187 374

MPI task timing breakdown:
Section |  min time  |  avg time  |  max time  |%varavg| %total
---------------------------------------------------------------
Pair    | 0.57431    | 1.5818     | 2.0817     |  33.7 | 70.88
Neigh   | 0          | 0          | 0          |   0.0 |  0.00
Comm    | 0.045257   | 0.37304    | 1.0769     |  48.0 | 16.72
Output  | 0          | 0          | 0          |   0.0 |  0.00
Modify  | 2.2211e-05 | 0.003094   | 0.0065876  |   2.6 |  0.14
Other   |            | 0.2737     |            |       | 12.27

Nlocal:        2776.45 ave        3961 max           0 min
Histogram: 8 4 4 0 6 10 8 4 24 36
Nghost:        3879.18 ave        5430 max         232 min
Histogram: 8 0 8 0 16 0 8 8 16 40
Neighs:        79213.5 ave      115395 max           0 min
Histogram: 8 4 4 0 10 6 8 8 24 32

Total # of neighbors = 8238203
Ave neighs/atom = 28.530474
Neighbor list builds = 0
Dangerous builds = 0
The dot product: -1.95222405847313e-07
Setting atom values ...
  1 settings made for x
  1 settings made for y
  1 settings made for z
Setting up cg style minimization ...
  Unit style    : metal
  Current step  : 29919
Per MPI rank memory allocation (min/avg/max) = 5.441 | 5.816 | 6.074 Mbytes
Step PotEng KinEng TotEng v_fx v_fy v_fz 
   29919   -1152449.4            0   -1152449.4 -0.034529202 0.0062242535 -0.042581545 
   30000   -1152449.4            0   -1152449.4 0.00011344181 0.00019880172 0.00015084069 
   30146   -1152449.4            0   -1152449.4 -4.7585456e-08 -1.7273401e-06 -1.453302e-07 
Loop time of 2.64402 on 104 procs for 227 steps with 288751 atoms

99.9% CPU use with 104 MPI tasks x 1 OpenMP threads

Minimization stats:
  Stopping criterion = energy tolerance
  Energy initial, next-to-last, final = 
     -1152449.40754357   -1152449.4090598   -1152449.4090598
  Force two-norm initial, final = 0.17868704 2.5450412e-05
  Force max component initial, final = 0.078496424 2.8011668e-06
  Final line search alpha, max atom move = 1.0000000 2.8011668e-06
  Iterations, force evaluations = 227 454

MPI task timing breakdown:
Section |  min time  |  avg time  |  max time  |%varavg| %total
---------------------------------------------------------------
Pair    | 0.68304    | 1.9158     | 2.4915     |  37.6 | 72.46
Neigh   | 0          | 0          | 0          |   0.0 |  0.00
Comm    | 0.040556   | 0.44324    | 1.2933     |  54.2 | 16.76
Output  | 0.00016266 | 0.00016987 | 0.00034868 |   0.0 |  0.01
Modify  | 2.7107e-05 | 0.0037621  | 0.008022   |   2.9 |  0.14
Other   |            | 0.2811     |            |       | 10.63

Nlocal:        2776.45 ave        3960 max           0 min
Histogram: 8 4 4 0 4 12 8 4 24 36
Nghost:        3879.18 ave        5430 max         232 min
Histogram: 8 0 8 0 16 0 8 8 16 40
Neighs:        79213.5 ave      115364 max           0 min
Histogram: 8 4 4 0 10 6 8 8 24 32

Total # of neighbors = 8238200
Ave neighs/atom = 28.530464
Neighbor list builds = 0
Dangerous builds = 0
The dot product: 2.30938203335701e-09
Setting atom values ...
  1 settings made for x
  1 settings made for y
  1 settings made for z
Setting up cg style minimization ...
  Unit style    : metal
  Current step  : 30146
Per MPI rank memory allocation (min/avg/max) = 5.441 | 5.816 | 6.074 Mbytes
Step PotEng KinEng TotEng v_fx v_fy v_fz 
   30146   -1152449.4            0   -1152449.4 -0.033550182 0.0098156544 -0.041281617 
   30350   -1152449.4            0   -1152449.4 -2.6809603e-07 -1.7440657e-05 -1.214886e-06 
Loop time of 2.3907 on 104 procs for 204 steps with 288751 atoms

99.9% CPU use with 104 MPI tasks x 1 OpenMP threads

Minimization stats:
  Stopping criterion = energy tolerance
  Energy initial, next-to-last, final = 
     -1152449.40229757  -1152449.40376769  -1152449.40376769
  Force two-norm initial, final = 0.17624944 7.8315449e-05
  Force max component initial, final = 0.077491054 1.7440657e-05
  Final line search alpha, max atom move = 1.0000000 1.7440657e-05
  Iterations, force evaluations = 204 408

MPI task timing breakdown:
Section |  min time  |  avg time  |  max time  |%varavg| %total
---------------------------------------------------------------
Pair    | 0.61594    | 1.7233     | 2.2509     |  35.6 | 72.09
Neigh   | 0          | 0          | 0          |   0.0 |  0.00
Comm    | 0.045825   | 0.39981    | 1.1702     |  51.1 | 16.72
Output  | 0          | 0          | 0          |   0.0 |  0.00
Modify  | 2.3758e-05 | 0.0033821  | 0.0071909  |   2.7 |  0.14
Other   |            | 0.2642     |            |       | 11.05

Nlocal:        2776.45 ave        3960 max           0 min
Histogram: 8 4 4 0 4 12 8 4 24 36
Nghost:        3879.18 ave        5430 max         232 min
Histogram: 8 0 8 0 16 0 8 8 16 40
Neighs:        79213.5 ave      115364 max           0 min
Histogram: 8 4 4 0 10 6 8 8 24 32

Total # of neighbors = 8238203
Ave neighs/atom = 28.530474
Neighbor list builds = 0
Dangerous builds = 0
The dot product: 1.53870338734745e-08
Setting atom values ...
  1 settings made for x
  1 settings made for y
  1 settings made for z
Setting up cg style minimization ...
  Unit style    : metal
  Current step  : 30350
Per MPI rank memory allocation (min/avg/max) = 5.441 | 5.816 | 6.074 Mbytes
Step PotEng KinEng TotEng v_fx v_fy v_fz 
   30350   -1152449.4            0   -1152449.4  -0.03237304  0.014360653 -0.039673236 
   30538   -1152449.4            0   -1152449.4 -2.2949196e-05 -1.9040117e-05 -2.9612277e-05 
Loop time of 2.19481 on 104 procs for 188 steps with 288751 atoms

99.9% CPU use with 104 MPI tasks x 1 OpenMP threads

Minimization stats:
  Stopping criterion = energy tolerance
  Energy initial, next-to-last, final = 
     -1152449.39540863  -1152449.39682577  -1152449.39682577
  Force two-norm initial, final = 0.17371737 0.00012607422
  Force max component initial, final = 0.076477223 2.9612277e-05
  Final line search alpha, max atom move = 1.0000000 2.9612277e-05
  Iterations, force evaluations = 188 376

MPI task timing breakdown:
Section |  min time  |  avg time  |  max time  |%varavg| %total
---------------------------------------------------------------
Pair    | 0.5656     | 1.5862     | 2.069      |  34.1 | 72.27
Neigh   | 0          | 0          | 0          |   0.0 |  0.00
Comm    | 0.032225   | 0.36661    | 1.0774     |  49.5 | 16.70
Output  | 0          | 0          | 0          |   0.0 |  0.00
Modify  | 2.2515e-05 | 0.0031154  | 0.0066122  |   2.6 |  0.14
Other   |            | 0.2389     |            |       | 10.88

Nlocal:        2776.45 ave        3960 max           0 min
Histogram: 8 4 4 0 4 12 8 4 24 36
Nghost:        3879.16 ave        5430 max         232 min
Histogram: 8 0 8 0 16 0 8 8 16 40
Neighs:        79213.5 ave      115362 max           0 min
Histogram: 8 4 4 0 10 6 8 8 24 32

Total # of neighbors = 8238201
Ave neighs/atom = 28.530467
Neighbor list builds = 0
Dangerous builds = 0
The dot product: 1.28411443860444e-07
Setting atom values ...
  1 settings made for x
  1 settings made for y
  1 settings made for z
Setting up cg style minimization ...
  Unit style    : metal
  Current step  : 30538
Per MPI rank memory allocation (min/avg/max) = 5.441 | 5.816 | 6.074 Mbytes
Step PotEng KinEng TotEng v_fx v_fy v_fz 
   30538   -1152449.4            0   -1152449.4 -0.031006537  0.020072007  -0.03775815 
   30702   -1152449.4            0   -1152449.4 -4.4404156e-05 -5.7217124e-05 -5.8463259e-05 
Loop time of 1.9317 on 104 procs for 164 steps with 288751 atoms

99.9% CPU use with 104 MPI tasks x 1 OpenMP threads

Minimization stats:
  Stopping criterion = energy tolerance
  Energy initial, next-to-last, final = 
     -1152449.38693545  -1152449.38829803  -1152449.38829803
  Force two-norm initial, final = 0.17151199 0.00028236196
  Force max component initial, final = 0.07685143 7.4574668e-05
  Final line search alpha, max atom move = 1.0000000 7.4574668e-05
  Iterations, force evaluations = 164 328

MPI task timing breakdown:
Section |  min time  |  avg time  |  max time  |%varavg| %total
---------------------------------------------------------------
Pair    | 0.50622    | 1.387      | 1.8023     |  31.7 | 71.80
Neigh   | 0          | 0          | 0          |   0.0 |  0.00
Comm    | 0.031766   | 0.32662    | 0.93334    |  45.1 | 16.91
Output  | 0          | 0          | 0          |   0.0 |  0.00
Modify  | 1.9406e-05 | 0.0027146  | 0.0057715  |   2.5 |  0.14
Other   |            | 0.2154     |            |       | 11.15

Nlocal:        2776.45 ave        3960 max           0 min
Histogram: 8 4 4 0 4 12 8 4 24 36
Nghost:        3879.18 ave        5431 max         232 min
Histogram: 8 0 8 0 16 0 8 8 16 40
Neighs:        79213.5 ave      115362 max           0 min
Histogram: 8 4 4 0 10 6 8 8 24 32

Total # of neighbors = 8238201
Ave neighs/atom = 28.530467
Neighbor list builds = 0
Dangerous builds = 0
The dot product: 2.01638884013124e-07
Setting atom values ...
  1 settings made for x
  1 settings made for y
  1 settings made for z
Setting up cg style minimization ...
  Unit style    : metal
  Current step  : 30702
Per MPI rank memory allocation (min/avg/max) = 5.441 | 5.816 | 6.074 Mbytes
Step PotEng KinEng TotEng v_fx v_fy v_fz 
   30702   -1152449.4            0   -1152449.4 -0.028947884  0.028922405  -0.03481212 
   30865   -1152449.4            0   -1152449.4 3.421952e-05 1.2172824e-05 4.3509258e-05 
Loop time of 1.91544 on 104 procs for 163 steps with 288751 atoms

99.9% CPU use with 104 MPI tasks x 1 OpenMP threads

Minimization stats:
  Stopping criterion = energy tolerance
  Energy initial, next-to-last, final = 
     -1152449.37702416  -1152449.37834041  -1152449.37834041
  Force two-norm initial, final = 0.17022321 0.00022415339
  Force max component initial, final = 0.077190577 4.3509258e-05
  Final line search alpha, max atom move = 1.0000000 4.3509258e-05
  Iterations, force evaluations = 163 326

MPI task timing breakdown:
Section |  min time  |  avg time  |  max time  |%varavg| %total
---------------------------------------------------------------
Pair    | 0.49191    | 1.3769     | 1.8021     |  31.9 | 71.88
Neigh   | 0          | 0          | 0          |   0.0 |  0.00
Comm    | 0.029021   | 0.31948    | 0.93344    |  45.8 | 16.68
Output  | 0          | 0          | 0          |   0.0 |  0.00
Modify  | 1.923e-05  | 0.0026962  | 0.005744   |   2.5 |  0.14
Other   |            | 0.2164     |            |       | 11.30

Nlocal:        2776.45 ave        3960 max           0 min
Histogram: 8 4 4 0 4 12 8 4 24 36
Nghost:        3879.15 ave        5431 max         232 min
Histogram: 8 0 8 0 16 0 8 8 16 40
Neighs:        79213.5 ave      115362 max           0 min
Histogram: 8 4 4 0 10 6 8 8 24 32

Total # of neighbors = 8238199
Ave neighs/atom = 28.530461
Neighbor list builds = 0
Dangerous builds = 0
The dot product: -1.33605923689661e-07
