LAMMPS (29 Oct 2020)
OMP_NUM_THREADS environment is not set. Defaulting to 1 thread. (../comm.cpp:94)
  using 1 OpenMP thread(s) per MPI task
Reading data file ...
  orthogonal box = (-122.39241 -121.13707 -37.090501) to (122.39241 121.13707 37.090501)
  13 by 4 by 1 MPI processor grid
  reading atoms ...
  288751 atoms
  read_data CPU = 0.428 seconds
199981 atoms in group inner
88770 atoms in group outer
1 atoms in group carbon
Neighbor list info ...
  update every 1 steps, delay 0 steps, check yes
  max neighbors/atom: 2000, page size: 100000
  master list distance cutoff = 5.6
  ghost atom cutoff = 5.6
  binsize = 2.8, bins = 88 87 27
  1 neighbor lists, perpetual/occasional/extra = 1 0 0
  (1) pair eam/alloy, perpetual
      attributes: half, newton on
      pair build: half/bin/atomonly/newton
      stencil: half/bin/3d/newton
      bin: standard
Setting up cg style minimization ...
  Unit style    : metal
  Current step  : 0
Per MPI rank memory allocation (min/avg/max) = 5.465 | 6.344 | 6.728 Mbytes
Step v_fx v_fy v_fz PotEng KinEng TotEng 
       0    12.702099    23.367162     7.972038   -1152441.8            0   -1152441.8 
     251 8.815389e-06 1.9654625e-05 2.1684909e-05     -1152449            0     -1152449 
Loop time of 5.6349 on 52 procs for 251 steps with 288751 atoms

99.9% CPU use with 52 MPI tasks x 1 OpenMP threads

Minimization stats:
  Stopping criterion = linesearch alpha is zero
  Energy initial, next-to-last, final = 
     -1152441.78205549  -1152448.97218785  -1152448.97218785
  Force two-norm initial, final = 45.432523 9.6942700e-05
  Force max component initial, final = 29.690035 2.1684909e-05
  Final line search alpha, max atom move = 0.5 1.0842454e-05
  Iterations, force evaluations = 251 499

MPI task timing breakdown:
Section |  min time  |  avg time  |  max time  |%varavg| %total
---------------------------------------------------------------
Pair    | 1.4978     | 4.017      | 5.2827     |  54.2 | 71.29
Neigh   | 0.0001829  | 0.054699   | 0.082813   |   9.9 |  0.97
Comm    | 0.080768   | 0.90306    | 2.7943     |  82.8 | 16.03
Output  | 0          | 0          | 0          |   0.0 |  0.00
Modify  | 8.3284e-05 | 0.0055361  | 0.014039   |   4.6 |  0.10
Other   |            | 0.6546     |            |       | 11.62

Nlocal:        5552.90 ave        7908 max           0 min
Histogram: 4 2 2 0 2 6 4 0 15 17
Nghost:        6213.63 ave        8769 max         412 min
Histogram: 4 0 4 0 8 0 4 5 7 20
Neighs:       158427.0 ave      230529 max           0 min
Histogram: 4 2 2 0 5 3 4 4 12 16

Total # of neighbors = 8238210
Ave neighs/atom = 28.530499
Neighbor list builds = 9
Dangerous builds = 0
1.75 3.04 -27.78 1.69190436210775 2.95187526718949 -27.5076975090192
Total wall time: 0:00:06
