LAMMPS (29 Oct 2020)
OMP_NUM_THREADS environment is not set. Defaulting to 1 thread. (../comm.cpp:94)
  using 1 OpenMP thread(s) per MPI task
OMP_NUM_THREADS environment is not set. Defaulting to 1 thread. (../comm.cpp:94)
  using 1 OpenMP thread(s) per MPI task
Reading data file ...
  orthogonal box = (-122.39241 -121.13707 -37.090501) to (122.39241 121.13707 37.090501)
  13 by 4 by 2 MPI processor grid
  reading atoms ...
  288751 atoms
  read_data CPU = 0.372 seconds
199981 atoms in group inner
88770 atoms in group outer
1 atoms in group carbon
Neighbor list info ...
  update every 1 steps, delay 0 steps, check yes
  max neighbors/atom: 2000, page size: 100000
  master list distance cutoff = 5.6
  ghost atom cutoff = 5.6
  binsize = 2.8, bins = 88 87 27
  1 neighbor lists, perpetual/occasional/extra = 1 0 0
  (1) pair eam/alloy, perpetual
      attributes: half, newton on
      pair build: half/bin/atomonly/newton
      stencil: half/bin/3d/newton
      bin: standard
Setting up cg style minimization ...
  Unit style    : metal
  Current step  : 0
Per MPI rank memory allocation (min/avg/max) = 5.441 | 5.816 | 6.074 Mbytes
Step v_fx v_fy v_fz PotEng KinEng TotEng 
       0   0.21118314    1.9286167     2.569769   -1152447.8            0   -1152447.8 
     172 4.7637554e-06 6.5070466e-06 -1.399124e-05   -1152449.5            0   -1152449.5 
Loop time of 2.08643 on 104 procs for 172 steps with 288751 atoms

99.8% CPU use with 104 MPI tasks x 1 OpenMP threads

Minimization stats:
  Stopping criterion = energy tolerance
  Energy initial, next-to-last, final = 
     -1152447.77787287  -1152449.45035262  -1152449.45035262
  Force two-norm initial, final = 10.216433 6.8077037e-05
  Force max component initial, final = 6.2558834 1.7929033e-05
  Final line search alpha, max atom move = 1.0000000 1.7929033e-05
  Iterations, force evaluations = 172 343

MPI task timing breakdown:
Section |  min time  |  avg time  |  max time  |%varavg| %total
---------------------------------------------------------------
Pair    | 0.53523    | 1.4508     | 1.9028     |  32.2 | 69.54
Neigh   | 3.1274e-05 | 0.0087622  | 0.012696   |   3.9 |  0.42
Comm    | 0.033797   | 0.3396     | 0.98612    |  46.1 | 16.28
Output  | 0          | 0          | 0          |   0.0 |  0.00
Modify  | 1.9119e-05 | 0.0018711  | 0.0047862  |   2.7 |  0.09
Other   |            | 0.2853     |            |       | 13.68

Nlocal:        2776.45 ave        3961 max           0 min
Histogram: 8 4 4 0 6 10 8 2 28 34
Nghost:        3879.01 ave        5424 max         232 min
Histogram: 8 0 8 0 16 0 8 8 16 40
Neighs:        79213.5 ave      115455 max           0 min
Histogram: 8 4 4 0 10 6 8 8 24 32

Total # of neighbors = 8238203
Ave neighs/atom = 28.530474
Neighbor list builds = 3
Dangerous builds = 0
Setting atom values ...
  1 settings made for x
  1 settings made for y
  1 settings made for z
Setting up cg style minimization ...
  Unit style    : metal
  Current step  : 172
Per MPI rank memory allocation (min/avg/max) = 5.441 | 5.816 | 6.074 Mbytes
Step PotEng KinEng TotEng v_fx v_fy v_fz 
     172   -1152449.4            0   -1152449.4 0.0074239213 -0.015063273 -0.024568656 
     353   -1152449.5            0   -1152449.5 3.5199908e-06 -1.210838e-06 -6.5750858e-06 
Loop time of 2.19074 on 104 procs for 181 steps with 288751 atoms

99.9% CPU use with 104 MPI tasks x 1 OpenMP threads

Minimization stats:
  Stopping criterion = energy tolerance
  Energy initial, next-to-last, final = 
     -1152449.44965279  -1152449.45007938  -1152449.45007938
  Force two-norm initial, final = 0.094103262 8.3899891e-05
  Force max component initial, final = 0.043963912 1.0411806e-05
  Final line search alpha, max atom move = 1.0000000 1.0411806e-05
  Iterations, force evaluations = 181 362

MPI task timing breakdown:
Section |  min time  |  avg time  |  max time  |%varavg| %total
---------------------------------------------------------------
Pair    | 0.54023    | 1.5313     | 2.0413     |  33.8 | 69.90
Neigh   | 0          | 0          | 0          |   0.0 |  0.00
Comm    | 0.035437   | 0.36289    | 1.0602     |  47.4 | 16.56
Output  | 0          | 0          | 0          |   0.0 |  0.00
Modify  | 2.2484e-05 | 0.0029963  | 0.0063713  |   2.6 |  0.14
Other   |            | 0.2936     |            |       | 13.40

Nlocal:        2776.45 ave        3961 max           0 min
Histogram: 8 4 4 0 6 10 8 2 28 34
Nghost:        3879.01 ave        5425 max         232 min
Histogram: 8 0 8 0 16 0 8 8 16 40
Neighs:        79213.4 ave      115455 max           0 min
Histogram: 8 4 4 0 10 6 8 8 24 32

Total # of neighbors = 8238197
Ave neighs/atom = 28.530454
Neighbor list builds = 0
Dangerous builds = 0
Setting atom values ...
  1 settings made for x
  1 settings made for y
  1 settings made for z
Setting up cg style minimization ...
  Unit style    : metal
  Current step  : 353
Per MPI rank memory allocation (min/avg/max) = 5.441 | 5.816 | 6.074 Mbytes
Step PotEng KinEng TotEng v_fx v_fy v_fz 
     353   -1152449.4            0   -1152449.4 0.0084680726   -0.0170317 -0.038869906 
     539   -1152449.4            0   -1152449.4 1.6914355e-07 -1.5312767e-05 -1.9814963e-05 
Loop time of 2.24583 on 104 procs for 186 steps with 288751 atoms

99.9% CPU use with 104 MPI tasks x 1 OpenMP threads

Minimization stats:
  Stopping criterion = energy tolerance
  Energy initial, next-to-last, final = 
     -1152449.44696286  -1152449.44825572  -1152449.44825572
  Force two-norm initial, final = 0.16110027 9.8306640e-05
  Force max component initial, final = 0.087235988 1.9814963e-05
  Final line search alpha, max atom move = 1.0000000 1.9814963e-05
  Iterations, force evaluations = 186 372

MPI task timing breakdown:
Section |  min time  |  avg time  |  max time  |%varavg| %total
---------------------------------------------------------------
Pair    | 0.56055    | 1.5674     | 2.0565     |  34.1 | 69.79
Neigh   | 0          | 0          | 0          |   0.0 |  0.00
Comm    | 0.045645   | 0.3666     | 1.0717     |  48.3 | 16.32
Output  | 0          | 0          | 0          |   0.0 |  0.00
Modify  | 2.422e-05  | 0.0030882  | 0.0066265  |   2.6 |  0.14
Other   |            | 0.3087     |            |       | 13.75

Nlocal:        2776.45 ave        3961 max           0 min
Histogram: 8 4 4 0 6 10 8 2 28 34
Nghost:        3879.01 ave        5424 max         232 min
Histogram: 8 0 8 0 16 0 8 8 16 40
Neighs:        79213.4 ave      115455 max           0 min
Histogram: 8 4 4 0 10 6 8 8 24 32

Total # of neighbors = 8238196
Ave neighs/atom = 28.530450
Neighbor list builds = 0
Dangerous builds = 0
The dot product: 6.3007335574239e-08
Setting atom values ...
  1 settings made for x
  1 settings made for y
  1 settings made for z
Setting up cg style minimization ...
  Unit style    : metal
  Current step  : 539
Per MPI rank memory allocation (min/avg/max) = 5.441 | 5.816 | 6.074 Mbytes
Step PotEng KinEng TotEng v_fx v_fy v_fz 
     539   -1152449.4            0   -1152449.4  0.005911571 -0.0096796054 -0.031416575 
     680   -1152449.4            0   -1152449.4 1.019157e-05 2.4347336e-05 1.5180181e-05 
Loop time of 1.66932 on 104 procs for 141 steps with 288751 atoms

99.9% CPU use with 104 MPI tasks x 1 OpenMP threads

Minimization stats:
  Stopping criterion = energy tolerance
  Energy initial, next-to-last, final = 
     -1152449.44358773   -1152449.4448226   -1152449.4448226
  Force two-norm initial, final = 0.15528582 0.00015216384
  Force max component initial, final = 0.092293395 2.4347336e-05
  Final line search alpha, max atom move = 1.0000000 2.4347336e-05
  Iterations, force evaluations = 141 282

MPI task timing breakdown:
Section |  min time  |  avg time  |  max time  |%varavg| %total
---------------------------------------------------------------
Pair    | 0.42559    | 1.1927     | 1.559      |  29.7 | 71.45
Neigh   | 0          | 0          | 0          |   0.0 |  0.00
Comm    | 0.02567    | 0.27409    | 0.81374    |  42.9 | 16.42
Output  | 0          | 0          | 0          |   0.0 |  0.00
Modify  | 1.622e-05  | 0.0023358  | 0.0050064  |   2.3 |  0.14
Other   |            | 0.2002     |            |       | 11.99

Nlocal:        2776.45 ave        3961 max           0 min
Histogram: 8 4 4 0 6 10 8 2 28 34
Nghost:        3879.01 ave        5424 max         232 min
Histogram: 8 0 8 0 16 0 8 8 16 40
Neighs:        79213.4 ave      115455 max           0 min
Histogram: 8 4 4 0 10 6 8 8 24 32

Total # of neighbors = 8238193
Ave neighs/atom = 28.530440
Neighbor list builds = 0
Dangerous builds = 0
The dot product: -4.37437290700709e-08
Setting atom values ...
  1 settings made for x
  1 settings made for y
  1 settings made for z
Setting up cg style minimization ...
  Unit style    : metal
  Current step  : 680
Per MPI rank memory allocation (min/avg/max) = 5.441 | 5.816 | 6.074 Mbytes
Step PotEng KinEng TotEng v_fx v_fy v_fz 
     680   -1152449.4            0   -1152449.4 0.0023583297 -0.0090148126 -0.025032108 
     801   -1152449.4            0   -1152449.4 -2.7050693e-05 -2.5326888e-05 2.982697e-05 
Loop time of 1.41713 on 104 procs for 121 steps with 288751 atoms

99.9% CPU use with 104 MPI tasks x 1 OpenMP threads

Minimization stats:
  Stopping criterion = energy tolerance
  Energy initial, next-to-last, final = 
     -1152449.43869465  -1152449.43988051  -1152449.43988051
  Force two-norm initial, final = 0.15173234 0.00021247849
  Force max component initial, final = 0.095991464 6.1389812e-05
  Final line search alpha, max atom move = 1.0000000 6.1389812e-05
  Iterations, force evaluations = 121 242

MPI task timing breakdown:
Section |  min time  |  avg time  |  max time  |%varavg| %total
---------------------------------------------------------------
Pair    | 0.36351    | 1.0154     | 1.3297     |  27.3 | 71.65
Neigh   | 0          | 0          | 0          |   0.0 |  0.00
Comm    | 0.020804   | 0.23171    | 0.69056    |  39.7 | 16.35
Output  | 0          | 0          | 0          |   0.0 |  0.00
Modify  | 1.4281e-05 | 0.0020047  | 0.0042791  |   2.1 |  0.14
Other   |            | 0.168      |            |       | 11.86

Nlocal:        2776.45 ave        3961 max           0 min
Histogram: 8 4 4 0 6 10 8 2 28 34
Nghost:        3879.01 ave        5424 max         232 min
Histogram: 8 0 8 0 16 0 8 8 16 40
Neighs:        79213.4 ave      115455 max           0 min
Histogram: 8 4 4 0 10 6 8 8 24 32

Total # of neighbors = 8238194
Ave neighs/atom = 28.530443
Neighbor list builds = 0
Dangerous builds = 0
The dot product: -3.1604674740144e-08
Setting atom values ...
  1 settings made for x
  1 settings made for y
  1 settings made for z
Setting up cg style minimization ...
  Unit style    : metal
  Current step  : 801
Per MPI rank memory allocation (min/avg/max) = 5.441 | 5.816 | 6.074 Mbytes
Step PotEng KinEng TotEng v_fx v_fy v_fz 
     801   -1152449.4            0   -1152449.4 -0.0028772903 -0.012868194 -0.019542916 
     927   -1152449.4            0   -1152449.4 -3.3562236e-06 -3.4933398e-05 -6.765608e-05 
Loop time of 1.51687 on 104 procs for 126 steps with 288751 atoms

99.9% CPU use with 104 MPI tasks x 1 OpenMP threads

Minimization stats:
  Stopping criterion = energy tolerance
  Energy initial, next-to-last, final = 
     -1152449.43236535  -1152449.43353195  -1152449.43353195
  Force two-norm initial, final = 0.15011978 0.00019583509
  Force max component initial, final = 0.099011991 6.7656080e-05
  Final line search alpha, max atom move = 1.0000000 6.7656080e-05
  Iterations, force evaluations = 126 252

MPI task timing breakdown:
Section |  min time  |  avg time  |  max time  |%varavg| %total
---------------------------------------------------------------
Pair    | 0.37856    | 1.0664     | 1.4008     |  28.1 | 70.30
Neigh   | 0          | 0          | 0          |   0.0 |  0.00
Comm    | 0.022248   | 0.24885    | 0.72266    |  39.7 | 16.41
Output  | 0          | 0          | 0          |   0.0 |  0.00
Modify  | 1.4685e-05 | 0.0020891  | 0.0044407  |   2.1 |  0.14
Other   |            | 0.1995     |            |       | 13.15

Nlocal:        2776.45 ave        3961 max           0 min
Histogram: 8 4 4 0 6 10 8 2 28 34
Nghost:        3879.01 ave        5424 max         232 min
Histogram: 8 0 8 0 16 0 8 8 16 40
Neighs:        79213.4 ave      115455 max           0 min
Histogram: 8 4 4 0 10 6 8 8 24 32

Total # of neighbors = 8238194
Ave neighs/atom = 28.530443
Neighbor list builds = 0
Dangerous builds = 0
The dot product: 1.84243111499256e-07
Setting atom values ...
  1 settings made for x
  1 settings made for y
  1 settings made for z
Setting up cg style minimization ...
  Unit style    : metal
  Current step  : 927
Per MPI rank memory allocation (min/avg/max) = 5.441 | 5.816 | 6.074 Mbytes
Step PotEng KinEng TotEng v_fx v_fy v_fz 
     927   -1152449.4            0   -1152449.4 -0.0078481561  -0.01653748  -0.01465928 
    1000   -1152449.4            0   -1152449.4 4.5336563e-05 0.00010015523 9.6335158e-05 
    1091   -1152449.4            0   -1152449.4 7.0157891e-06 -3.5904675e-06 -3.3209558e-05 
Loop time of 1.93276 on 104 procs for 164 steps with 288751 atoms

99.9% CPU use with 104 MPI tasks x 1 OpenMP threads

Minimization stats:
  Stopping criterion = energy tolerance
  Energy initial, next-to-last, final = 
     -1152449.42472298  -1152449.42589714  -1152449.42589714
  Force two-norm initial, final = 0.14954191 0.00017319662
  Force max component initial, final = 0.10164195 3.4173393e-05
  Final line search alpha, max atom move = 1.0000000 3.4173393e-05
  Iterations, force evaluations = 164 328

MPI task timing breakdown:
Section |  min time  |  avg time  |  max time  |%varavg| %total
---------------------------------------------------------------
Pair    | 0.49781    | 1.3763     | 1.7868     |  31.7 | 71.21
Neigh   | 0          | 0          | 0          |   0.0 |  0.00
Comm    | 0.033032   | 0.31241    | 0.93037    |  46.3 | 16.16
Output  | 0.00026463 | 0.00026944 | 0.00039398 |   0.0 |  0.01
Modify  | 1.9526e-05 | 0.0027141  | 0.0057726  |   2.4 |  0.14
Other   |            | 0.2411     |            |       | 12.47

Nlocal:        2776.45 ave        3960 max           0 min
Histogram: 8 4 4 0 4 12 8 2 28 34
Nghost:        3879.01 ave        5424 max         232 min
Histogram: 8 0 8 0 16 0 8 8 16 40
Neighs:        79213.4 ave      115412 max           0 min
Histogram: 8 4 4 0 10 6 8 8 24 32

Total # of neighbors = 8238194
Ave neighs/atom = 28.530443
Neighbor list builds = 0
Dangerous builds = 0
The dot product: 3.32250283015623e-08
Setting atom values ...
  1 settings made for x
  1 settings made for y
  1 settings made for z
Setting up cg style minimization ...
  Unit style    : metal
  Current step  : 1091
Per MPI rank memory allocation (min/avg/max) = 5.441 | 5.816 | 6.074 Mbytes
Step PotEng KinEng TotEng v_fx v_fy v_fz 
    1091   -1152449.4            0   -1152449.4 -0.010855913 -0.017293159 -0.010365059 
    1213   -1152449.4            0   -1152449.4 1.8387688e-05 9.517807e-06 -3.7715022e-05 
Loop time of 1.43761 on 104 procs for 122 steps with 288751 atoms

99.9% CPU use with 104 MPI tasks x 1 OpenMP threads

Minimization stats:
  Stopping criterion = energy tolerance
  Energy initial, next-to-last, final = 
     -1152449.41580206    -1152449.416986    -1152449.416986
  Force two-norm initial, final = 0.14934404 0.00016966264
  Force max component initial, final = 0.10382876 4.5141610e-05
  Final line search alpha, max atom move = 1.0000000 4.5141610e-05
  Iterations, force evaluations = 122 244

MPI task timing breakdown:
Section |  min time  |  avg time  |  max time  |%varavg| %total
---------------------------------------------------------------
Pair    | 0.36701    | 1.0278     | 1.3512     |  27.5 | 71.49
Neigh   | 0          | 0          | 0          |   0.0 |  0.00
Comm    | 0.021157   | 0.23567    | 0.69797    |  39.8 | 16.39
Output  | 0          | 0          | 0          |   0.0 |  0.00
Modify  | 1.4102e-05 | 0.0020222  | 0.0043319  |   2.1 |  0.14
Other   |            | 0.1722     |            |       | 11.97

Nlocal:        2776.45 ave        3960 max           0 min
Histogram: 8 4 4 0 4 12 8 2 28 34
Nghost:        3879.01 ave        5424 max         232 min
Histogram: 8 0 8 0 16 0 8 8 16 40
Neighs:        79213.4 ave      115412 max           0 min
Histogram: 8 4 4 0 10 6 8 8 24 32

Total # of neighbors = 8238193
Ave neighs/atom = 28.530440
Neighbor list builds = 0
Dangerous builds = 0
The dot product: -7.11478990642494e-08
Setting atom values ...
  1 settings made for x
  1 settings made for y
  1 settings made for z
Setting up cg style minimization ...
  Unit style    : metal
  Current step  : 1213
Per MPI rank memory allocation (min/avg/max) = 5.441 | 5.816 | 6.074 Mbytes
Step PotEng KinEng TotEng v_fx v_fy v_fz 
    1213   -1152449.4            0   -1152449.4 -0.011614056 -0.015613254 -0.0071213005 
    1360   -1152449.4            0   -1152449.4 1.6532925e-05 2.3894043e-05 1.5231674e-05 
Loop time of 1.72269 on 104 procs for 147 steps with 288751 atoms

99.9% CPU use with 104 MPI tasks x 1 OpenMP threads

Minimization stats:
  Stopping criterion = energy tolerance
  Energy initial, next-to-last, final = 
     -1152449.40558842  -1152449.40677426  -1152449.40677426
  Force two-norm initial, final = 0.14944489 0.00017702667
  Force max component initial, final = 0.10559519 3.0176697e-05
  Final line search alpha, max atom move = 1.0000000 3.0176697e-05
  Iterations, force evaluations = 147 294

MPI task timing breakdown:
Section |  min time  |  avg time  |  max time  |%varavg| %total
---------------------------------------------------------------
Pair    | 0.44179    | 1.2339     | 1.6155     |  30.1 | 71.63
Neigh   | 0          | 0          | 0          |   0.0 |  0.00
Comm    | 0.027326   | 0.28246    | 0.84029    |  43.8 | 16.40
Output  | 0          | 0          | 0          |   0.0 |  0.00
Modify  | 1.7232e-05 | 0.0024389  | 0.0052093  |   2.3 |  0.14
Other   |            | 0.2038     |            |       | 11.83

Nlocal:        2776.45 ave        3959 max           0 min
Histogram: 8 4 4 0 4 12 8 2 28 34
Nghost:        3879.01 ave        5424 max         232 min
Histogram: 8 0 8 0 16 0 8 8 16 40
Neighs:        79213.4 ave      115389 max           0 min
Histogram: 8 4 4 0 10 6 8 8 24 32

Total # of neighbors = 8238195
Ave neighs/atom = 28.530447
Neighbor list builds = 0
Dangerous builds = 0
The dot product: -1.85959345261138e-07
Setting atom values ...
  1 settings made for x
  1 settings made for y
  1 settings made for z
Setting up cg style minimization ...
  Unit style    : metal
  Current step  : 1360
Per MPI rank memory allocation (min/avg/max) = 5.441 | 5.816 | 6.074 Mbytes
Step PotEng KinEng TotEng v_fx v_fy v_fz 
    1360   -1152449.4            0   -1152449.4 -0.010469188 -0.012428193 -0.0045600657 
    1510   -1152449.4            0   -1152449.4 -3.406269e-06 -4.6046245e-06 -3.3244248e-06 
Loop time of 1.77537 on 104 procs for 150 steps with 288751 atoms

99.9% CPU use with 104 MPI tasks x 1 OpenMP threads

Minimization stats:
  Stopping criterion = energy tolerance
  Energy initial, next-to-last, final = 
     -1152449.39404882  -1152449.39522688  -1152449.39522688
  Force two-norm initial, final = 0.14971522 0.00017494933
  Force max component initial, final = 0.10705501 2.6308126e-05
  Final line search alpha, max atom move = 1.0000000 2.6308126e-05
  Iterations, force evaluations = 150 300

MPI task timing breakdown:
Section |  min time  |  avg time  |  max time  |%varavg| %total
---------------------------------------------------------------
Pair    | 0.45105    | 1.269      | 1.6569     |  30.4 | 71.48
Neigh   | 0          | 0          | 0          |   0.0 |  0.00
Comm    | 0.028384   | 0.29253    | 0.86979    |  44.3 | 16.48
Output  | 0          | 0          | 0          |   0.0 |  0.00
Modify  | 1.7153e-05 | 0.0024866  | 0.0053019  |   2.3 |  0.14
Other   |            | 0.2113     |            |       | 11.90

Nlocal:        2776.45 ave        3959 max           0 min
Histogram: 8 4 4 0 4 12 8 2 28 34
Nghost:        3878.99 ave        5424 max         232 min
Histogram: 8 0 8 0 16 0 8 8 16 40
Neighs:        79213.4 ave      115391 max           0 min
Histogram: 8 4 4 0 10 6 8 8 24 32

Total # of neighbors = 8238196
Ave neighs/atom = 28.530450
Neighbor list builds = 0
Dangerous builds = 0
The dot product: 3.47917428295483e-08
Setting atom values ...
  1 settings made for x
  1 settings made for y
  1 settings made for z
Setting up cg style minimization ...
  Unit style    : metal
  Current step  : 1510
Per MPI rank memory allocation (min/avg/max) = 5.441 | 5.816 | 6.074 Mbytes
Step PotEng KinEng TotEng v_fx v_fy v_fz 
    1510   -1152449.4            0   -1152449.4 -0.0079435516 -0.0086227496 -0.0027535118 
    1638   -1152449.4            0   -1152449.4 -3.6009715e-06 -1.0978456e-05 -2.5818032e-05 
Loop time of 1.50877 on 104 procs for 128 steps with 288751 atoms

99.9% CPU use with 104 MPI tasks x 1 OpenMP threads

Minimization stats:
  Stopping criterion = energy tolerance
  Energy initial, next-to-last, final = 
     -1152449.38114595   -1152449.3823128   -1152449.3823128
  Force two-norm initial, final = 0.15021009 0.00016997097
  Force max component initial, final = 0.10844974 2.6339759e-05
  Final line search alpha, max atom move = 1.0000000 2.6339759e-05
  Iterations, force evaluations = 128 256

MPI task timing breakdown:
Section |  min time  |  avg time  |  max time  |%varavg| %total
---------------------------------------------------------------
Pair    | 0.38766    | 1.0794     | 1.4047     |  28.2 | 71.54
Neigh   | 0          | 0          | 0          |   0.0 |  0.00
Comm    | 0.023693   | 0.24707    | 0.73508    |  40.9 | 16.38
Output  | 0          | 0          | 0          |   0.0 |  0.00
Modify  | 1.4985e-05 | 0.0021259  | 0.0045234  |   2.2 |  0.14
Other   |            | 0.1802     |            |       | 11.94

Nlocal:        2776.45 ave        3956 max           0 min
Histogram: 8 4 4 0 4 12 8 0 30 34
Nghost:        3879.01 ave        5424 max         232 min
Histogram: 8 0 8 0 16 0 8 8 16 40
Neighs:        79213.4 ave      115311 max           0 min
Histogram: 8 4 4 0 10 6 8 8 24 32

Total # of neighbors = 8238193
Ave neighs/atom = 28.530440
Neighbor list builds = 0
Dangerous builds = 0
The dot product: 7.12561092625984e-08
Setting atom values ...
  1 settings made for x
  1 settings made for y
  1 settings made for z
Setting up cg style minimization ...
  Unit style    : metal
  Current step  : 1638
Per MPI rank memory allocation (min/avg/max) = 5.441 | 5.816 | 6.074 Mbytes
Step PotEng KinEng TotEng v_fx v_fy v_fz 
    1638   -1152449.4            0   -1152449.4 -0.0045053093 -0.0046485932 -0.0015710789 
    1784   -1152449.4            0   -1152449.4 6.9510094e-06 -2.0059528e-06 -3.1002843e-05 
Loop time of 1.74471 on 104 procs for 146 steps with 288751 atoms

99.9% CPU use with 104 MPI tasks x 1 OpenMP threads

Minimization stats:
  Stopping criterion = energy tolerance
  Energy initial, next-to-last, final = 
     -1152449.36685549  -1152449.36801254  -1152449.36801254
  Force two-norm initial, final = 0.15091833 0.0001812725
  Force max component initial, final = 0.10982882 3.1002843e-05
  Final line search alpha, max atom move = 1.0000000 3.1002843e-05
  Iterations, force evaluations = 146 292

MPI task timing breakdown:
Section |  min time  |  avg time  |  max time  |%varavg| %total
---------------------------------------------------------------
Pair    | 0.43758    | 1.2315     | 1.6355     |  30.2 | 70.59
Neigh   | 0          | 0          | 0          |   0.0 |  0.00
Comm    | 0.027802   | 0.28894    | 0.85357    |  43.1 | 16.56
Output  | 0          | 0          | 0          |   0.0 |  0.00
Modify  | 1.852e-05  | 0.0024201  | 0.005151   |   2.3 |  0.14
Other   |            | 0.2218     |            |       | 12.71

Nlocal:        2776.45 ave        3952 max           0 min
Histogram: 8 4 4 0 4 12 8 0 30 34
Nghost:        3879.01 ave        5424 max         232 min
Histogram: 8 0 8 0 16 0 8 8 16 40
Neighs:        79213.4 ave      115179 max           0 min
Histogram: 8 4 4 0 10 6 8 8 24 32

Total # of neighbors = 8238192
Ave neighs/atom = 28.530436
Neighbor list builds = 0
Dangerous builds = 0
The dot product: 1.36255686360006e-08
Setting atom values ...
  1 settings made for x
  1 settings made for y
  1 settings made for z
Setting up cg style minimization ...
  Unit style    : metal
  Current step  : 1784
Per MPI rank memory allocation (min/avg/max) = 5.441 | 5.816 | 6.074 Mbytes
Step PotEng KinEng TotEng v_fx v_fy v_fz 
    1784   -1152449.4            0   -1152449.4 -0.0006718348 -0.00079706727 -0.00072211389 
    1956   -1152449.4            0   -1152449.4 -1.8838786e-05 -2.2576971e-05 -2.1106247e-05 
Loop time of 1.99477 on 104 procs for 172 steps with 288751 atoms

99.9% CPU use with 104 MPI tasks x 1 OpenMP threads

Minimization stats:
  Stopping criterion = energy tolerance
  Energy initial, next-to-last, final = 
     -1152449.35116307  -1152449.35230816  -1152449.35230816
  Force two-norm initial, final = 0.15187679 0.00013454945
  Force max component initial, final = 0.11134695 2.2576971e-05
  Final line search alpha, max atom move = 1.0000000 2.2576971e-05
  Iterations, force evaluations = 172 344

MPI task timing breakdown:
Section |  min time  |  avg time  |  max time  |%varavg| %total
---------------------------------------------------------------
Pair    | 0.51609    | 1.4393     | 1.8711     |  32.5 | 72.15
Neigh   | 0          | 0          | 0          |   0.0 |  0.00
Comm    | 0.031479   | 0.3246     | 0.96593    |  47.6 | 16.27
Output  | 0          | 0          | 0          |   0.0 |  0.00
Modify  | 2.0149e-05 | 0.0028414  | 0.0060509  |   2.5 |  0.14
Other   |            | 0.228      |            |       | 11.43

Nlocal:        2776.45 ave        3948 max           0 min
Histogram: 8 4 4 0 4 12 8 0 28 36
Nghost:        3879.01 ave        5424 max         232 min
Histogram: 8 0 8 0 16 0 8 8 16 40
Neighs:        79213.4 ave      115048 max           0 min
Histogram: 8 4 4 0 10 6 8 8 24 32

Total # of neighbors = 8238192
Ave neighs/atom = 28.530436
Neighbor list builds = 0
Dangerous builds = 0
The dot product: 9.48407767095103e-08
Setting atom values ...
  1 settings made for x
  1 settings made for y
  1 settings made for z
Setting up cg style minimization ...
  Unit style    : metal
  Current step  : 1956
Per MPI rank memory allocation (min/avg/max) = 5.441 | 5.816 | 6.074 Mbytes
Step PotEng KinEng TotEng v_fx v_fy v_fz 
    1956   -1152449.3            0   -1152449.3 0.0030320207 0.0027172898 0.00017129147 
    2000   -1152449.3            0   -1152449.3 1.1058289e-05 -2.7156577e-05 -0.00014395039 
    2096   -1152449.3            0   -1152449.3 6.4162389e-06 2.154109e-06 -1.366369e-05 
Loop time of 1.6387 on 104 procs for 140 steps with 288751 atoms

99.9% CPU use with 104 MPI tasks x 1 OpenMP threads

Minimization stats:
  Stopping criterion = energy tolerance
  Energy initial, next-to-last, final = 
     -1152449.33404425  -1152449.33518054  -1152449.33518054
  Force two-norm initial, final = 0.15307255 0.00012103855
  Force max component initial, final = 0.11306311 3.0401548e-05
  Final line search alpha, max atom move = 1.0000000 3.0401548e-05
  Iterations, force evaluations = 140 280

MPI task timing breakdown:
Section |  min time  |  avg time  |  max time  |%varavg| %total
---------------------------------------------------------------
Pair    | 0.42026    | 1.1783     | 1.5383     |  29.4 | 71.90
Neigh   | 0          | 0          | 0          |   0.0 |  0.00
Comm    | 0.024559   | 0.2689     | 0.79495    |  42.9 | 16.41
Output  | 0.00022234 | 0.00022572 | 0.00032757 |   0.0 |  0.01
Modify  | 1.6275e-05 | 0.0023215  | 0.0049438  |   2.3 |  0.14
Other   |            | 0.189      |            |       | 11.53

Nlocal:        2776.45 ave        3942 max           0 min
Histogram: 8 4 4 0 4 12 8 0 28 36
Nghost:        3878.99 ave        5424 max         232 min
Histogram: 8 0 8 0 16 0 8 8 16 40
Neighs:        79213.4 ave      114836 max           0 min
Histogram: 8 4 4 0 10 6 8 8 22 34

Total # of neighbors = 8238191
Ave neighs/atom = 28.530433
Neighbor list builds = 0
Dangerous builds = 0
The dot product: 1.92840895115253e-09
Setting atom values ...
  1 settings made for x
  1 settings made for y
  1 settings made for z
Setting up cg style minimization ...
  Unit style    : metal
  Current step  : 2096
Per MPI rank memory allocation (min/avg/max) = 5.441 | 5.816 | 6.074 Mbytes
Step PotEng KinEng TotEng v_fx v_fy v_fz 
    2096   -1152449.3            0   -1152449.3 0.0065830255 0.0059675871 0.00092667091 
    2240   -1152449.3            0   -1152449.3 2.6446545e-05 1.6679805e-05 -2.5372618e-05 
Loop time of 1.68517 on 104 procs for 144 steps with 288751 atoms

99.9% CPU use with 104 MPI tasks x 1 OpenMP threads

Minimization stats:
  Stopping criterion = energy tolerance
  Energy initial, next-to-last, final = 
     -1152449.31547909  -1152449.31661472  -1152449.31661472
  Force two-norm initial, final = 0.15455443 0.00016189499
  Force max component initial, final = 0.11499286 4.1400829e-05
  Final line search alpha, max atom move = 1.0000000 4.1400829e-05
  Iterations, force evaluations = 144 288

MPI task timing breakdown:
Section |  min time  |  avg time  |  max time  |%varavg| %total
---------------------------------------------------------------
Pair    | 0.43223    | 1.2073     | 1.5765     |  29.8 | 71.64
Neigh   | 0          | 0          | 0          |   0.0 |  0.00
Comm    | 0.025026   | 0.27627    | 0.82311    |  43.3 | 16.39
Output  | 0          | 0          | 0          |   0.0 |  0.00
Modify  | 1.6573e-05 | 0.0023872  | 0.0050936  |   2.3 |  0.14
Other   |            | 0.1992     |            |       | 11.82

Nlocal:        2776.45 ave        3932 max           0 min
Histogram: 8 4 4 0 4 12 8 0 26 38
Nghost:        3879.01 ave        5424 max         232 min
Histogram: 8 0 8 0 16 0 8 8 16 40
Neighs:        79213.4 ave      114524 max           0 min
Histogram: 8 4 4 0 8 8 8 8 20 36

Total # of neighbors = 8238191
Ave neighs/atom = 28.530433
Neighbor list builds = 0
Dangerous builds = 0
The dot product: 8.15462497494881e-09
Setting atom values ...
  1 settings made for x
  1 settings made for y
  1 settings made for z
Setting up cg style minimization ...
  Unit style    : metal
  Current step  : 2240
Per MPI rank memory allocation (min/avg/max) = 5.441 | 5.816 | 6.074 Mbytes
Step PotEng KinEng TotEng v_fx v_fy v_fz 
    2240   -1152449.3            0   -1152449.3 0.0099559338 0.0090520466  0.001615897 
    2362   -1152449.3            0   -1152449.3 -7.5650894e-06 -9.7145841e-06 -1.2714046e-05 
Loop time of 1.42173 on 104 procs for 122 steps with 288751 atoms

99.9% CPU use with 104 MPI tasks x 1 OpenMP threads

Minimization stats:
  Stopping criterion = energy tolerance
  Energy initial, next-to-last, final = 
     -1152449.29545753  -1152449.29660049  -1152449.29660049
  Force two-norm initial, final = 0.15632446 0.00019209437
  Force max component initial, final = 0.11708428 2.5311783e-05
  Final line search alpha, max atom move = 1.0000000 2.5311783e-05
  Iterations, force evaluations = 122 244

MPI task timing breakdown:
Section |  min time  |  avg time  |  max time  |%varavg| %total
---------------------------------------------------------------
Pair    | 0.36639    | 1.0278     | 1.3365     |  27.5 | 72.29
Neigh   | 0          | 0          | 0          |   0.0 |  0.00
Comm    | 0.021707   | 0.23301    | 0.69496    |  40.2 | 16.39
Output  | 0          | 0          | 0          |   0.0 |  0.00
Modify  | 1.4129e-05 | 0.0020242  | 0.0043238  |   2.1 |  0.14
Other   |            | 0.1589     |            |       | 11.18

Nlocal:        2776.45 ave        3930 max           0 min
Histogram: 8 4 4 0 4 12 8 0 26 38
Nghost:        3878.97 ave        5424 max         232 min
Histogram: 8 0 8 0 16 0 8 8 16 40
Neighs:        79213.4 ave      114464 max           0 min
Histogram: 8 4 4 0 8 8 8 8 20 36

Total # of neighbors = 8238191
Ave neighs/atom = 28.530433
Neighbor list builds = 0
Dangerous builds = 0
The dot product: -2.248403517074e-09
Setting atom values ...
  1 settings made for x
  1 settings made for y
  1 settings made for z
Setting up cg style minimization ...
  Unit style    : metal
  Current step  : 2362
Per MPI rank memory allocation (min/avg/max) = 5.441 | 5.816 | 6.074 Mbytes
Step PotEng KinEng TotEng v_fx v_fy v_fz 
    2362   -1152449.3            0   -1152449.3  0.013163338  0.012029579 0.0021334091 
    2539   -1152449.3            0   -1152449.3 1.2196313e-06 6.3861794e-06 2.1737882e-05 
Loop time of 2.08824 on 104 procs for 177 steps with 288751 atoms

99.9% CPU use with 104 MPI tasks x 1 OpenMP threads

Minimization stats:
  Stopping criterion = energy tolerance
  Energy initial, next-to-last, final = 
     -1152449.27397302  -1152449.27513307  -1152449.27513307
  Force two-norm initial, final = 0.15845402 0.00010058909
  Force max component initial, final = 0.11940086 2.1737882e-05
  Final line search alpha, max atom move = 1.0000000 2.1737882e-05
  Iterations, force evaluations = 177 354

MPI task timing breakdown:
Section |  min time  |  avg time  |  max time  |%varavg| %total
---------------------------------------------------------------
Pair    | 0.53207    | 1.4823     | 1.9279     |  33.0 | 70.98
Neigh   | 0          | 0          | 0          |   0.0 |  0.00
Comm    | 0.030502   | 0.34085    | 1.0029     |  47.5 | 16.32
Output  | 0          | 0          | 0          |   0.0 |  0.00
Modify  | 2.0672e-05 | 0.0029303  | 0.006245   |   2.5 |  0.14
Other   |            | 0.2621     |            |       | 12.55

Nlocal:        2776.45 ave        3930 max           0 min
Histogram: 8 4 4 0 4 12 8 0 26 38
Nghost:        3879.07 ave        5424 max         232 min
Histogram: 8 0 8 0 16 0 8 8 16 40
Neighs:        79213.3 ave      114464 max           0 min
Histogram: 8 4 4 0 8 8 8 8 20 36

Total # of neighbors = 8238188
Ave neighs/atom = 28.530422
Neighbor list builds = 0
Dangerous builds = 0
The dot product: -7.53519015141677e-10
Setting atom values ...
  1 settings made for x
  1 settings made for y
  1 settings made for z
Setting up cg style minimization ...
  Unit style    : metal
  Current step  : 2539
Per MPI rank memory allocation (min/avg/max) = 5.441 | 5.816 | 6.074 Mbytes
Step PotEng KinEng TotEng v_fx v_fy v_fz 
    2539   -1152449.3            0   -1152449.3   0.01626281  0.015018994 0.0025274379 
    2718   -1152449.3            0   -1152449.3 -4.1699251e-06 -1.320595e-06 9.7249136e-06 
Loop time of 2.11834 on 104 procs for 179 steps with 288751 atoms

99.9% CPU use with 104 MPI tasks x 1 OpenMP threads

Minimization stats:
  Stopping criterion = energy tolerance
  Energy initial, next-to-last, final = 
     -1152449.25102539  -1152449.25221195  -1152449.25221195
  Force two-norm initial, final = 0.16099276 8.4480197e-05
  Force max component initial, final = 0.12184501 1.6406509e-05
  Final line search alpha, max atom move = 1.0000000 1.6406509e-05
  Iterations, force evaluations = 179 358

MPI task timing breakdown:
Section |  min time  |  avg time  |  max time  |%varavg| %total
---------------------------------------------------------------
Pair    | 0.53527    | 1.5124     | 1.983      |  33.4 | 71.40
Neigh   | 0          | 0          | 0          |   0.0 |  0.00
Comm    | 0.031799   | 0.34888    | 1.0273     |  48.1 | 16.47
Output  | 0          | 0          | 0          |   0.0 |  0.00
Modify  | 2.0841e-05 | 0.0029714  | 0.0063336  |   2.5 |  0.14
Other   |            | 0.2541     |            |       | 11.99

Nlocal:        2776.45 ave        3930 max           0 min
Histogram: 8 4 4 0 4 12 8 0 26 38
Nghost:        3879.07 ave        5424 max         232 min
Histogram: 8 0 8 0 16 0 8 8 16 40
Neighs:        79213.3 ave      114468 max           0 min
Histogram: 8 4 4 0 8 8 8 8 20 36

Total # of neighbors = 8238188
Ave neighs/atom = 28.530422
Neighbor list builds = 0
Dangerous builds = 0
The dot product: -1.69082190663868e-08
Setting atom values ...
  1 settings made for x
  1 settings made for y
  1 settings made for z
Setting up cg style minimization ...
  Unit style    : metal
  Current step  : 2718
Per MPI rank memory allocation (min/avg/max) = 5.441 | 5.816 | 6.074 Mbytes
Step PotEng KinEng TotEng v_fx v_fy v_fz 
    2718   -1152449.2            0   -1152449.2  0.019168666  0.017914458 0.0025036592 
    2856   -1152449.2            0   -1152449.2 -2.3170066e-06 -2.4266643e-06 -1.3729465e-06 
Loop time of 1.59384 on 104 procs for 138 steps with 288751 atoms

99.9% CPU use with 104 MPI tasks x 1 OpenMP threads

Minimization stats:
  Stopping criterion = energy tolerance
  Energy initial, next-to-last, final = 
     -1152449.22661799  -1152449.22784187  -1152449.22784187
  Force two-norm initial, final = 0.16398162 0.00012107619
  Force max component initial, final = 0.12448925 9.9776039e-06
  Final line search alpha, max atom move = 1.0000000 9.9776039e-06
  Iterations, force evaluations = 138 276

MPI task timing breakdown:
Section |  min time  |  avg time  |  max time  |%varavg| %total
---------------------------------------------------------------
Pair    | 0.41301    | 1.1577     | 1.5016     |  29.2 | 72.64
Neigh   | 0          | 0          | 0          |   0.0 |  0.00
Comm    | 0.024481   | 0.2615     | 0.78342    |  43.0 | 16.41
Output  | 0          | 0          | 0          |   0.0 |  0.00
Modify  | 1.6329e-05 | 0.0022818  | 0.0048665  |   2.2 |  0.14
Other   |            | 0.1724     |            |       | 10.81

Nlocal:        2776.45 ave        3930 max           0 min
Histogram: 8 4 4 0 4 12 8 0 26 38
Nghost:        3879.07 ave        5424 max         232 min
Histogram: 8 0 8 0 16 0 8 8 16 40
Neighs:        79213.3 ave      114475 max           0 min
Histogram: 8 4 4 0 8 8 8 8 20 36

Total # of neighbors = 8238188
Ave neighs/atom = 28.530422
Neighbor list builds = 0
Dangerous builds = 0
The dot product: -1.33535373208466e-08
Setting atom values ...
  1 settings made for x
  1 settings made for y
  1 settings made for z
Setting up cg style minimization ...
  Unit style    : metal
  Current step  : 2856
Per MPI rank memory allocation (min/avg/max) = 5.441 | 5.816 | 6.074 Mbytes
Step PotEng KinEng TotEng v_fx v_fy v_fz 
    2856   -1152449.2            0   -1152449.2  0.021799895  0.020704241 0.0022105586 
    3000   -1152449.2            0   -1152449.2 8.7152676e-06 1.3766845e-05 2.3305614e-05 
    3046   -1152449.2            0   -1152449.2 -2.0383033e-06 -4.8647022e-06 -1.2169326e-05 
Loop time of 2.22963 on 104 procs for 190 steps with 288751 atoms

99.9% CPU use with 104 MPI tasks x 1 OpenMP threads

Minimization stats:
  Stopping criterion = energy tolerance
  Energy initial, next-to-last, final = 
     -1152449.20076289   -1152449.2020346   -1152449.2020346
  Force two-norm initial, final = 0.16740022 5.4480264e-05
  Force max component initial, final = 0.12730622 1.2169326e-05
  Final line search alpha, max atom move = 1.0000000 1.2169326e-05
  Iterations, force evaluations = 190 380

MPI task timing breakdown:
Section |  min time  |  avg time  |  max time  |%varavg| %total
---------------------------------------------------------------
Pair    | 0.56777    | 1.602      | 2.0963     |  34.3 | 71.85
Neigh   | 0          | 0          | 0          |   0.0 |  0.00
Comm    | 0.032921   | 0.36781    | 1.0904     |  49.9 | 16.50
Output  | 0.00026631 | 0.00027    | 0.0004181  |   0.0 |  0.01
Modify  | 2.2856e-05 | 0.003144   | 0.0067136  |   2.6 |  0.14
Other   |            | 0.2564     |            |       | 11.50

Nlocal:        2776.45 ave        3930 max           0 min
Histogram: 8 4 4 0 4 12 8 0 26 38
Nghost:        3879.07 ave        5424 max         232 min
Histogram: 8 0 8 0 16 0 8 8 16 40
Neighs:        79213.3 ave      114475 max           0 min
Histogram: 8 4 4 0 8 8 8 8 20 36

Total # of neighbors = 8238183
Ave neighs/atom = 28.530405
Neighbor list builds = 0
Dangerous builds = 0
The dot product: -1.87266105114706e-08
Setting atom values ...
  1 settings made for x
  1 settings made for y
  1 settings made for z
Setting up cg style minimization ...
  Unit style    : metal
  Current step  : 3046
Per MPI rank memory allocation (min/avg/max) = 5.441 | 5.816 | 6.074 Mbytes
Step PotEng KinEng TotEng v_fx v_fy v_fz 
    3046   -1152449.2            0   -1152449.2  0.025208754  0.024365743 0.0014809236 
    3175   -1152449.2            0   -1152449.2 5.7764018e-07 -8.4392244e-07 -5.6643894e-06 
Loop time of 1.52739 on 104 procs for 129 steps with 288751 atoms

99.9% CPU use with 104 MPI tasks x 1 OpenMP threads

Minimization stats:
  Stopping criterion = energy tolerance
  Energy initial, next-to-last, final = 
     -1152449.17348596  -1152449.17482715  -1152449.17482715
  Force two-norm initial, final = 0.17142518 0.00013295694
  Force max component initial, final = 0.1302267 1.7786508e-05
  Final line search alpha, max atom move = 1.0000000 1.7786508e-05
  Iterations, force evaluations = 129 258

MPI task timing breakdown:
Section |  min time  |  avg time  |  max time  |%varavg| %total
---------------------------------------------------------------
Pair    | 0.38889    | 1.089      | 1.4262     |  28.4 | 71.30
Neigh   | 0          | 0          | 0          |   0.0 |  0.00
Comm    | 0.027646   | 0.25145    | 0.74559    |  40.9 | 16.46
Output  | 0          | 0          | 0          |   0.0 |  0.00
Modify  | 1.6372e-05 | 0.0021432  | 0.0045906  |   2.2 |  0.14
Other   |            | 0.1848     |            |       | 12.10

Nlocal:        2776.45 ave        3930 max           0 min
Histogram: 8 4 4 0 4 12 8 0 26 38
Nghost:        3879.07 ave        5424 max         232 min
Histogram: 8 0 8 0 16 0 8 8 16 40
Neighs:        79213.3 ave      114475 max           0 min
Histogram: 8 4 4 0 8 8 8 8 20 36

Total # of neighbors = 8238183
Ave neighs/atom = 28.530405
Neighbor list builds = 0
Dangerous builds = 0
The dot product: 3.87407627777637e-09
Setting atom values ...
  1 settings made for x
  1 settings made for y
  1 settings made for z
Setting up cg style minimization ...
  Unit style    : metal
  Current step  : 3175
Per MPI rank memory allocation (min/avg/max) = 5.441 | 5.816 | 6.074 Mbytes
Step PotEng KinEng TotEng v_fx v_fy v_fz 
    3175   -1152449.1            0   -1152449.1    0.0303444  0.029049346 -0.0037115351 
    3347   -1152449.1            0   -1152449.1 6.0522253e-06 3.9787611e-06 -8.0829684e-06 
Loop time of 2.0092 on 104 procs for 172 steps with 288751 atoms

99.9% CPU use with 104 MPI tasks x 1 OpenMP threads

Minimization stats:
  Stopping criterion = energy tolerance
  Energy initial, next-to-last, final = 
     -1152449.14482321  -1152449.14628788  -1152449.14628788
  Force two-norm initial, final = 0.17602585 0.00015047508
  Force max component initial, final = 0.13341781 4.1044746e-05
  Final line search alpha, max atom move = 1.0000000 4.1044746e-05
  Iterations, force evaluations = 172 344

MPI task timing breakdown:
Section |  min time  |  avg time  |  max time  |%varavg| %total
---------------------------------------------------------------
Pair    | 0.51536    | 1.4456     | 1.8906     |  32.6 | 71.95
Neigh   | 0          | 0          | 0          |   0.0 |  0.00
Comm    | 0.03043    | 0.33015    | 0.97892    |  47.4 | 16.43
Output  | 0          | 0          | 0          |   0.0 |  0.00
Modify  | 2.0003e-05 | 0.0028472  | 0.0060967  |   2.5 |  0.14
Other   |            | 0.2306     |            |       | 11.48

Nlocal:        2776.45 ave        3930 max           0 min
Histogram: 8 4 4 0 4 12 8 0 26 38
Nghost:        3879.07 ave        5424 max         232 min
Histogram: 8 0 8 0 16 0 8 8 16 40
Neighs:        79213.3 ave      114475 max           0 min
Histogram: 8 4 4 0 8 8 8 8 20 36

Total # of neighbors = 8238185
Ave neighs/atom = 28.530412
Neighbor list builds = 0
Dangerous builds = 0
The dot product: 9.06659113808441e-08
Setting atom values ...
  1 settings made for x
  1 settings made for y
  1 settings made for z
Setting up cg style minimization ...
  Unit style    : metal
  Current step  : 3347
Per MPI rank memory allocation (min/avg/max) = 5.441 | 5.816 | 6.074 Mbytes
Step PotEng KinEng TotEng v_fx v_fy v_fz 
    3347   -1152449.1            0   -1152449.1  0.038990031  0.036286741 -0.017110085 
    3475   -1152449.1            0   -1152449.1 2.6854866e-06 5.4903537e-06 1.1006499e-05 
Loop time of 1.49263 on 104 procs for 128 steps with 288751 atoms

99.9% CPU use with 104 MPI tasks x 1 OpenMP threads

Minimization stats:
  Stopping criterion = energy tolerance
  Energy initial, next-to-last, final = 
     -1152449.11471513  -1152449.11645495  -1152449.11645495
  Force two-norm initial, final = 0.18321843 0.00011619699
  Force max component initial, final = 0.13699879 1.1006499e-05
  Final line search alpha, max atom move = 1.0000000 1.1006499e-05
  Iterations, force evaluations = 128 256

MPI task timing breakdown:
Section |  min time  |  avg time  |  max time  |%varavg| %total
---------------------------------------------------------------
Pair    | 0.38586    | 1.0734     | 1.3926     |  28.1 | 71.91
Neigh   | 0          | 0          | 0          |   0.0 |  0.00
Comm    | 0.023122   | 0.24398    | 0.72696    |  41.0 | 16.35
Output  | 0          | 0          | 0          |   0.0 |  0.00
Modify  | 1.5349e-05 | 0.0021268  | 0.0045322  |   2.2 |  0.14
Other   |            | 0.1732     |            |       | 11.60

Nlocal:        2776.45 ave        3930 max           0 min
Histogram: 8 4 4 0 4 12 8 0 26 38
Nghost:        3879.06 ave        5424 max         232 min
Histogram: 8 0 8 0 16 0 8 8 16 40
Neighs:        79213.3 ave      114475 max           0 min
Histogram: 8 4 4 0 8 8 8 8 20 36

Total # of neighbors = 8238183
Ave neighs/atom = 28.530405
Neighbor list builds = 0
Dangerous builds = 0
The dot product: 2.98317919472368e-08
Setting atom values ...
  1 settings made for x
  1 settings made for y
  1 settings made for z
Setting up cg style minimization ...
  Unit style    : metal
  Current step  : 3475
Per MPI rank memory allocation (min/avg/max) = 5.441 | 5.816 | 6.074 Mbytes
Step PotEng KinEng TotEng v_fx v_fy v_fz 
    3475   -1152449.1            0   -1152449.1  0.047944361  0.046373152 -0.029247389 
    3623   -1152449.1            0   -1152449.1 -3.9850907e-06 -4.8832216e-06 -1.9088629e-06 
Loop time of 1.74963 on 104 procs for 148 steps with 288751 atoms

99.9% CPU use with 104 MPI tasks x 1 OpenMP threads

Minimization stats:
  Stopping criterion = energy tolerance
  Energy initial, next-to-last, final = 
      -1152449.0832794   -1152449.0853449   -1152449.0853449
  Force two-norm initial, final = 0.19294355 4.7611305e-05
  Force max component initial, final = 0.14125786 7.9852601e-06
  Final line search alpha, max atom move = 1.0000000 7.9852601e-06
  Iterations, force evaluations = 148 296

MPI task timing breakdown:
Section |  min time  |  avg time  |  max time  |%varavg| %total
---------------------------------------------------------------
Pair    | 0.44407    | 1.2509     | 1.6482     |  30.4 | 71.49
Neigh   | 0          | 0          | 0          |   0.0 |  0.00
Comm    | 0.027199   | 0.28978    | 0.85968    |  43.7 | 16.56
Output  | 0          | 0          | 0          |   0.0 |  0.00
Modify  | 1.7193e-05 | 0.002457   | 0.005227   |   2.3 |  0.14
Other   |            | 0.2065     |            |       | 11.80

Nlocal:        2776.45 ave        3930 max           0 min
Histogram: 8 4 4 0 4 12 8 0 26 38
Nghost:        3879.06 ave        5424 max         232 min
Histogram: 8 0 8 0 16 0 8 8 16 40
Neighs:        79213.3 ave      114475 max           0 min
Histogram: 8 4 4 0 8 8 8 8 20 36

Total # of neighbors = 8238183
Ave neighs/atom = 28.530405
Neighbor list builds = 0
Dangerous builds = 0
The dot product: -9.73952103714223e-08
Setting atom values ...
  1 settings made for x
  1 settings made for y
  1 settings made for z
Setting up cg style minimization ...
  Unit style    : metal
  Current step  : 3623
Per MPI rank memory allocation (min/avg/max) = 5.441 | 5.816 | 6.074 Mbytes
Step PotEng KinEng TotEng v_fx v_fy v_fz 
    3623   -1152449.1            0   -1152449.1  0.053140608  0.055542705 -0.037887038 
    3745   -1152449.1            0   -1152449.1 3.1166269e-05 2.7942314e-05 -4.3020018e-05 
Loop time of 1.4281 on 104 procs for 122 steps with 288751 atoms

99.9% CPU use with 104 MPI tasks x 1 OpenMP threads

Minimization stats:
  Stopping criterion = energy tolerance
  Energy initial, next-to-last, final = 
     -1152449.05062487  -1152449.05295829  -1152449.05295829
  Force two-norm initial, final = 0.20169362 0.00025551695
  Force max component initial, final = 0.14558848 7.1769084e-05
  Final line search alpha, max atom move = 1.0000000 7.1769084e-05
  Iterations, force evaluations = 122 244

MPI task timing breakdown:
Section |  min time  |  avg time  |  max time  |%varavg| %total
---------------------------------------------------------------
Pair    | 0.36599    | 1.0227     | 1.3364     |  27.4 | 71.62
Neigh   | 0          | 0          | 0          |   0.0 |  0.00
Comm    | 0.027096   | 0.23483    | 0.69532    |  39.8 | 16.44
Output  | 0          | 0          | 0          |   0.0 |  0.00
Modify  | 1.4547e-05 | 0.0020222  | 0.0043082  |   2.1 |  0.14
Other   |            | 0.1685     |            |       | 11.80

Nlocal:        2776.45 ave        3930 max           0 min
Histogram: 8 4 4 0 4 12 8 0 26 38
Nghost:        3879.07 ave        5424 max         232 min
Histogram: 8 0 8 0 16 0 8 8 16 40
Neighs:        79213.3 ave      114475 max           0 min
Histogram: 8 4 4 0 8 8 8 8 20 36

Total # of neighbors = 8238182
Ave neighs/atom = 28.530402
Neighbor list builds = 0
Dangerous builds = 0
The dot product: 1.20294946341149e-06
Setting atom values ...
  1 settings made for x
  1 settings made for y
  1 settings made for z
Setting up cg style minimization ...
  Unit style    : metal
  Current step  : 3745
Per MPI rank memory allocation (min/avg/max) = 5.441 | 5.816 | 6.074 Mbytes
Step PotEng KinEng TotEng v_fx v_fy v_fz 
    3745     -1152449            0     -1152449   0.05513162  0.062090538 -0.050386421 
    3963     -1152449            0     -1152449 3.1415538e-06 2.7859686e-06 -6.5942356e-06 
Loop time of 2.55225 on 104 procs for 218 steps with 288751 atoms

99.9% CPU use with 104 MPI tasks x 1 OpenMP threads

Minimization stats:
  Stopping criterion = energy tolerance
  Energy initial, next-to-last, final = 
     -1152449.01681751  -1152449.01940322  -1152449.01940322
  Force two-norm initial, final = 0.20998117 4.3213650e-05
  Force max component initial, final = 0.14969844 1.0119640e-05
  Final line search alpha, max atom move = 1.0000000 1.0119640e-05
  Iterations, force evaluations = 218 436

MPI task timing breakdown:
Section |  min time  |  avg time  |  max time  |%varavg| %total
---------------------------------------------------------------
Pair    | 0.65249    | 1.8399     | 2.3905     |  36.8 | 72.09
Neigh   | 0          | 0          | 0          |   0.0 |  0.00
Comm    | 0.038539   | 0.41908    | 1.255      |  54.0 | 16.42
Output  | 0          | 0          | 0          |   0.0 |  0.00
Modify  | 2.5569e-05 | 0.0036046  | 0.0076995  |   2.8 |  0.14
Other   |            | 0.2897     |            |       | 11.35

Nlocal:        2776.45 ave        3930 max           0 min
Histogram: 8 4 4 0 4 12 8 0 26 38
Nghost:        3879.07 ave        5424 max         232 min
Histogram: 8 0 8 0 16 0 8 8 16 40
Neighs:        79213.2 ave      114475 max           0 min
Histogram: 8 4 4 0 8 8 8 8 20 36

Total # of neighbors = 8238178
Ave neighs/atom = 28.530388
Neighbor list builds = 0
Dangerous builds = 0
The dot product: 1.68038213047436e-07
Setting atom values ...
  1 settings made for x
  1 settings made for y
  1 settings made for z
Setting up cg style minimization ...
  Unit style    : metal
  Current step  : 3963
Per MPI rank memory allocation (min/avg/max) = 5.441 | 5.816 | 6.074 Mbytes
Step PotEng KinEng TotEng v_fx v_fy v_fz 
    3963     -1152449            0     -1152449  0.053650539   0.06510789  -0.06870143 
    4000     -1152449            0     -1152449 -0.00031078162 -0.00043048397 7.9521722e-05 
    4143     -1152449            0     -1152449 1.4240471e-05 1.8048453e-05 -1.3656658e-05 
Loop time of 2.09087 on 104 procs for 180 steps with 288751 atoms

99.9% CPU use with 104 MPI tasks x 1 OpenMP threads

Minimization stats:
  Stopping criterion = energy tolerance
  Energy initial, next-to-last, final = 
     -1152448.98210595  -1152448.98488786  -1152448.98488786
  Force two-norm initial, final = 0.21847644 0.00019138383
  Force max component initial, final = 0.153559 4.7917921e-05
  Final line search alpha, max atom move = 1.0000000 4.7917921e-05
  Iterations, force evaluations = 180 360

MPI task timing breakdown:
Section |  min time  |  avg time  |  max time  |%varavg| %total
---------------------------------------------------------------
Pair    | 0.53969    | 1.5079     | 1.9701     |  33.3 | 72.12
Neigh   | 0          | 0          | 0          |   0.0 |  0.00
Comm    | 0.032145   | 0.34374    | 1.0297     |  48.6 | 16.44
Output  | 0.00016331 | 0.00016564 | 0.00026729 |   0.0 |  0.01
Modify  | 2.0869e-05 | 0.0029838  | 0.0063874  |   2.6 |  0.14
Other   |            | 0.2361     |            |       | 11.29

Nlocal:        2776.45 ave        3930 max           0 min
Histogram: 8 4 4 0 4 12 8 0 26 38
Nghost:        3878.98 ave        5424 max         232 min
Histogram: 8 0 8 0 16 0 8 8 16 40
Neighs:        79213.2 ave      114474 max           0 min
Histogram: 8 4 4 0 8 8 8 8 20 36

Total # of neighbors = 8238178
Ave neighs/atom = 28.530388
Neighbor list builds = 0
Dangerous builds = 0
The dot product: 6.55100153337774e-07
Setting atom values ...
  1 settings made for x
  1 settings made for y
  1 settings made for z
Setting up cg style minimization ...
  Unit style    : metal
  Current step  : 4143
Per MPI rank memory allocation (min/avg/max) = 5.441 | 5.816 | 6.074 Mbytes
Step PotEng KinEng TotEng v_fx v_fy v_fz 
    4143   -1152448.9            0   -1152448.9  0.047450156  0.063638609 -0.081760041 
    4537     -1152449            0     -1152449 2.5413424e-06 1.8010713e-06 -1.7832968e-05 
Loop time of 4.65813 on 104 procs for 394 steps with 288751 atoms

99.9% CPU use with 104 MPI tasks x 1 OpenMP threads

Minimization stats:
  Stopping criterion = energy tolerance
  Energy initial, next-to-last, final = 
     -1152448.94672231  -1152448.98109516  -1152448.98109516
  Force two-norm initial, final = 0.22442327 8.5472233e-05
  Force max component initial, final = 0.15712276 2.1829559e-05
  Final line search alpha, max atom move = 1.0000000 2.1829559e-05
  Iterations, force evaluations = 394 786

MPI task timing breakdown:
Section |  min time  |  avg time  |  max time  |%varavg| %total
---------------------------------------------------------------
Pair    | 1.1876     | 3.3179     | 4.3534     |  49.2 | 71.23
Neigh   | 2.1289e-05 | 0.0058332  | 0.0084804  |   3.2 |  0.13
Comm    | 0.068002   | 0.77102    | 2.2593     |  70.8 | 16.55
Output  | 0          | 0          | 0          |   0.0 |  0.00
Modify  | 4.4681e-05 | 0.0064976  | 0.013898   |   3.8 |  0.14
Other   |            | 0.5568     |            |       | 11.95

Nlocal:        2776.45 ave        3950 max           0 min
Histogram: 8 4 4 0 4 12 8 1 27 36
Nghost:        3879.05 ave        5426 max         232 min
Histogram: 8 0 8 0 16 0 8 8 16 40
Neighs:        79213.3 ave      115119 max           0 min
Histogram: 8 4 4 0 10 6 8 8 24 32

Total # of neighbors = 8238183
Ave neighs/atom = 28.530405
Neighbor list builds = 2
Dangerous builds = 0
The dot product: 1.20598730378389e-06
Setting atom values ...
  1 settings made for x
  1 settings made for y
  1 settings made for z
Setting up cg style minimization ...
  Unit style    : metal
  Current step  : 4537
Per MPI rank memory allocation (min/avg/max) = 5.441 | 5.816 | 6.074 Mbytes
Step PotEng KinEng TotEng v_fx v_fy v_fz 
    4537     -1152449            0     -1152449  0.021543411  0.051744034  -0.14005539 
    4747     -1152449            0     -1152449 -1.5052792e-06 -2.1254484e-06 -4.2386516e-06 
Loop time of 2.47362 on 104 procs for 210 steps with 288751 atoms

99.9% CPU use with 104 MPI tasks x 1 OpenMP threads

Minimization stats:
  Stopping criterion = energy tolerance
  Energy initial, next-to-last, final = 
     -1152448.95874358  -1152448.96262577  -1152448.96262577
  Force two-norm initial, final = 0.25576955 9.7896810e-05
  Force max component initial, final = 0.16437664 1.4757645e-05
  Final line search alpha, max atom move = 1.0000000 1.4757645e-05
  Iterations, force evaluations = 210 420

MPI task timing breakdown:
Section |  min time  |  avg time  |  max time  |%varavg| %total
---------------------------------------------------------------
Pair    | 0.62702    | 1.7645     | 2.2941     |  36.2 | 71.33
Neigh   | 0          | 0          | 0          |   0.0 |  0.00
Comm    | 0.037342   | 0.4065     | 1.1992     |  52.1 | 16.43
Output  | 0          | 0          | 0          |   0.0 |  0.00
Modify  | 2.4069e-05 | 0.0034711  | 0.0074485  |   2.8 |  0.14
Other   |            | 0.2991     |            |       | 12.09

Nlocal:        2776.45 ave        3946 max           0 min
Histogram: 8 4 4 0 4 12 8 0 28 36
Nghost:        3879.03 ave        5428 max         232 min
Histogram: 8 0 8 0 16 0 8 8 16 40
Neighs:        79213.3 ave      114990 max           0 min
Histogram: 8 4 4 0 10 6 8 8 24 32

Total # of neighbors = 8238183
Ave neighs/atom = 28.530405
Neighbor list builds = 0
Dangerous builds = 0
The dot product: 9.1798073063779e-08
Setting atom values ...
  1 settings made for x
  1 settings made for y
  1 settings made for z
Setting up cg style minimization ...
  Unit style    : metal
  Current step  : 4747
Per MPI rank memory allocation (min/avg/max) = 5.441 | 5.816 | 6.074 Mbytes
Step PotEng KinEng TotEng v_fx v_fy v_fz 
    4747   -1152448.9            0   -1152448.9 0.0058934362  0.025033597 -0.068580469 
    4916   -1152448.9            0   -1152448.9 -9.9147277e-06 -1.8041815e-05 1.6682365e-06 
Loop time of 2.00539 on 104 procs for 169 steps with 288751 atoms

99.9% CPU use with 104 MPI tasks x 1 OpenMP threads

Minimization stats:
  Stopping criterion = energy tolerance
  Energy initial, next-to-last, final = 
     -1152448.94018405  -1152448.94254824  -1152448.94254824
  Force two-norm initial, final = 0.22365341 0.00012052263
  Force max component initial, final = 0.16596129 2.6084167e-05
  Final line search alpha, max atom move = 1.0000000 2.6084167e-05
  Iterations, force evaluations = 169 338

MPI task timing breakdown:
Section |  min time  |  avg time  |  max time  |%varavg| %total
---------------------------------------------------------------
Pair    | 0.50677    | 1.4245     | 1.8816     |  32.4 | 71.04
Neigh   | 0          | 0          | 0          |   0.0 |  0.00
Comm    | 0.029816   | 0.32995    | 0.97991    |  46.6 | 16.45
Output  | 0          | 0          | 0          |   0.0 |  0.00
Modify  | 1.9604e-05 | 0.002794   | 0.0059692  |   2.5 |  0.14
Other   |            | 0.2481     |            |       | 12.37

Nlocal:        2776.45 ave        3951 max           0 min
Histogram: 8 4 4 0 4 12 8 0 30 34
Nghost:        3879.01 ave        5424 max         232 min
Histogram: 8 0 8 0 16 0 8 8 16 40
Neighs:        79213.3 ave      115130 max           0 min
Histogram: 8 4 4 0 10 6 8 8 24 32

Total # of neighbors = 8238184
Ave neighs/atom = 28.530409
Neighbor list builds = 0
Dangerous builds = 0
The dot product: -1.06762494412136e-07
Setting atom values ...
  1 settings made for x
  1 settings made for y
  1 settings made for z
Setting up cg style minimization ...
  Unit style    : metal
  Current step  : 4916
Per MPI rank memory allocation (min/avg/max) = 5.441 | 5.816 | 6.074 Mbytes
Step PotEng KinEng TotEng v_fx v_fy v_fz 
    4916   -1152448.9            0   -1152448.9 0.0010470041  0.012799219 -0.041457037 
    5000   -1152448.9            0   -1152448.9 -3.0439756e-05 -3.4736545e-05 -7.7928459e-05 
    5068   -1152448.9            0   -1152448.9 -1.3057241e-05 -2.3588867e-05 -3.8093616e-07 
Loop time of 1.77777 on 104 procs for 152 steps with 288751 atoms

99.9% CPU use with 104 MPI tasks x 1 OpenMP threads

Minimization stats:
  Stopping criterion = energy tolerance
  Energy initial, next-to-last, final = 
     -1152448.92010067  -1152448.92238868  -1152448.92238868
  Force two-norm initial, final = 0.22084177 0.00013669592
  Force max component initial, final = 0.16769622 2.3588867e-05
  Final line search alpha, max atom move = 1.0000000 2.3588867e-05
  Iterations, force evaluations = 152 304

MPI task timing breakdown:
Section |  min time  |  avg time  |  max time  |%varavg| %total
---------------------------------------------------------------
Pair    | 0.46166    | 1.2793     | 1.6696     |  30.6 | 71.96
Neigh   | 0          | 0          | 0          |   0.0 |  0.00
Comm    | 0.02695    | 0.2926     | 0.87306    |  44.6 | 16.46
Output  | 0.00024716 | 0.00025008 | 0.00038397 |   0.0 |  0.01
Modify  | 1.7922e-05 | 0.0025149  | 0.0053781  |   2.4 |  0.14
Other   |            | 0.2032     |            |       | 11.43

Nlocal:        2776.45 ave        3951 max           0 min
Histogram: 8 4 4 0 4 12 8 0 30 34
Nghost:        3879.05 ave        5425 max         232 min
Histogram: 8 0 8 0 16 0 8 8 16 40
Neighs:        79213.3 ave      115130 max           0 min
Histogram: 8 4 4 0 10 6 8 8 24 32

Total # of neighbors = 8238185
Ave neighs/atom = 28.530412
Neighbor list builds = 0
Dangerous builds = 0
The dot product: -5.00401634267406e-08
Setting atom values ...
  1 settings made for x
  1 settings made for y
  1 settings made for z
Setting up cg style minimization ...
  Unit style    : metal
  Current step  : 5068
Per MPI rank memory allocation (min/avg/max) = 5.441 | 5.816 | 6.074 Mbytes
Step PotEng KinEng TotEng v_fx v_fy v_fz 
    5068   -1152448.9            0   -1152448.9 -0.00055128229 0.0078911524 -0.030279057 
    5187   -1152448.9            0   -1152448.9 1.0657054e-06 -7.5252309e-07 9.1908931e-06 
Loop time of 1.40666 on 104 procs for 119 steps with 288751 atoms

99.9% CPU use with 104 MPI tasks x 1 OpenMP threads

Minimization stats:
  Stopping criterion = energy tolerance
  Energy initial, next-to-last, final = 
     -1152448.90013359  -1152448.90212255  -1152448.90212255
  Force two-norm initial, final = 0.22080121 0.00028181936
  Force max component initial, final = 0.16966719 5.1638332e-05
  Final line search alpha, max atom move = 1.0000000 5.1638332e-05
  Iterations, force evaluations = 119 238

MPI task timing breakdown:
Section |  min time  |  avg time  |  max time  |%varavg| %total
---------------------------------------------------------------
Pair    | 0.35539    | 1.0031     | 1.3211     |  27.2 | 71.31
Neigh   | 0          | 0          | 0          |   0.0 |  0.00
Comm    | 0.02035    | 0.23044    | 0.68546    |  39.4 | 16.38
Output  | 0          | 0          | 0          |   0.0 |  0.00
Modify  | 1.3847e-05 | 0.0019753  | 0.0042191  |   2.1 |  0.14
Other   |            | 0.1711     |            |       | 12.17

Nlocal:        2776.45 ave        3953 max           0 min
Histogram: 8 4 4 0 4 12 8 0 30 34
Nghost:        3879.05 ave        5425 max         232 min
Histogram: 8 0 8 0 16 0 8 8 16 40
Neighs:        79213.3 ave      115198 max           0 min
Histogram: 8 4 4 0 10 6 8 8 24 32

Total # of neighbors = 8238182
Ave neighs/atom = 28.530402
Neighbor list builds = 0
Dangerous builds = 0
The dot product: -4.48435012997929e-08
Setting atom values ...
  1 settings made for x
  1 settings made for y
  1 settings made for z
Setting up cg style minimization ...
  Unit style    : metal
  Current step  : 5187
Per MPI rank memory allocation (min/avg/max) = 5.441 | 5.816 | 6.074 Mbytes
Step PotEng KinEng TotEng v_fx v_fy v_fz 
    5187   -1152448.9            0   -1152448.9 -0.00043771007  0.005509798 -0.020283941 
    5357   -1152448.9            0   -1152448.9 -5.3948991e-06 -1.2583444e-05  8.63187e-06 
Loop time of 1.97061 on 104 procs for 170 steps with 288751 atoms

99.9% CPU use with 104 MPI tasks x 1 OpenMP threads

Minimization stats:
  Stopping criterion = energy tolerance
  Energy initial, next-to-last, final = 
      -1152448.8788061  -1152448.88061368  -1152448.88061368
  Force two-norm initial, final = 0.2192692 0.00022874358
  Force max component initial, final = 0.17170372 3.1499186e-05
  Final line search alpha, max atom move = 1.0000000 3.1499186e-05
  Iterations, force evaluations = 170 340

MPI task timing breakdown:
Section |  min time  |  avg time  |  max time  |%varavg| %total
---------------------------------------------------------------
Pair    | 0.50893    | 1.4233     | 1.8587     |  32.3 | 72.23
Neigh   | 0          | 0          | 0          |   0.0 |  0.00
Comm    | 0.031095   | 0.32313    | 0.96655    |  47.2 | 16.40
Output  | 0          | 0          | 0          |   0.0 |  0.00
Modify  | 1.9791e-05 | 0.0028141  | 0.005989   |   2.5 |  0.14
Other   |            | 0.2214     |            |       | 11.23

Nlocal:        2776.45 ave        3951 max           0 min
Histogram: 8 4 4 0 4 12 8 0 30 34
Nghost:        3879.01 ave        5425 max         232 min
Histogram: 8 0 8 0 16 0 8 8 16 40
Neighs:        79213.3 ave      115130 max           0 min
Histogram: 8 4 4 0 10 6 8 8 24 32

Total # of neighbors = 8238180
Ave neighs/atom = 28.530395
Neighbor list builds = 0
Dangerous builds = 0
The dot product: -1.80802676795076e-08
Setting atom values ...
  1 settings made for x
  1 settings made for y
  1 settings made for z
Setting up cg style minimization ...
  Unit style    : metal
  Current step  : 5357
Per MPI rank memory allocation (min/avg/max) = 5.441 | 5.816 | 6.074 Mbytes
Step PotEng KinEng TotEng v_fx v_fy v_fz 
    5357   -1152448.9            0   -1152448.9 -0.00024029338 0.0038469372 -0.013464885 
    5491   -1152448.9            0   -1152448.9 3.0783171e-06 3.652622e-06 6.2592752e-06 
Loop time of 1.58163 on 104 procs for 134 steps with 288751 atoms

99.9% CPU use with 104 MPI tasks x 1 OpenMP threads

Minimization stats:
  Stopping criterion = energy tolerance
  Energy initial, next-to-last, final = 
     -1152448.85529791  -1152448.85721727  -1152448.85721727
  Force two-norm initial, final = 0.22319532 0.00024895658
  Force max component initial, final = 0.17396047 7.0796023e-05
  Final line search alpha, max atom move = 1.0000000 7.0796023e-05
  Iterations, force evaluations = 134 268

MPI task timing breakdown:
Section |  min time  |  avg time  |  max time  |%varavg| %total
---------------------------------------------------------------
Pair    | 0.40315    | 1.1331     | 1.4912     |  28.9 | 71.64
Neigh   | 0          | 0          | 0          |   0.0 |  0.00
Comm    | 0.023916   | 0.26198    | 0.77966    |  41.9 | 16.56
Output  | 0          | 0          | 0          |   0.0 |  0.00
Modify  | 1.5826e-05 | 0.002221   | 0.0047242  |   2.2 |  0.14
Other   |            | 0.1843     |            |       | 11.65

Nlocal:        2776.45 ave        3949 max           0 min
Histogram: 8 4 4 0 4 12 8 0 28 36
Nghost:        3878.99 ave        5425 max         232 min
Histogram: 8 0 8 0 16 0 8 8 16 40
Neighs:        79213.3 ave      115069 max           0 min
Histogram: 8 4 4 0 10 6 8 8 24 32

Total # of neighbors = 8238179
Ave neighs/atom = 28.530391
Neighbor list builds = 0
Dangerous builds = 0
The dot product: -7.25718370880048e-09
Setting atom values ...
  1 settings made for x
  1 settings made for y
  1 settings made for z
Setting up cg style minimization ...
  Unit style    : metal
  Current step  : 5491
Per MPI rank memory allocation (min/avg/max) = 5.441 | 5.816 | 6.074 Mbytes
Step PotEng KinEng TotEng v_fx v_fy v_fz 
    5491   -1152448.8            0   -1152448.8 -0.00010069049 0.0029481705 -0.0097805271 
    5676   -1152448.8            0   -1152448.8 3.5427026e-06 -4.376518e-06 3.3910117e-05 
Loop time of 2.15855 on 104 procs for 185 steps with 288751 atoms

99.9% CPU use with 104 MPI tasks x 1 OpenMP threads

Minimization stats:
  Stopping criterion = energy tolerance
  Energy initial, next-to-last, final = 
     -1152448.82966956  -1152448.83170171  -1152448.83170171
  Force two-norm initial, final = 0.22786429 0.00014997737
  Force max component initial, final = 0.17626281 4.4855173e-05
  Final line search alpha, max atom move = 1.0000000 4.4855173e-05
  Iterations, force evaluations = 185 370

MPI task timing breakdown:
Section |  min time  |  avg time  |  max time  |%varavg| %total
---------------------------------------------------------------
Pair    | 0.55661    | 1.5521     | 2.0198     |  33.7 | 71.91
Neigh   | 0          | 0          | 0          |   0.0 |  0.00
Comm    | 0.03345    | 0.35275    | 1.0512     |  49.3 | 16.34
Output  | 0          | 0          | 0          |   0.0 |  0.00
Modify  | 2.1965e-05 | 0.0030613  | 0.006545   |   2.6 |  0.14
Other   |            | 0.2506     |            |       | 11.61

Nlocal:        2776.45 ave        3945 max           0 min
Histogram: 8 4 4 0 4 12 8 0 28 36
Nghost:        3878.99 ave        5425 max         232 min
Histogram: 8 0 8 0 16 0 8 8 16 40
Neighs:        79213.2 ave      114942 max           0 min
Histogram: 8 4 4 0 10 6 8 8 22 34

Total # of neighbors = 8238177
Ave neighs/atom = 28.530384
Neighbor list builds = 0
Dangerous builds = 0
The dot product: -1.84102455707523e-09
Setting atom values ...
  1 settings made for x
  1 settings made for y
  1 settings made for z
Setting up cg style minimization ...
  Unit style    : metal
  Current step  : 5676
Per MPI rank memory allocation (min/avg/max) = 5.441 | 5.816 | 6.074 Mbytes
Step PotEng KinEng TotEng v_fx v_fy v_fz 
    5676   -1152448.8            0   -1152448.8 3.0725222e-05  0.002529143 -0.0077308917 
    5873   -1152448.8            0   -1152448.8 -4.0745668e-06 -6.1032976e-06 -4.1663577e-06 
Loop time of 2.30323 on 104 procs for 197 steps with 288751 atoms

99.9% CPU use with 104 MPI tasks x 1 OpenMP threads

Minimization stats:
  Stopping criterion = energy tolerance
  Energy initial, next-to-last, final = 
     -1152448.80181037  -1152448.80394124  -1152448.80394124
  Force two-norm initial, final = 0.23235749 8.5948358e-05
  Force max component initial, final = 0.17847268 2.6373091e-05
  Final line search alpha, max atom move = 1.0000000 2.6373091e-05
  Iterations, force evaluations = 197 394

MPI task timing breakdown:
Section |  min time  |  avg time  |  max time  |%varavg| %total
---------------------------------------------------------------
Pair    | 0.59087    | 1.6615     | 2.1736     |  34.9 | 72.14
Neigh   | 0          | 0          | 0          |   0.0 |  0.00
Comm    | 0.033817   | 0.37949    | 1.1299     |  51.1 | 16.48
Output  | 0          | 0          | 0          |   0.0 |  0.00
Modify  | 2.2687e-05 | 0.0032565  | 0.0069428  |   2.7 |  0.14
Other   |            | 0.259      |            |       | 11.25

Nlocal:        2776.45 ave        3940 max           0 min
Histogram: 8 4 4 0 4 12 8 0 28 36
Nghost:        3878.99 ave        5425 max         232 min
Histogram: 8 0 8 0 16 0 8 8 16 40
Neighs:        79213.2 ave      114771 max           0 min
Histogram: 8 4 4 0 10 6 8 8 22 34

Total # of neighbors = 8238176
Ave neighs/atom = 28.530381
Neighbor list builds = 0
Dangerous builds = 0
The dot product: 5.3632316390995e-09
Setting atom values ...
  1 settings made for x
  1 settings made for y
  1 settings made for z
Setting up cg style minimization ...
  Unit style    : metal
  Current step  : 5873
Per MPI rank memory allocation (min/avg/max) = 5.441 | 5.816 | 6.074 Mbytes
Step PotEng KinEng TotEng v_fx v_fy v_fz 
    5873   -1152448.8            0   -1152448.8 0.00026581461 0.0025476861 -0.0064851476 
    6000   -1152448.8            0   -1152448.8 4.3035477e-07 1.0240562e-05 -2.9715056e-05 
    6014   -1152448.8            0   -1152448.8 -1.2662453e-06 -2.620083e-06 9.9373289e-07 
Loop time of 1.64841 on 104 procs for 141 steps with 288751 atoms

99.9% CPU use with 104 MPI tasks x 1 OpenMP threads

Minimization stats:
  Stopping criterion = energy tolerance
  Energy initial, next-to-last, final = 
     -1152448.77164243  -1152448.77384944  -1152448.77384944
  Force two-norm initial, final = 0.23635476 0.00020792784
  Force max component initial, final = 0.18086181 7.8611490e-05
  Final line search alpha, max atom move = 1.0000000 7.8611490e-05
  Iterations, force evaluations = 141 282

MPI task timing breakdown:
Section |  min time  |  avg time  |  max time  |%varavg| %total
---------------------------------------------------------------
Pair    | 0.42311    | 1.1836     | 1.5449     |  29.5 | 71.80
Neigh   | 0          | 0          | 0          |   0.0 |  0.00
Comm    | 0.024321   | 0.27143    | 0.80868    |  42.8 | 16.47
Output  | 0.00024464 | 0.00025325 | 0.00039538 |   0.0 |  0.02
Modify  | 1.6358e-05 | 0.0023373  | 0.0050145  |   2.3 |  0.14
Other   |            | 0.1908     |            |       | 11.58

Nlocal:        2776.45 ave        3930 max           0 min
Histogram: 8 4 4 0 4 12 8 0 26 38
Nghost:        3879.01 ave        5425 max         232 min
Histogram: 8 0 8 0 16 0 8 8 16 40
Neighs:        79213.2 ave      114461 max           0 min
Histogram: 8 4 4 0 8 8 8 8 20 36

Total # of neighbors = 8238169
Ave neighs/atom = 28.530357
Neighbor list builds = 0
Dangerous builds = 0
The dot product: 3.14208315687345e-09
Setting atom values ...
  1 settings made for x
  1 settings made for y
  1 settings made for z
Setting up cg style minimization ...
  Unit style    : metal
  Current step  : 6014
Per MPI rank memory allocation (min/avg/max) = 5.441 | 5.816 | 6.074 Mbytes
Step PotEng KinEng TotEng v_fx v_fy v_fz 
    6014   -1152448.7            0   -1152448.7 0.00056555508 0.0028469029 -0.0057634241 
    6256   -1152448.7            0   -1152448.7 1.8842901e-07 2.8032133e-07 1.9460847e-07 
Loop time of 2.80271 on 104 procs for 242 steps with 288751 atoms

99.9% CPU use with 104 MPI tasks x 1 OpenMP threads

Minimization stats:
  Stopping criterion = energy tolerance
  Energy initial, next-to-last, final = 
     -1152448.73911031  -1152448.74137046  -1152448.74137046
  Force two-norm initial, final = 0.2395341 2.7358152e-05
  Force max component initial, final = 0.18320873 1.0913645e-05
  Final line search alpha, max atom move = 1.0000000 1.0913645e-05
  Iterations, force evaluations = 242 484

MPI task timing breakdown:
Section |  min time  |  avg time  |  max time  |%varavg| %total
---------------------------------------------------------------
Pair    | 0.72374    | 2.0343     | 2.6424     |  38.6 | 72.58
Neigh   | 0          | 0          | 0          |   0.0 |  0.00
Comm    | 0.042188   | 0.45855    | 1.3746     |  56.8 | 16.36
Output  | 0          | 0          | 0          |   0.0 |  0.00
Modify  | 2.7609e-05 | 0.0040001  | 0.0085265  |   3.0 |  0.14
Other   |            | 0.3059     |            |       | 10.91

Nlocal:        2776.45 ave        3930 max           0 min
Histogram: 8 4 4 0 4 12 8 0 26 38
Nghost:        3879.01 ave        5426 max         232 min
Histogram: 8 0 8 0 16 0 8 8 16 40
Neighs:        79213.1 ave      114461 max           0 min
Histogram: 8 4 4 0 8 8 8 8 20 36

Total # of neighbors = 8238166
Ave neighs/atom = 28.530346
Neighbor list builds = 0
Dangerous builds = 0
The dot product: -1.60743735727429e-10
Setting atom values ...
  1 settings made for x
  1 settings made for y
  1 settings made for z
Setting up cg style minimization ...
  Unit style    : metal
  Current step  : 6256
Per MPI rank memory allocation (min/avg/max) = 5.441 | 5.816 | 6.074 Mbytes
Step PotEng KinEng TotEng v_fx v_fy v_fz 
    6256   -1152448.7            0   -1152448.7 0.00085083715 0.0033424099 -0.005751102 
    6496   -1152448.7            0   -1152448.7 -8.3078526e-07 -1.9800989e-06 1.5218026e-06 
Loop time of 2.80853 on 104 procs for 240 steps with 288751 atoms

99.9% CPU use with 104 MPI tasks x 1 OpenMP threads

Minimization stats:
  Stopping criterion = energy tolerance
  Energy initial, next-to-last, final = 
     -1152448.70418321  -1152448.70647491  -1152448.70647491
  Force two-norm initial, final = 0.24212363 3.1039975e-05
  Force max component initial, final = 0.18572233 9.8892453e-06
  Final line search alpha, max atom move = 1.0000000 9.8892453e-06
  Iterations, force evaluations = 240 480

MPI task timing breakdown:
Section |  min time  |  avg time  |  max time  |%varavg| %total
---------------------------------------------------------------
Pair    | 0.71696    | 2.0135     | 2.6306     |  38.6 | 71.69
Neigh   | 0          | 0          | 0          |   0.0 |  0.00
Comm    | 0.041587   | 0.46221    | 1.3765     |  55.9 | 16.46
Output  | 0          | 0          | 0          |   0.0 |  0.00
Modify  | 2.7786e-05 | 0.0039691  | 0.0084567  |   3.0 |  0.14
Other   |            | 0.3288     |            |       | 11.71

Nlocal:        2776.45 ave        3930 max           0 min
Histogram: 8 4 4 0 4 12 8 0 26 38
Nghost:        3878.98 ave        5426 max         232 min
Histogram: 8 0 8 0 16 0 8 8 16 40
Neighs:        79213.1 ave      114461 max           0 min
Histogram: 8 4 4 0 8 8 8 8 20 36

Total # of neighbors = 8238166
Ave neighs/atom = 28.530346
Neighbor list builds = 0
Dangerous builds = 0
The dot product: 2.71830743554435e-09
Setting atom values ...
  1 settings made for x
  1 settings made for y
  1 settings made for z
Setting up cg style minimization ...
  Unit style    : metal
  Current step  : 6496
Per MPI rank memory allocation (min/avg/max) = 5.441 | 5.816 | 6.074 Mbytes
Step PotEng KinEng TotEng v_fx v_fy v_fz 
    6496   -1152448.7            0   -1152448.7 0.0011734479 0.0039825554 -0.005996408 
    6628   -1152448.7            0   -1152448.7 -2.5909442e-06 -1.2573476e-06 -1.0993718e-05 
Loop time of 1.56082 on 104 procs for 132 steps with 288751 atoms

99.9% CPU use with 104 MPI tasks x 1 OpenMP threads

Minimization stats:
  Stopping criterion = energy tolerance
  Energy initial, next-to-last, final = 
      -1152448.6668522  -1152448.66915764  -1152448.66915764
  Force two-norm initial, final = 0.24408839 0.00023551989
  Force max component initial, final = 0.18816635 8.4426858e-05
  Final line search alpha, max atom move = 1.0000000 8.4426858e-05
  Iterations, force evaluations = 132 264

MPI task timing breakdown:
Section |  min time  |  avg time  |  max time  |%varavg| %total
---------------------------------------------------------------
Pair    | 0.3941     | 1.1137     | 1.4732     |  28.7 | 71.36
Neigh   | 0          | 0          | 0          |   0.0 |  0.00
Comm    | 0.022322   | 0.25871    | 0.76773    |  41.2 | 16.58
Output  | 0          | 0          | 0          |   0.0 |  0.00
Modify  | 1.5387e-05 | 0.0021855  | 0.0046583  |   2.2 |  0.14
Other   |            | 0.1862     |            |       | 11.93

Nlocal:        2776.45 ave        3930 max           0 min
Histogram: 8 4 4 0 4 12 8 0 26 38
Nghost:        3878.95 ave        5426 max         232 min
Histogram: 8 0 8 0 16 0 8 8 16 40
Neighs:        79213.1 ave      114461 max           0 min
Histogram: 8 4 4 0 8 8 8 8 20 36

Total # of neighbors = 8238163
Ave neighs/atom = 28.530336
Neighbor list builds = 0
Dangerous builds = 0
The dot product: -7.59442477698378e-09
Setting atom values ...
  1 settings made for x
  1 settings made for y
  1 settings made for z
Setting up cg style minimization ...
  Unit style    : metal
  Current step  : 6628
Per MPI rank memory allocation (min/avg/max) = 5.441 | 5.816 | 6.074 Mbytes
Step PotEng KinEng TotEng v_fx v_fy v_fz 
    6628   -1152448.6            0   -1152448.6 0.0015398359 0.0047858758 -0.0065277048 
    6822   -1152448.6            0   -1152448.6 -4.3287258e-07 -4.8101441e-07 -9.6882396e-07 
Loop time of 2.24704 on 104 procs for 194 steps with 288751 atoms

99.9% CPU use with 104 MPI tasks x 1 OpenMP threads

[...]
Other   |            | 0.2704     |            |       | 11.44

Nlocal:        2776.45 ave        3960 max           0 min
Histogram: 8 4 4 0 4 12 8 2 28 34
Nghost:        3879.05 ave        5425 max         232 min
Histogram: 8 0 8 0 16 0 8 8 16 40
Neighs:        79213.3 ave      115427 max           0 min
Histogram: 8 4 4 0 10 6 8 8 24 32

Total # of neighbors = 8238188
Ave neighs/atom = 28.530422
Neighbor list builds = 0
Dangerous builds = 0
The dot product: -3.71919228572392e-09
Setting atom values ...
  1 settings made for x
  1 settings made for y
  1 settings made for z
Setting up cg style minimization ...
  Unit style    : metal
  Current step  : 11027
Per MPI rank memory allocation (min/avg/max) = 5.441 | 5.816 | 6.074 Mbytes
Step PotEng KinEng TotEng v_fx v_fy v_fz 
   11027   -1152448.8            0   -1152448.8 -0.0062415496 -0.011110977 -0.0082451528 
   11211   -1152448.8            0   -1152448.8 2.6345359e-06 -1.6223831e-06 3.2486795e-06 
Loop time of 2.16104 on 104 procs for 184 steps with 288751 atoms

99.9% CPU use with 104 MPI tasks x 1 OpenMP threads

Minimization stats:
  Stopping criterion = energy tolerance
  Energy initial, next-to-last, final = 
     -1152448.77755416  -1152448.77871665  -1152448.77871665
  Force two-norm initial, final = 0.13978331 0.00011130685
  Force max component initial, final = 0.061772833 1.7018784e-05
  Final line search alpha, max atom move = 1.0000000 1.7018784e-05
  Iterations, force evaluations = 184 368

MPI task timing breakdown:
Section |  min time  |  avg time  |  max time  |%varavg| %total
---------------------------------------------------------------
Pair    | 0.5581     | 1.5489     | 2.0261     |  33.7 | 71.67
Neigh   | 0          | 0          | 0          |   0.0 |  0.00
Comm    | 0.03276    | 0.35182    | 1.0419     |  49.1 | 16.28
Output  | 0          | 0          | 0          |   0.0 |  0.00
Modify  | 2.251e-05  | 0.0030443  | 0.0064876  |   2.6 |  0.14
Other   |            | 0.2573     |            |       | 11.90

Nlocal:        2776.45 ave        3960 max           0 min
Histogram: 8 4 4 0 4 12 8 2 28 34
Nghost:        3879.05 ave        5425 max         232 min
Histogram: 8 0 8 0 16 0 8 8 16 40
Neighs:        79213.4 ave      115427 max           0 min
Histogram: 8 4 4 0 10 6 8 8 24 32

Total # of neighbors = 8238190
Ave neighs/atom = 28.530429
Neighbor list builds = 0
Dangerous builds = 0
The dot product: -8.06275132623438e-09
Setting atom values ...
  1 settings made for x
  1 settings made for y
  1 settings made for z
Setting up cg style minimization ...
  Unit style    : metal
  Current step  : 11211
Per MPI rank memory allocation (min/avg/max) = 5.441 | 5.816 | 6.074 Mbytes
Step PotEng KinEng TotEng v_fx v_fy v_fz 
   11211   -1152448.8            0   -1152448.8 -0.007853446 -0.0074464839 -0.010069074 
   11396   -1152448.8            0   -1152448.8 9.9180447e-06 -1.7437869e-05 1.1818816e-05 
Loop time of 2.16388 on 104 procs for 185 steps with 288751 atoms

99.9% CPU use with 104 MPI tasks x 1 OpenMP threads

Minimization stats:
  Stopping criterion = energy tolerance
  Energy initial, next-to-last, final = 
     -1152448.77618467  -1152448.77731393  -1152448.77731393
  Force two-norm initial, final = 0.13973261 0.00011476294
  Force max component initial, final = 0.061693532 3.4947479e-05
  Final line search alpha, max atom move = 1.0000000 3.4947479e-05
  Iterations, force evaluations = 185 370

MPI task timing breakdown:
Section |  min time  |  avg time  |  max time  |%varavg| %total
---------------------------------------------------------------
Pair    | 0.56024    | 1.555      | 2.0347     |  33.7 | 71.86
Neigh   | 0          | 0          | 0          |   0.0 |  0.00
Comm    | 0.032769   | 0.35317    | 1.0425     |  49.0 | 16.32
Output  | 0          | 0          | 0          |   0.0 |  0.00
Modify  | 2.3029e-05 | 0.0030615  | 0.0065048  |   2.6 |  0.14
Other   |            | 0.2526     |            |       | 11.67

Nlocal:        2776.45 ave        3960 max           0 min
Histogram: 8 4 4 0 4 12 8 2 28 34
Nghost:        3879.03 ave        5425 max         232 min
Histogram: 8 0 8 0 16 0 8 8 16 40
Neighs:        79213.4 ave      115427 max           0 min
Histogram: 8 4 4 0 10 6 8 8 24 32

Total # of neighbors = 8238189
Ave neighs/atom = 28.530426
Neighbor list builds = 0
Dangerous builds = 0
The dot product: -9.32803698243933e-09
Setting atom values ...
  1 settings made for x
  1 settings made for y
  1 settings made for z
Setting up cg style minimization ...
  Unit style    : metal
  Current step  : 11396
Per MPI rank memory allocation (min/avg/max) = 5.441 | 5.816 | 6.074 Mbytes
Step PotEng KinEng TotEng v_fx v_fy v_fz 
   11396   -1152448.8            0   -1152448.8 -0.0095426312 -0.003357384  -0.01198506 
   11566   -1152448.8            0   -1152448.8 -3.1756125e-05 4.5614636e-05 -3.8126869e-05 
Loop time of 1.99009 on 104 procs for 170 steps with 288751 atoms

99.9% CPU use with 104 MPI tasks x 1 OpenMP threads

Minimization stats:
  Stopping criterion = energy tolerance
  Energy initial, next-to-last, final = 
     -1152448.77384786  -1152448.77496662  -1152448.77496662
  Force two-norm initial, final = 0.14063755 0.00016961632
  Force max component initial, final = 0.061580205 4.5614636e-05
  Final line search alpha, max atom move = 1.0000000 4.5614636e-05
  Iterations, force evaluations = 170 340

MPI task timing breakdown:
Section |  min time  |  avg time  |  max time  |%varavg| %total
---------------------------------------------------------------
Pair    | 0.51294    | 1.4288     | 1.8686     |  32.4 | 71.80
Neigh   | 0          | 0          | 0          |   0.0 |  0.00
Comm    | 0.028732   | 0.32538    | 0.9577     |  47.0 | 16.35
Output  | 0          | 0          | 0          |   0.0 |  0.00
Modify  | 2.0896e-05 | 0.002816   | 0.0059839  |   2.5 |  0.14
Other   |            | 0.233      |            |       | 11.71

Nlocal:        2776.45 ave        3960 max           0 min
Histogram: 8 4 4 0 4 12 8 2 28 34
Nghost:        3879.03 ave        5425 max         232 min
Histogram: 8 0 8 0 16 0 8 8 16 40
Neighs:        79213.4 ave      115427 max           0 min
Histogram: 8 4 4 0 10 6 8 8 24 32

Total # of neighbors = 8238189
Ave neighs/atom = 28.530426
Neighbor list builds = 0
Dangerous builds = 0
The dot product: 1.08792903445856e-07
Setting atom values ...
  1 settings made for x
  1 settings made for y
  1 settings made for z
Setting up cg style minimization ...
  Unit style    : metal
  Current step  : 11566
Per MPI rank memory allocation (min/avg/max) = 5.441 | 5.816 | 6.074 Mbytes
Step PotEng KinEng TotEng v_fx v_fy v_fz 
   11566   -1152448.8            0   -1152448.8 -0.0092958076 -0.0028896198 -0.011606196 
   11715   -1152448.8            0   -1152448.8 -4.0837919e-05 5.4448231e-05 -4.9009654e-05 
Loop time of 1.73026 on 104 procs for 149 steps with 288751 atoms

99.9% CPU use with 104 MPI tasks x 1 OpenMP threads

Minimization stats:
  Stopping criterion = energy tolerance
  Energy initial, next-to-last, final = 
     -1152448.77064799   -1152448.7717644   -1152448.7717644
  Force two-norm initial, final = 0.14084075 0.00025569646
  Force max component initial, final = 0.061513057 6.4838275e-05
  Final line search alpha, max atom move = 1.0000000 6.4838275e-05
  Iterations, force evaluations = 149 298

MPI task timing breakdown:
Section |  min time  |  avg time  |  max time  |%varavg| %total
---------------------------------------------------------------
Pair    | 0.45012    | 1.2535     | 1.6307     |  30.4 | 72.44
Neigh   | 0          | 0          | 0          |   0.0 |  0.00
Comm    | 0.026584   | 0.28414    | 0.83779    |  44.4 | 16.42
Output  | 0          | 0          | 0          |   0.0 |  0.00
Modify  | 1.8485e-05 | 0.0024687  | 0.0052559  |   2.3 |  0.14
Other   |            | 0.1902     |            |       | 10.99

Nlocal:        2776.45 ave        3960 max           0 min
Histogram: 8 4 4 0 4 12 8 2 28 34
Nghost:        3879.05 ave        5425 max         232 min
Histogram: 8 0 8 0 16 0 8 8 16 40
Neighs:        79213.3 ave      115427 max           0 min
Histogram: 8 4 4 0 10 6 8 8 24 32

Total # of neighbors = 8238188
Ave neighs/atom = 28.530422
Neighbor list builds = 0
Dangerous builds = 0
The dot product: 1.44176982052559e-07
Setting atom values ...
  1 settings made for x
  1 settings made for y
  1 settings made for z
Setting up cg style minimization ...
  Unit style    : metal
  Current step  : 11715
Per MPI rank memory allocation (min/avg/max) = 5.441 | 5.816 | 6.074 Mbytes
Step PotEng KinEng TotEng v_fx v_fy v_fz 
   11715   -1152448.8            0   -1152448.8 -0.0086525092   -0.0031436 -0.010766012 
   11906   -1152448.8            0   -1152448.8 -1.8763462e-05 2.641021e-05 -2.2411224e-05 
Loop time of 2.26475 on 104 procs for 191 steps with 288751 atoms

99.9% CPU use with 104 MPI tasks x 1 OpenMP threads

Minimization stats:
  Stopping criterion = energy tolerance
  Energy initial, next-to-last, final = 
     -1152448.76652925  -1152448.76764544  -1152448.76764544
  Force two-norm initial, final = 0.1408862 8.9209526e-05
  Force max component initial, final = 0.061376047 2.6410210e-05
  Final line search alpha, max atom move = 1.0000000 2.6410210e-05
  Iterations, force evaluations = 191 382

MPI task timing breakdown:
Section |  min time  |  avg time  |  max time  |%varavg| %total
---------------------------------------------------------------
Pair    | 0.57611    | 1.6064     | 2.1054     |  34.4 | 70.93
Neigh   | 0          | 0          | 0          |   0.0 |  0.00
Comm    | 0.032983   | 0.36911    | 1.0747     |  49.3 | 16.30
Output  | 0          | 0          | 0          |   0.0 |  0.00
Modify  | 2.4355e-05 | 0.0031638  | 0.0067238  |   2.6 |  0.14
Other   |            | 0.2861     |            |       | 12.63

Nlocal:        2776.45 ave        3960 max           0 min
Histogram: 8 4 4 0 4 12 8 3 27 34
Nghost:        3879.07 ave        5425 max         232 min
Histogram: 8 0 8 0 16 0 8 8 16 40
Neighs:        79213.4 ave      115436 max           0 min
Histogram: 8 4 4 0 10 6 8 8 24 32

Total # of neighbors = 8238190
Ave neighs/atom = 28.530429
Neighbor list builds = 0
Dangerous builds = 0
The dot product: 5.98258177084132e-08
Setting atom values ...
  1 settings made for x
  1 settings made for y
  1 settings made for z
Setting up cg style minimization ...
  Unit style    : metal
  Current step  : 11906
Per MPI rank memory allocation (min/avg/max) = 5.441 | 5.816 | 6.074 Mbytes
Step PotEng KinEng TotEng v_fx v_fy v_fz 
   11906   -1152448.8            0   -1152448.8 -0.0079760793 -0.003408506 -0.0098940628 
   12000   -1152448.8            0   -1152448.8 -9.0595009e-06 2.0400217e-05 -1.0586345e-05 
   12057   -1152448.8            0   -1152448.8 -6.9372079e-05 9.8139543e-05 -8.2622897e-05 
Loop time of 1.75859 on 104 procs for 151 steps with 288751 atoms

99.9% CPU use with 104 MPI tasks x 1 OpenMP threads

Minimization stats:
  Stopping criterion = energy tolerance
  Energy initial, next-to-last, final = 
     -1152448.76143227  -1152448.76255308  -1152448.76255308
  Force two-norm initial, final = 0.14103537 0.00030904968
  Force max component initial, final = 0.061234216 9.8139543e-05
  Final line search alpha, max atom move = 1.0000000 9.8139543e-05
  Iterations, force evaluations = 151 302

MPI task timing breakdown:
Section |  min time  |  avg time  |  max time  |%varavg| %total
---------------------------------------------------------------
Pair    | 0.45538    | 1.2683     | 1.6575     |  30.5 | 72.12
Neigh   | 0          | 0          | 0          |   0.0 |  0.00
Comm    | 0.025921   | 0.28761    | 0.85008    |  44.5 | 16.35
Output  | 0.00015383 | 0.00016443 | 0.00030834 |   0.0 |  0.01
Modify  | 1.9173e-05 | 0.0025036  | 0.0053286  |   2.4 |  0.14
Other   |            | 0.2        |            |       | 11.37

Nlocal:        2776.45 ave        3960 max           0 min
Histogram: 8 4 4 0 4 12 8 3 27 34
Nghost:        3879.11 ave        5426 max         232 min
Histogram: 8 0 8 0 16 0 8 8 16 40
Neighs:        79213.4 ave      115427 max           0 min
Histogram: 8 4 4 0 10 6 8 8 24 32

Total # of neighbors = 8238189
Ave neighs/atom = 28.530426
Neighbor list builds = 0
Dangerous builds = 0
The dot product: 2.03944241606208e-07
Setting atom values ...
  1 settings made for x
  1 settings made for y
  1 settings made for z
Setting up cg style minimization ...
  Unit style    : metal
  Current step  : 12057
Per MPI rank memory allocation (min/avg/max) = 5.441 | 5.816 | 6.074 Mbytes
Step PotEng KinEng TotEng v_fx v_fy v_fz 
   12057   -1152448.8            0   -1152448.8 -0.0073647039 -0.003535862 -0.0091061291 
   12260   -1152448.8            0   -1152448.8 -7.8763791e-06 9.253259e-06 -9.4061396e-06 
Loop time of 2.37371 on 104 procs for 203 steps with 288751 atoms

99.9% CPU use with 104 MPI tasks x 1 OpenMP threads

Minimization stats:
  Stopping criterion = energy tolerance
  Energy initial, next-to-last, final = 
     -1152448.75531451  -1152448.75644653  -1152448.75644653
  Force two-norm initial, final = 0.14129281 6.8069007e-05
  Force max component initial, final = 0.061907275 1.9917941e-05
  Final line search alpha, max atom move = 1.0000000 1.9917941e-05
  Iterations, force evaluations = 203 406

MPI task timing breakdown:
Section |  min time  |  avg time  |  max time  |%varavg| %total
---------------------------------------------------------------
Pair    | 0.61598    | 1.7072     | 2.2337     |  35.4 | 71.92
Neigh   | 0          | 0          | 0          |   0.0 |  0.00
Comm    | 0.035867   | 0.38724    | 1.1422     |  51.5 | 16.31
Output  | 0          | 0          | 0          |   0.0 |  0.00
Modify  | 2.5343e-05 | 0.0033593  | 0.0071184  |   2.7 |  0.14
Other   |            | 0.2759     |            |       | 11.62

Nlocal:        2776.45 ave        3960 max           0 min
Histogram: 8 4 4 0 4 12 8 3 27 34
Nghost:        3879.11 ave        5426 max         232 min
Histogram: 8 0 8 0 16 0 8 8 16 40
Neighs:        79213.3 ave      115420 max           0 min
Histogram: 8 4 4 0 10 6 8 8 24 32

Total # of neighbors = 8238186
Ave neighs/atom = 28.530415
Neighbor list builds = 0
Dangerous builds = 0
The dot product: 2.56689954719827e-08
Setting atom values ...
  1 settings made for x
  1 settings made for y
  1 settings made for z
Setting up cg style minimization ...
  Unit style    : metal
  Current step  : 12260
Per MPI rank memory allocation (min/avg/max) = 5.441 | 5.816 | 6.074 Mbytes
Step PotEng KinEng TotEng v_fx v_fy v_fz 
   12260   -1152448.7            0   -1152448.7 -0.0059250104 -0.0047673876 -0.0073404101 
   12460   -1152448.7            0   -1152448.7 -1.4486923e-06 1.2127695e-06 -1.7372762e-06 
Loop time of 2.33249 on 104 procs for 200 steps with 288751 atoms

99.9% CPU use with 104 MPI tasks x 1 OpenMP threads

Minimization stats:
  Stopping criterion = energy tolerance
  Energy initial, next-to-last, final = 
     -1152448.74815441  -1152448.74927582  -1152448.74927582
  Force two-norm initial, final = 0.14136709 7.2757589e-05
  Force max component initial, final = 0.063075939 8.4671835e-06
  Final line search alpha, max atom move = 1.0000000 8.4671835e-06
  Iterations, force evaluations = 200 400

MPI task timing breakdown:
Section |  min time  |  avg time  |  max time  |%varavg| %total
---------------------------------------------------------------
Pair    | 0.60395    | 1.6806     | 2.1965     |  35.1 | 72.05
Neigh   | 0          | 0          | 0          |   0.0 |  0.00
Comm    | 0.03476    | 0.38023    | 1.1216     |  51.2 | 16.30
Output  | 0          | 0          | 0          |   0.0 |  0.00
Modify  | 2.5493e-05 | 0.0033085  | 0.0070211  |   2.7 |  0.14
Other   |            | 0.2684     |            |       | 11.51

Nlocal:        2776.45 ave        3960 max           0 min
Histogram: 8 4 4 0 4 12 8 3 27 34
Nghost:        3879.11 ave        5426 max         232 min
Histogram: 8 0 8 0 16 0 8 8 16 40
Neighs:        79213.4 ave      115420 max           0 min
Histogram: 8 4 4 0 10 6 8 8 24 32

Total # of neighbors = 8238190
Ave neighs/atom = 28.530429
Neighbor list builds = 0
Dangerous builds = 0
The dot product: 4.60091720878999e-09
Setting atom values ...
  1 settings made for x
  1 settings made for y
  1 settings made for z
Setting up cg style minimization ...
  Unit style    : metal
  Current step  : 12460
Per MPI rank memory allocation (min/avg/max) = 5.441 | 5.816 | 6.074 Mbytes
Step PotEng KinEng TotEng v_fx v_fy v_fz 
   12460   -1152448.7            0   -1152448.7 -0.0027017778 -0.0083595289 -0.0034740688 
   12666   -1152448.7            0   -1152448.7 2.0448132e-06 -3.4384143e-06 2.4065053e-06 
Loop time of 2.40162 on 104 procs for 206 steps with 288751 atoms

99.9% CPU use with 104 MPI tasks x 1 OpenMP threads

Minimization stats:
  Stopping criterion = energy tolerance
  Energy initial, next-to-last, final = 
     -1152448.73994988  -1152448.74104286  -1152448.74104286
  Force two-norm initial, final = 0.14141566 6.1808150e-05
  Force max component initial, final = 0.064222205 1.1890656e-05
  Final line search alpha, max atom move = 1.0000000 1.1890656e-05
  Iterations, force evaluations = 206 412

MPI task timing breakdown:
Section |  min time  |  avg time  |  max time  |%varavg| %total
---------------------------------------------------------------
Pair    | 0.62421    | 1.7318     | 2.2655     |  35.6 | 72.11
Neigh   | 0          | 0          | 0          |   0.0 |  0.00
Comm    | 0.035415   | 0.39335    | 1.1651     |  52.0 | 16.38
Output  | 0          | 0          | 0          |   0.0 |  0.00
Modify  | 2.6166e-05 | 0.0034092  | 0.0072249  |   2.7 |  0.14
Other   |            | 0.2731     |            |       | 11.37

Nlocal:        2776.45 ave        3961 max           0 min
Histogram: 8 4 4 0 6 10 8 4 26 34
Nghost:        3879.11 ave        5426 max         232 min
Histogram: 8 0 8 0 16 0 8 8 16 40
Neighs:        79213.4 ave      115440 max           0 min
Histogram: 8 4 4 0 10 6 8 8 24 32

Total # of neighbors = 8238193
Ave neighs/atom = 28.530440
Neighbor list builds = 0
Dangerous builds = 0
The dot product: 7.32943919430139e-11
Setting up cg style minimization ...
  Unit style    : metal
  Current step  : 12666
Per MPI rank memory allocation (min/avg/max) = 5.441 | 5.816 | 6.074 Mbytes
Step PotEng KinEng TotEng v_fx v_fy v_fz 
   12666   -1152448.7            0   -1152448.7    -0.337242 -0.0063352479   0.27751258 
   12916   -1152448.8            0   -1152448.8 3.301223e-06 -1.1724816e-06  3.96994e-06 
Loop time of 2.93218 on 104 procs for 250 steps with 288751 atoms

99.9% CPU use with 104 MPI tasks x 1 OpenMP threads

Minimization stats:
  Stopping criterion = energy tolerance
  Energy initial, next-to-last, final = 
     -1152448.74104286  -1152448.77903551  -1152448.77903551
  Force two-norm initial, final = 0.43679004 9.8210290e-05
  Force max component initial, final = 0.337242 2.4822778e-05
  Final line search alpha, max atom move = 1.0000000 2.4822778e-05
  Iterations, force evaluations = 250 500

MPI task timing breakdown:
Section |  min time  |  avg time  |  max time  |%varavg| %total
---------------------------------------------------------------
Pair    | 0.7622     | 2.102      | 2.7525     |  39.1 | 71.69
Neigh   | 1.0132e-05 | 0.0029535  | 0.0043548  |   2.3 |  0.10
Comm    | 0.043899   | 0.47701    | 1.408      |  56.8 | 16.27
Output  | 0          | 0          | 0          |   0.0 |  0.00
Modify  | 2.9612e-05 | 0.0026944  | 0.0068727  |   3.2 |  0.09
Other   |            | 0.3475     |            |       | 11.85

Nlocal:        2776.45 ave        3961 max           0 min
Histogram: 8 4 4 0 6 10 8 4 26 34
Nghost:        3879.11 ave        5426 max         232 min
Histogram: 8 0 8 0 16 0 8 8 16 40
Neighs:        79213.4 ave      115440 max           0 min
Histogram: 8 4 4 0 10 6 8 8 24 32

Total # of neighbors = 8238193
Ave neighs/atom = 28.530440
Neighbor list builds = 1
Dangerous builds = 0
