LAMMPS (29 Oct 2020)
OMP_NUM_THREADS environment is not set. Defaulting to 1 thread. (../comm.cpp:94)
  using 1 OpenMP thread(s) per MPI task
########
#
########
variable                delta             equal     0.02 # the step size should be larger otherwise the number of
#the energy minimum sites is smaller
variable                iter_tot          equal     150

label                   loop
variable                seed              loop     310 319 #20 simulations
variable                iteration         loop      ${iter_tot} #The maximum ietration number per random direction
variable                iteration         loop      150 
clear
OMP_NUM_THREADS environment is not set. Defaulting to 1 thread. (../comm.cpp:94)
  using 1 OpenMP thread(s) per MPI task
units                   metal
atom_style              atomic
dimension                   3
boundary                p p p
atom_modify             map array sort 0 0.0

read_data               poslmp_carbon.dat
Reading data file ...
  orthogonal box = (-122.39241 -121.13707 -37.090501) to (122.39241 121.13707 37.090501)
  13 by 4 by 2 MPI processor grid
  reading atoms ...
  288751 atoms
  read_data CPU = 0.410 seconds

variable                zmax     equal    zhi
variable                zmin     equal    zlo

region                  inner   cylinder   z  1.16564  0.67298333  100.0  ${zmin}  ${zmax}  units  box
region                  inner   cylinder   z  1.16564  0.67298333  100.0  -37.0905005093422  ${zmax}  units  box
region                  inner   cylinder   z  1.16564  0.67298333  100.0  -37.0905005093422  37.0905005093422  units  box
group                   inner   region     inner
199981 atoms in group inner
group                   outer   subtract   all  inner
88770 atoms in group outer
group                   carbon  type       2
1 atoms in group carbon

pair_style              eam/alloy
pair_coeff              * * FeC-Becquart2013.eam.txt Fe C
neighbor                0.3 bin
neigh_modify            delay 0 check yes every 1

compute                 force     carbon   reduce  sum  fx fy fz
variable                fx    equal    c_force[1]
variable                fy    equal    c_force[2]
variable                fz    equal    c_force[3]

fix                     force    outer    setforce      0.0 0.0 0.0
thermo_style            custom   step     v_fx v_fy v_fz pe ke etotal
min_style               cg
minimize                1.0e-30 1.0e-30 10000 10000
Neighbor list info ...
  update every 1 steps, delay 0 steps, check yes
  max neighbors/atom: 2000, page size: 100000
  master list distance cutoff = 5.6
  ghost atom cutoff = 5.6
  binsize = 2.8, bins = 88 87 27
  1 neighbor lists, perpetual/occasional/extra = 1 0 0
  (1) pair eam/alloy, perpetual
      attributes: half, newton on
      pair build: half/bin/atomonly/newton
      stencil: half/bin/3d/newton
      bin: standard
Per MPI rank memory allocation (min/avg/max) = 5.441 | 5.816 | 6.074 Mbytes
Step v_fx v_fy v_fz PotEng KinEng TotEng 
       0  -0.21657515    -30.04813   -50.390662   -1152433.3            0   -1152433.3 
     174 7.5699081e-07 -2.6504002e-06 1.2351379e-05   -1152449.5            0   -1152449.5 
Loop time of 2.03077 on 104 procs for 174 steps with 288751 atoms

99.8% CPU use with 104 MPI tasks x 1 OpenMP threads

Minimization stats:
  Stopping criterion = energy tolerance
  Energy initial, next-to-last, final = 
     -1152433.30951864  -1152449.45035271  -1152449.45035271
  Force two-norm initial, final = 87.912276 7.4641969e-05
  Force max component initial, final = 57.526621 1.2351379e-05
  Final line search alpha, max atom move = 1.0000000 1.2351379e-05
  Iterations, force evaluations = 174 340

MPI task timing breakdown:
Section |  min time  |  avg time  |  max time  |%varavg| %total
---------------------------------------------------------------
Pair    | 0.5382     | 1.4388     | 1.8613     |  31.7 | 70.85
Neigh   | 5.1191e-05 | 0.014636   | 0.021252   |   5.0 |  0.72
Comm    | 0.036097   | 0.3276     | 0.96855    |  46.9 | 16.13
Output  | 0          | 0          | 0          |   0.0 |  0.00
Modify  | 1.9745e-05 | 0.0018416  | 0.0046957  |   2.7 |  0.09
Other   |            | 0.2479     |            |       | 12.21

Nlocal:        2776.45 ave        3960 max           0 min
Histogram: 8 4 4 0 4 12 8 2 28 34
Nghost:        3879.01 ave        5424 max         232 min
Histogram: 8 0 8 0 16 0 8 8 16 40
Neighs:        79213.5 ave      115432 max           0 min
Histogram: 8 4 4 0 10 6 8 8 24 32

Total # of neighbors = 8238208
Ave neighs/atom = 28.530492
Neighbor list builds = 5
Dangerous builds = 0
#write_data              minimize.dat
#quit

variable                fx_0  equal    ${fx}
variable                fx_0  equal    7.56990812561531e-07
variable                fy_0  equal    ${fy}
variable                fy_0  equal    -2.65040015856588e-06
variable                fz_0  equal    ${fz}
variable                fz_0  equal    1.23513790435403e-05

variable                i     equal    288751

variable                x0    equal    x[v_i]
variable                y0    equal    y[v_i]
variable                z0    equal    z[v_i]

variable                x     equal    x[v_i]+v_delta*random(-1.0,1.0,${seed})
variable                x     equal    x[v_i]+v_delta*random(-1.0,1.0,310)
variable                y     equal    y[v_i]+v_delta*random(-1.0,1.0,${seed})
variable                y     equal    y[v_i]+v_delta*random(-1.0,1.0,310)
variable                z     equal    z[v_i]+v_delta*random(-1.0,1.0,${seed})
variable                z     equal    z[v_i]+v_delta*random(-1.0,1.0,310)
variable                x_0    equal     ${x0}
variable                x_0    equal     0.594466768762759
variable                y_0    equal     ${y0}
variable                y_0    equal     -1.01611334148917
variable                z_0    equal     ${z0}
variable                z_0    equal     11.778464512193
variable                x_1    equal     $x
variable                x_1    equal     0.587257973215274
variable                y_1    equal     $y
variable                y_1    equal     -1.02534437481436
variable                z_1    equal     $z
variable                z_1    equal     11.7813557546972

set                atom        $i    x  ${x_1}  y  ${y_1}  z  ${z_1}
set                atom        288751    x  ${x_1}  y  ${y_1}  z  ${z_1}
set                atom        288751    x  0.587257973215274  y  ${y_1}  z  ${z_1}
set                atom        288751    x  0.587257973215274  y  -1.02534437481436  z  ${z_1}
set                atom        288751    x  0.587257973215274  y  -1.02534437481436  z  11.7813557546972
Setting atom values ...
  1 settings made for x
  1 settings made for y
  1 settings made for z
variable           vector_x          equal     ${x_1}-${x_0}
variable           vector_x          equal     0.587257973215274-${x_0}
variable           vector_x          equal     0.587257973215274-0.594466768762759
variable           vector_y          equal     ${y_1}-${y_0}
variable           vector_y          equal     -1.02534437481436-${y_0}
variable           vector_y          equal     -1.02534437481436--1.01611334148917
variable           vector_z          equal     ${z_1}-${z_0}
variable           vector_z          equal     11.7813557546972-${z_0}
variable           vector_z          equal     11.7813557546972-11.778464512193

#dump               1     all   custom   1000   dump_minimize.atom.* id type x y z
#dump_modify        1     element  Fe C
thermo_style       custom   step  pe ke etotal v_fx v_fy v_fz
thermo             1000

fix                hold    carbon   planeforce   ${vector_x}  ${vector_y}  ${vector_z}
fix                hold    carbon   planeforce   -0.00720879554748499  ${vector_y}  ${vector_z}
fix                hold    carbon   planeforce   -0.00720879554748499  -0.00923103332518993  ${vector_z}
fix                hold    carbon   planeforce   -0.00720879554748499  -0.00923103332518993  0.00289124250419981
min_style          cg
minimize           1.0e-30 1.0e-30 10000 10000
Per MPI rank memory allocation (min/avg/max) = 5.441 | 5.816 | 6.074 Mbytes
Step PotEng KinEng TotEng v_fx v_fy v_fz 
     174   -1152449.4            0   -1152449.4 -0.017403622 0.0075728824 -0.019214446 
     351   -1152449.5            0   -1152449.5 6.6449141e-06 -6.0452064e-06 -2.7329682e-06 
Loop time of 2.13478 on 104 procs for 177 steps with 288751 atoms

99.9% CPU use with 104 MPI tasks x 1 OpenMP threads

Minimization stats:
  Stopping criterion = energy tolerance
  Energy initial, next-to-last, final = 
     -1152449.44953745  -1152449.45002983  -1152449.45002983
  Force two-norm initial, final = 0.10019121 8.5768352e-05
  Force max component initial, final = 0.050908146 9.3409230e-06
  Final line search alpha, max atom move = 1.0000000 9.3409230e-06
  Iterations, force evaluations = 177 354

MPI task timing breakdown:
Section |  min time  |  avg time  |  max time  |%varavg| %total
---------------------------------------------------------------
Pair    | 0.53406    | 1.5047     | 1.9612     |  33.2 | 70.48
Neigh   | 0          | 0          | 0          |   0.0 |  0.00
Comm    | 0.035748   | 0.35141    | 1.0348     |  47.2 | 16.46
Output  | 0          | 0          | 0          |   0.0 |  0.00
Modify  | 2.227e-05  | 0.0029317  | 0.0062638  |   2.5 |  0.14
Other   |            | 0.2758     |            |       | 12.92

Nlocal:        2776.45 ave        3961 max           0 min
Histogram: 8 4 4 0 6 10 8 2 28 34
Nghost:        3879.01 ave        5424 max         232 min
Histogram: 8 0 8 0 16 0 8 8 16 40
Neighs:        79213.4 ave      115458 max           0 min
Histogram: 8 4 4 0 10 6 8 8 24 32

Total # of neighbors = 8238197
Ave neighs/atom = 28.530454
Neighbor list builds = 0
Dangerous builds = 0
unfix              hold

variable           new_x         equal     ${x0}-${x_0}
variable           new_x         equal     0.586641443415456-${x_0}
variable           new_x         equal     0.586641443415456-0.594466768762759
variable           new_y         equal     ${y0}-${y_0}
variable           new_y         equal     -1.02513919979175-${y_0}
variable           new_y         equal     -1.02513919979175--1.01611334148917
variable           new_z         equal     ${z0}-${z_0}
variable           new_z         equal     11.7804736219114-${z_0}
variable           new_z         equal     11.7804736219114-11.778464512193

label iteration
variable           norm          equal     sqrt(${new_x}^2+${new_y}^2+${new_z}^2)
variable           norm          equal     sqrt(-0.00782532534730296^2+${new_y}^2+${new_z}^2)
variable           norm          equal     sqrt(-0.00782532534730296^2+-0.00902585830257996^2+${new_z}^2)
variable           norm          equal     sqrt(-0.00782532534730296^2+-0.00902585830257996^2+0.00200910971839896^2)
variable           unit_x        equal     ${new_x}/${norm}
variable           unit_x        equal     -0.00782532534730296/${norm}
variable           unit_x        equal     -0.00782532534730296/0.0121135608616938
variable           unit_y        equal     ${new_y}/${norm}
variable           unit_y        equal     -0.00902585830257996/${norm}
variable           unit_y        equal     -0.00902585830257996/0.0121135608616938
variable           unit_z        equal     ${new_z}/${norm}
variable           unit_z        equal     0.00200910971839896/${norm}
variable           unit_z        equal     0.00200910971839896/0.0121135608616938
variable           x_new         equal     ${x0}+${delta}*${unit_x}
variable           x_new         equal     0.586641443415456+${delta}*${unit_x}
variable           x_new         equal     0.586641443415456+0.02*${unit_x}
variable           x_new         equal     0.586641443415456+0.02*-0.645997113206295
variable           y_new         equal     ${y0}+${delta}*${unit_y}
variable           y_new         equal     -1.02513919979175+${delta}*${unit_y}
variable           y_new         equal     -1.02513919979175+0.02*${unit_y}
variable           y_new         equal     -1.02513919979175+0.02*-0.745103640922138
variable           z_new         equal     ${z0}+${delta}*${unit_z}
variable           z_new         equal     11.7804736219114+${delta}*${unit_z}
variable           z_new         equal     11.7804736219114+0.02*${unit_z}
variable           z_new         equal     11.7804736219114+0.02*0.165856245024721

set                atom          $i    x  ${x_new}  y  ${y_new}  z   ${z_new}
set                atom          288751    x  ${x_new}  y  ${y_new}  z   ${z_new}
set                atom          288751    x  0.57372150115133  y  ${y_new}  z   ${z_new}
set                atom          288751    x  0.57372150115133  y  -1.04004127261019  z   ${z_new}
set                atom          288751    x  0.57372150115133  y  -1.04004127261019  z   11.7837907468119
Setting atom values ...
  1 settings made for x
  1 settings made for y
  1 settings made for z

fix                hold    carbon   planeforce   ${new_x}  ${new_y}  ${new_z}
fix                hold    carbon   planeforce   -0.00782532534730296  ${new_y}  ${new_z}
fix                hold    carbon   planeforce   -0.00782532534730296  -0.00902585830257996  ${new_z}
fix                hold    carbon   planeforce   -0.00782532534730296  -0.00902585830257996  0.00200910971839896
min_style          cg
minimize           1.0e-30 1.0e-30 10000 10000
Per MPI rank memory allocation (min/avg/max) = 5.441 | 5.816 | 6.074 Mbytes
Step PotEng KinEng TotEng v_fx v_fy v_fz 
     351   -1152449.4            0   -1152449.4 -0.025146398  0.016325086 -0.024603352 
     522   -1152449.4            0   -1152449.4 -1.3225763e-05 1.4717741e-05 1.4605648e-05 
Loop time of 2.0206 on 104 procs for 171 steps with 288751 atoms

99.9% CPU use with 104 MPI tasks x 1 OpenMP threads

Minimization stats:
  Stopping criterion = energy tolerance
  Energy initial, next-to-last, final = 
     -1152449.44684026  -1152449.44812648  -1152449.44812648
  Force two-norm initial, final = 0.16028135 0.00012614349
  Force max component initial, final = 0.090271472 2.2813556e-05
  Final line search alpha, max atom move = 1.0000000 2.2813556e-05
  Iterations, force evaluations = 171 342

MPI task timing breakdown:
Section |  min time  |  avg time  |  max time  |%varavg| %total
---------------------------------------------------------------
Pair    | 0.51505    | 1.4384     | 1.8819     |  32.5 | 71.19
Neigh   | 0          | 0          | 0          |   0.0 |  0.00
Comm    | 0.031949   | 0.32908    | 0.9758     |  47.1 | 16.29
Output  | 0          | 0          | 0          |   0.0 |  0.00
Modify  | 2.0836e-05 | 0.0028265  | 0.0059926  |   2.5 |  0.14
Other   |            | 0.2503     |            |       | 12.39

Nlocal:        2776.45 ave        3961 max           0 min
Histogram: 8 4 4 0 6 10 8 2 28 34
Nghost:        3879.01 ave        5424 max         232 min
Histogram: 8 0 8 0 16 0 8 8 16 40
Neighs:        79213.4 ave      115458 max           0 min
Histogram: 8 4 4 0 10 6 8 8 24 32

Total # of neighbors = 8238196
Ave neighs/atom = 28.530450
Neighbor list builds = 0
Dangerous builds = 0
unfix              hold

variable           new_x         delete
variable           new_y         delete
variable           new_z         delete
variable           dot           delete
variable           new_x         equal     ${x0}-${x_0}
variable           new_x         equal     0.572460597364369-${x_0}
variable           new_x         equal     0.572460597364369-0.594466768762759
variable           new_y         equal     ${y0}-${y_0}
variable           new_y         equal     -1.03928417822135-${y_0}
variable           new_y         equal     -1.03928417822135--1.01611334148917
variable           new_z         equal     ${z0}-${z_0}
variable           new_z         equal     11.7822808463513-${z_0}
variable           new_z         equal     11.7822808463513-11.778464512193

variable           dot      equal     ${fx}*${new_x}+${fy}*${new_y}+${fz}*${new_z}
variable           dot      equal     -1.3225762565968e-05*${new_x}+${fy}*${new_y}+${fz}*${new_z}
variable           dot      equal     -1.3225762565968e-05*-0.0220061713983899+${fy}*${new_y}+${fz}*${new_z}
variable           dot      equal     -1.3225762565968e-05*-0.0220061713983899+1.47177410335806e-05*${new_y}+${fz}*${new_z}
variable           dot      equal     -1.3225762565968e-05*-0.0220061713983899+1.47177410335806e-05*-0.0231708367321799+${fz}*${new_z}
variable           dot      equal     -1.3225762565968e-05*-0.0220061713983899+1.47177410335806e-05*-0.0231708367321799+1.46056483574404e-05*${new_z}
variable           dot      equal     -1.3225762565968e-05*-0.0220061713983899+1.47177410335806e-05*-0.0231708367321799+1.46056483574404e-05*0.00381633415829974
print              "The dot product: ${dot}"
The dot product: 5.76605807611438e-09

if "(${dot} >= 0.0) && (${dot} < 1.0e-10)" then "jump TaR.in relaxation" elif "(${dot} < 0.0) && (${dot} > -1.0e-10)" "jump TaR.in relaxation" elif "(${iteration} == ${iter_tot}) && (${seed} < 319)" "print 'The iteration number is maximum!'" "next seed" "variable iteration delete" "jump TaR.in loop" elif "(${iteration} == ${iter_tot}) && (${seed} == 319)" "quit" else    "next iteration"    "jump TaR.in iteration"
next iteration
jump TaR.in iteration
variable           norm          equal     sqrt(${new_x}^2+${new_y}^2+${new_z}^2)
variable           norm          equal     sqrt(-0.0220061713983899^2+${new_y}^2+${new_z}^2)
variable           norm          equal     sqrt(-0.0220061713983899^2+-0.0231708367321799^2+${new_z}^2)
variable           norm          equal     sqrt(-0.0220061713983899^2+-0.0231708367321799^2+0.00381633415829974^2)
variable           unit_x        equal     ${new_x}/${norm}
variable           unit_x        equal     -0.0220061713983899/${norm}
variable           unit_x        equal     -0.0220061713983899/0.0321826608734029
variable           unit_y        equal     ${new_y}/${norm}
variable           unit_y        equal     -0.0231708367321799/${norm}
variable           unit_y        equal     -0.0231708367321799/0.0321826608734029
variable           unit_z        equal     ${new_z}/${norm}
variable           unit_z        equal     0.00381633415829974/${norm}
variable           unit_z        equal     0.00381633415829974/0.0321826608734029
variable           x_new         equal     ${x0}+${delta}*${unit_x}
variable           x_new         equal     0.572460597364369+${delta}*${unit_x}
variable           x_new         equal     0.572460597364369+0.02*${unit_x}
variable           x_new         equal     0.572460597364369+0.02*-0.683789680566057
variable           y_new         equal     ${y0}+${delta}*${unit_y}
variable           y_new         equal     -1.03928417822135+${delta}*${unit_y}
variable           y_new         equal     -1.03928417822135+0.02*${unit_y}
variable           y_new         equal     -1.03928417822135+0.02*-0.719978898678613
variable           z_new         equal     ${z0}+${delta}*${unit_z}
variable           z_new         equal     11.7822808463513+${delta}*${unit_z}
variable           z_new         equal     11.7822808463513+0.02*${unit_z}
variable           z_new         equal     11.7822808463513+0.02*0.118583549486852

set                atom          $i    x  ${x_new}  y  ${y_new}  z   ${z_new}
set                atom          288751    x  ${x_new}  y  ${y_new}  z   ${z_new}
set                atom          288751    x  0.558784803753048  y  ${y_new}  z   ${z_new}
set                atom          288751    x  0.558784803753048  y  -1.05368375619492  z   ${z_new}
set                atom          288751    x  0.558784803753048  y  -1.05368375619492  z   11.784652517341
Setting atom values ...
  1 settings made for x
  1 settings made for y
  1 settings made for z

fix                hold    carbon   planeforce   ${new_x}  ${new_y}  ${new_z}
fix                hold    carbon   planeforce   -0.0220061713983899  ${new_y}  ${new_z}
fix                hold    carbon   planeforce   -0.0220061713983899  -0.0231708367321799  ${new_z}
fix                hold    carbon   planeforce   -0.0220061713983899  -0.0231708367321799  0.00381633415829974
min_style          cg
minimize           1.0e-30 1.0e-30 10000 10000
Per MPI rank memory allocation (min/avg/max) = 5.441 | 5.816 | 6.074 Mbytes
Step PotEng KinEng TotEng v_fx v_fy v_fz 
     522   -1152449.4            0   -1152449.4 -0.021985224  0.018266425 -0.015869224 
     670   -1152449.4            0   -1152449.4 -3.7239814e-06 5.9939847e-07 -1.7834394e-05 
Loop time of 1.75123 on 104 procs for 148 steps with 288751 atoms

99.9% CPU use with 104 MPI tasks x 1 OpenMP threads

Minimization stats:
  Stopping criterion = energy tolerance
  Energy initial, next-to-last, final = 
     -1152449.44335681  -1152449.44460528  -1152449.44460528
  Force two-norm initial, final = 0.1562373 4.9116413e-05
  Force max component initial, final = 0.094785829 1.7834394e-05
  Final line search alpha, max atom move = 1.0000000 1.7834394e-05
  Iterations, force evaluations = 148 296

MPI task timing breakdown:
Section |  min time  |  avg time  |  max time  |%varavg| %total
---------------------------------------------------------------
Pair    | 0.44647    | 1.2538     | 1.6259     |  30.3 | 71.59
Neigh   | 0          | 0          | 0          |   0.0 |  0.00
Comm    | 0.03269    | 0.28575    | 0.84512    |  44.0 | 16.32
Output  | 0          | 0          | 0          |   0.0 |  0.00
Modify  | 1.8983e-05 | 0.0024506  | 0.0051971  |   2.3 |  0.14
Other   |            | 0.2093     |            |       | 11.95

Nlocal:        2776.45 ave        3961 max           0 min
Histogram: 8 4 4 0 6 10 8 2 28 34
Nghost:        3879.01 ave        5424 max         232 min
Histogram: 8 0 8 0 16 0 8 8 16 40
Neighs:        79213.4 ave      115458 max           0 min
Histogram: 8 4 4 0 10 6 8 8 24 32

Total # of neighbors = 8238195
Ave neighs/atom = 28.530447
Neighbor list builds = 0
Dangerous builds = 0
unfix              hold

variable           new_x         delete
variable           new_y         delete
variable           new_z         delete
variable           dot           delete
variable           new_x         equal     ${x0}-${x_0}
variable           new_x         equal     0.557330498802923-${x_0}
variable           new_x         equal     0.557330498802923-0.594466768762759
variable           new_y         equal     ${y0}-${y_0}
variable           new_y         equal     -1.05245032584772-${y_0}
variable           new_y         equal     -1.05245032584772--1.01611334148917
variable           new_z         equal     ${z0}-${z_0}
variable           new_z         equal     11.7837553027209-${z_0}
variable           new_z         equal     11.7837553027209-11.778464512193

variable           dot      equal     ${fx}*${new_x}+${fy}*${new_y}+${fz}*${new_z}
variable           dot      equal     -3.72398137175978e-06*${new_x}+${fy}*${new_y}+${fz}*${new_z}
variable           dot      equal     -3.72398137175978e-06*-0.037136269959836+${fy}*${new_y}+${fz}*${new_z}
variable           dot      equal     -3.72398137175978e-06*-0.037136269959836+5.99398472381384e-07*${new_y}+${fz}*${new_z}
variable           dot      equal     -3.72398137175978e-06*-0.037136269959836+5.99398472381384e-07*-0.0363369843585499+${fz}*${new_z}
variable           dot      equal     -3.72398137175978e-06*-0.037136269959836+5.99398472381384e-07*-0.0363369843585499+-1.78343943130377e-05*${new_z}
variable           dot      equal     -3.72398137175978e-06*-0.037136269959836+5.99398472381384e-07*-0.0363369843585499+-1.78343943130377e-05*0.0052907905278996
print              "The dot product: ${dot}"
The dot product: 2.21564001293642e-08

if "(${dot} >= 0.0) && (${dot} < 1.0e-10)" then "jump TaR.in relaxation" elif "(${dot} < 0.0) && (${dot} > -1.0e-10)" "jump TaR.in relaxation" elif "(${iteration} == ${iter_tot}) && (${seed} < 319)" "print 'The iteration number is maximum!'" "next seed" "variable iteration delete" "jump TaR.in loop" elif "(${iteration} == ${iter_tot}) && (${seed} == 319)" "quit" else    "next iteration"    "jump TaR.in iteration"
next iteration
jump TaR.in iteration
variable           norm          equal     sqrt(${new_x}^2+${new_y}^2+${new_z}^2)
variable           norm          equal     sqrt(-0.037136269959836^2+${new_y}^2+${new_z}^2)
variable           norm          equal     sqrt(-0.037136269959836^2+-0.0363369843585499^2+${new_z}^2)
variable           norm          equal     sqrt(-0.037136269959836^2+-0.0363369843585499^2+0.0052907905278996^2)
variable           unit_x        equal     ${new_x}/${norm}
variable           unit_x        equal     -0.037136269959836/${norm}
variable           unit_x        equal     -0.037136269959836/0.052225199312338
variable           unit_y        equal     ${new_y}/${norm}
variable           unit_y        equal     -0.0363369843585499/${norm}
variable           unit_y        equal     -0.0363369843585499/0.052225199312338
variable           unit_z        equal     ${new_z}/${norm}
variable           unit_z        equal     0.0052907905278996/${norm}
variable           unit_z        equal     0.0052907905278996/0.052225199312338
variable           x_new         equal     ${x0}+${delta}*${unit_x}
variable           x_new         equal     0.557330498802923+${delta}*${unit_x}
variable           x_new         equal     0.557330498802923+0.02*${unit_x}
variable           x_new         equal     0.557330498802923+0.02*-0.711079525761862
variable           y_new         equal     ${y0}+${delta}*${unit_y}
variable           y_new         equal     -1.05245032584772+${delta}*${unit_y}
variable           y_new         equal     -1.05245032584772+0.02*${unit_y}
variable           y_new         equal     -1.05245032584772+0.02*-0.695774929287162
variable           z_new         equal     ${z0}+${delta}*${unit_z}
variable           z_new         equal     11.7837553027209+${delta}*${unit_z}
variable           z_new         equal     11.7837553027209+0.02*${unit_z}
variable           z_new         equal     11.7837553027209+0.02*0.101307234774874

set                atom          $i    x  ${x_new}  y  ${y_new}  z   ${z_new}
set                atom          288751    x  ${x_new}  y  ${y_new}  z   ${z_new}
set                atom          288751    x  0.543108908287686  y  ${y_new}  z   ${z_new}
set                atom          288751    x  0.543108908287686  y  -1.06636582443346  z   ${z_new}
set                atom          288751    x  0.543108908287686  y  -1.06636582443346  z   11.7857814474164
Setting atom values ...
  1 settings made for x
  1 settings made for y
  1 settings made for z

fix                hold    carbon   planeforce   ${new_x}  ${new_y}  ${new_z}
fix                hold    carbon   planeforce   -0.037136269959836  ${new_y}  ${new_z}
fix                hold    carbon   planeforce   -0.037136269959836  -0.0363369843585499  ${new_z}
fix                hold    carbon   planeforce   -0.037136269959836  -0.0363369843585499  0.0052907905278996
min_style          cg
minimize           1.0e-30 1.0e-30 10000 10000
Per MPI rank memory allocation (min/avg/max) = 5.441 | 5.816 | 6.074 Mbytes
Step PotEng KinEng TotEng v_fx v_fy v_fz 
     670   -1152449.4            0   -1152449.4 -0.019198055  0.018410848 -0.0083067791 
     799   -1152449.4            0   -1152449.4 1.9153714e-05 -1.5227069e-05 2.9861649e-05 
Loop time of 1.50385 on 104 procs for 129 steps with 288751 atoms

99.9% CPU use with 104 MPI tasks x 1 OpenMP threads

Minimization stats:
  Stopping criterion = energy tolerance
  Energy initial, next-to-last, final = 
     -1152449.43830557  -1152449.43953313  -1152449.43953313
  Force two-norm initial, final = 0.15370632 0.00010370328
  Force max component initial, final = 0.098434688 2.9861649e-05
  Final line search alpha, max atom move = 1.0000000 2.9861649e-05
  Iterations, force evaluations = 129 258

MPI task timing breakdown:
Section |  min time  |  avg time  |  max time  |%varavg| %total
---------------------------------------------------------------
Pair    | 0.38727    | 1.0815     | 1.413      |  28.1 | 71.92
Neigh   | 0          | 0          | 0          |   0.0 |  0.00
Comm    | 0.024287   | 0.24432    | 0.73144    |  41.2 | 16.25
Output  | 0          | 0          | 0          |   0.0 |  0.00
Modify  | 1.5782e-05 | 0.0021309  | 0.0045225  |   2.2 |  0.14
Other   |            | 0.1759     |            |       | 11.70

Nlocal:        2776.45 ave        3961 max           0 min
Histogram: 8 4 4 0 6 10 8 2 28 34
Nghost:        3879.01 ave        5424 max         232 min
Histogram: 8 0 8 0 16 0 8 8 16 40
Neighs:        79213.4 ave      115458 max           0 min
Histogram: 8 4 4 0 10 6 8 8 24 32

Total # of neighbors = 8238194
Ave neighs/atom = 28.530443
Neighbor list builds = 0
Dangerous builds = 0
unfix              hold

variable           new_x         delete
variable           new_y         delete
variable           new_z         delete
variable           dot           delete
variable           new_x         equal     ${x0}-${x_0}
variable           new_x         equal     0.541697667014145-${x_0}
variable           new_x         equal     0.541697667014145-0.594466768762759
variable           new_y         equal     ${y0}-${y_0}
variable           new_y         equal     -1.06492540919684-${y_0}
variable           new_y         equal     -1.06492540919684--1.01611334148917
variable           new_z         equal     ${z0}-${z_0}
variable           new_z         equal     11.7857686154983-${z_0}
variable           new_z         equal     11.7857686154983-11.778464512193

variable           dot      equal     ${fx}*${new_x}+${fy}*${new_y}+${fz}*${new_z}
variable           dot      equal     1.91537139690195e-05*${new_x}+${fy}*${new_y}+${fz}*${new_z}
variable           dot      equal     1.91537139690195e-05*-0.0527691017486139+${fy}*${new_y}+${fz}*${new_z}
variable           dot      equal     1.91537139690195e-05*-0.0527691017486139+-1.5227068791404e-05*${new_y}+${fz}*${new_z}
variable           dot      equal     1.91537139690195e-05*-0.0527691017486139+-1.5227068791404e-05*-0.04881206770767+${fz}*${new_z}
variable           dot      equal     1.91537139690195e-05*-0.0527691017486139+-1.5227068791404e-05*-0.04881206770767+2.98616494738624e-05*${new_z}
variable           dot      equal     1.91537139690195e-05*-0.0527691017486139+-1.5227068791404e-05*-0.04881206770767+2.98616494738624e-05*0.00730410330529985
print              "The dot product: ${dot}"
The dot product: -4.93469958359325e-08

if "(${dot} >= 0.0) && (${dot} < 1.0e-10)" then "jump TaR.in relaxation" elif "(${dot} < 0.0) && (${dot} > -1.0e-10)" "jump TaR.in relaxation" elif "(${iteration} == ${iter_tot}) && (${seed} < 319)" "print 'The iteration number is maximum!'" "next seed" "variable iteration delete" "jump TaR.in loop" elif "(${iteration} == ${iter_tot}) && (${seed} == 319)" "quit" else    "next iteration"    "jump TaR.in iteration"
next iteration
jump TaR.in iteration
variable           norm          equal     sqrt(${new_x}^2+${new_y}^2+${new_z}^2)
variable           norm          equal     sqrt(-0.0527691017486139^2+${new_y}^2+${new_z}^2)
variable           norm          equal     sqrt(-0.0527691017486139^2+-0.04881206770767^2+${new_z}^2)
variable           norm          equal     sqrt(-0.0527691017486139^2+-0.04881206770767^2+0.00730410330529985^2)
variable           unit_x        equal     ${new_x}/${norm}
variable           unit_x        equal     -0.0527691017486139/${norm}
variable           unit_x        equal     -0.0527691017486139/0.0722533457934525
variable           unit_y        equal     ${new_y}/${norm}
variable           unit_y        equal     -0.04881206770767/${norm}
variable           unit_y        equal     -0.04881206770767/0.0722533457934525
variable           unit_z        equal     ${new_z}/${norm}
variable           unit_z        equal     0.00730410330529985/${norm}
variable           unit_z        equal     0.00730410330529985/0.0722533457934525
variable           x_new         equal     ${x0}+${delta}*${unit_x}
variable           x_new         equal     0.541697667014145+${delta}*${unit_x}
variable           x_new         equal     0.541697667014145+0.02*${unit_x}
variable           x_new         equal     0.541697667014145+0.02*-0.730334369559337
variable           y_new         equal     ${y0}+${delta}*${unit_y}
variable           y_new         equal     -1.06492540919684+${delta}*${unit_y}
variable           y_new         equal     -1.06492540919684+0.02*${unit_y}
variable           y_new         equal     -1.06492540919684+0.02*-0.675568268453712
variable           z_new         equal     ${z0}+${delta}*${unit_z}
variable           z_new         equal     11.7857686154983+${delta}*${unit_z}
variable           z_new         equal     11.7857686154983+0.02*${unit_z}
variable           z_new         equal     11.7857686154983+0.02*0.101090174096294

set                atom          $i    x  ${x_new}  y  ${y_new}  z   ${z_new}
set                atom          288751    x  ${x_new}  y  ${y_new}  z   ${z_new}
set                atom          288751    x  0.527090979622958  y  ${y_new}  z   ${z_new}
set                atom          288751    x  0.527090979622958  y  -1.07843677456591  z   ${z_new}
set                atom          288751    x  0.527090979622958  y  -1.07843677456591  z   11.7877904189802
Setting atom values ...
  1 settings made for x
  1 settings made for y
  1 settings made for z

fix                hold    carbon   planeforce   ${new_x}  ${new_y}  ${new_z}
fix                hold    carbon   planeforce   -0.0527691017486139  ${new_y}  ${new_z}
fix                hold    carbon   planeforce   -0.0527691017486139  -0.04881206770767  ${new_z}
fix                hold    carbon   planeforce   -0.0527691017486139  -0.04881206770767  0.00730410330529985
min_style          cg
minimize           1.0e-30 1.0e-30 10000 10000
Per MPI rank memory allocation (min/avg/max) = 5.441 | 5.816 | 6.074 Mbytes
Step PotEng KinEng TotEng v_fx v_fy v_fz 
     799   -1152449.4            0   -1152449.4 -0.018995772  0.020145148 -0.0026099738 
     929   -1152449.4            0   -1152449.4 -1.3656173e-05 9.8257398e-06 -3.2996424e-05 
Loop time of 1.54916 on 104 procs for 130 steps with 288751 atoms

99.9% CPU use with 104 MPI tasks x 1 OpenMP threads

Minimization stats:
  Stopping criterion = energy tolerance
  Energy initial, next-to-last, final = 
     -1152449.43172411  -1152449.43293603  -1152449.43293603
  Force two-norm initial, final = 0.15254581 0.00013088983
  Force max component initial, final = 0.10151088 3.3847570e-05
  Final line search alpha, max atom move = 1.0000000 3.3847570e-05
  Iterations, force evaluations = 130 260

MPI task timing breakdown:
Section |  min time  |  avg time  |  max time  |%varavg| %total
---------------------------------------------------------------
Pair    | 0.38937    | 1.1005     | 1.4357     |  28.5 | 71.04
Neigh   | 0          | 0          | 0          |   0.0 |  0.00
Comm    | 0.024969   | 0.25144    | 0.73796    |  40.9 | 16.23
Output  | 0          | 0          | 0          |   0.0 |  0.00
Modify  | 1.5833e-05 | 0.0021537  | 0.004603   |   2.2 |  0.14
Other   |            | 0.195      |            |       | 12.59

Nlocal:        2776.45 ave        3960 max           0 min
Histogram: 8 4 4 0 4 12 8 2 28 34
Nghost:        3879.01 ave        5424 max         232 min
Histogram: 8 0 8 0 16 0 8 8 16 40
Neighs:        79213.4 ave      115415 max           0 min
Histogram: 8 4 4 0 10 6 8 8 24 32

Total # of neighbors = 8238192
Ave neighs/atom = 28.530436
Neighbor list builds = 0
Dangerous builds = 0
unfix              hold

variable           new_x         delete
variable           new_y         delete
variable           new_z         delete
variable           dot           delete
variable           new_x         equal     ${x0}-${x_0}
variable           new_x         equal     0.525407679672516-${x_0}
variable           new_x         equal     0.525407679672516-0.594466768762759
variable           new_y         equal     ${y0}-${y_0}
variable           new_y         equal     -1.0765086159474-${y_0}
variable           new_y         equal     -1.0765086159474--1.01611334148917
variable           new_z         equal     ${z0}-${z_0}
variable           new_z         equal     11.7885148313355-${z_0}
variable           new_z         equal     11.7885148313355-11.778464512193

variable           dot      equal     ${fx}*${new_x}+${fy}*${new_y}+${fz}*${new_z}
variable           dot      equal     -1.36561726308147e-05*${new_x}+${fy}*${new_y}+${fz}*${new_z}
variable           dot      equal     -1.36561726308147e-05*-0.0690590890902429+${fy}*${new_y}+${fz}*${new_z}
variable           dot      equal     -1.36561726308147e-05*-0.0690590890902429+9.82573981094999e-06*${new_y}+${fz}*${new_z}
variable           dot      equal     -1.36561726308147e-05*-0.0690590890902429+9.82573981094999e-06*-0.0603952744582299+${fz}*${new_z}
variable           dot      equal     -1.36561726308147e-05*-0.0690590890902429+9.82573981094999e-06*-0.0603952744582299+-3.29964235239174e-05*${new_z}
variable           dot      equal     -1.36561726308147e-05*-0.0690590890902429+9.82573981094999e-06*-0.0603952744582299+-3.29964235239174e-05*0.0100503191424988
print              "The dot product: ${dot}"
The dot product: 1.80300027292638e-08

if "(${dot} >= 0.0) && (${dot} < 1.0e-10)" then "jump TaR.in relaxation" elif "(${dot} < 0.0) && (${dot} > -1.0e-10)" "jump TaR.in relaxation" elif "(${iteration} == ${iter_tot}) && (${seed} < 319)" "print 'The iteration number is maximum!'" "next seed" "variable iteration delete" "jump TaR.in loop" elif "(${iteration} == ${iter_tot}) && (${seed} == 319)" "quit" else    "next iteration"    "jump TaR.in iteration"
next iteration
jump TaR.in iteration
variable           norm          equal     sqrt(${new_x}^2+${new_y}^2+${new_z}^2)
variable           norm          equal     sqrt(-0.0690590890902429^2+${new_y}^2+${new_z}^2)
variable           norm          equal     sqrt(-0.0690590890902429^2+-0.0603952744582299^2+${new_z}^2)
variable           norm          equal     sqrt(-0.0690590890902429^2+-0.0603952744582299^2+0.0100503191424988^2)
variable           unit_x        equal     ${new_x}/${norm}
variable           unit_x        equal     -0.0690590890902429/${norm}
variable           unit_x        equal     -0.0690590890902429/0.0922916891043018
variable           unit_y        equal     ${new_y}/${norm}
variable           unit_y        equal     -0.0603952744582299/${norm}
variable           unit_y        equal     -0.0603952744582299/0.0922916891043018
variable           unit_z        equal     ${new_z}/${norm}
variable           unit_z        equal     0.0100503191424988/${norm}
variable           unit_z        equal     0.0100503191424988/0.0922916891043018
variable           x_new         equal     ${x0}+${delta}*${unit_x}
variable           x_new         equal     0.525407679672516+${delta}*${unit_x}
variable           x_new         equal     0.525407679672516+0.02*${unit_x}
variable           x_new         equal     0.525407679672516+0.02*-0.748269857887171
variable           y_new         equal     ${y0}+${delta}*${unit_y}
variable           y_new         equal     -1.0765086159474+${delta}*${unit_y}
variable           y_new         equal     -1.0765086159474+0.02*${unit_y}
variable           y_new         equal     -1.0765086159474+0.02*-0.654395591243056
variable           z_new         equal     ${z0}+${delta}*${unit_z}
variable           z_new         equal     11.7885148313355+${delta}*${unit_z}
variable           z_new         equal     11.7885148313355+0.02*${unit_z}
variable           z_new         equal     11.7885148313355+0.02*0.108897336694538

set                atom          $i    x  ${x_new}  y  ${y_new}  z   ${z_new}
set                atom          288751    x  ${x_new}  y  ${y_new}  z   ${z_new}
set                atom          288751    x  0.510442282514773  y  ${y_new}  z   ${z_new}
set                atom          288751    x  0.510442282514773  y  -1.08959652777226  z   ${z_new}
set                atom          288751    x  0.510442282514773  y  -1.08959652777226  z   11.7906927780694
Setting atom values ...
  1 settings made for x
  1 settings made for y
  1 settings made for z

fix                hold    carbon   planeforce   ${new_x}  ${new_y}  ${new_z}
fix                hold    carbon   planeforce   -0.0690590890902429  ${new_y}  ${new_z}
fix                hold    carbon   planeforce   -0.0690590890902429  -0.0603952744582299  ${new_z}
fix                hold    carbon   planeforce   -0.0690590890902429  -0.0603952744582299  0.0100503191424988
min_style          cg
minimize           1.0e-30 1.0e-30 10000 10000
Per MPI rank memory allocation (min/avg/max) = 5.441 | 5.816 | 6.074 Mbytes
Step PotEng KinEng TotEng v_fx v_fy v_fz 
     929   -1152449.4            0   -1152449.4 -0.020679293  0.023944184 0.0017932174 
    1000   -1152449.4            0   -1152449.4 5.0319381e-05 -3.5813914e-05 0.00013054505 
    1082   -1152449.4            0   -1152449.4 -6.3656205e-06 1.3582176e-05 3.7878927e-05 
Loop time of 1.78254 on 104 procs for 153 steps with 288751 atoms

99.9% CPU use with 104 MPI tasks x 1 OpenMP threads

Minimization stats:
  Stopping criterion = energy tolerance
  Energy initial, next-to-last, final = 
     -1152449.42366374  -1152449.42487662  -1152449.42487662
  Force two-norm initial, final = 0.15256545 0.00017068079
  Force max component initial, final = 0.10435122 3.7878927e-05
  Final line search alpha, max atom move = 1.0000000 3.7878927e-05
  Iterations, force evaluations = 153 306

MPI task timing breakdown:
Section |  min time  |  avg time  |  max time  |%varavg| %total
---------------------------------------------------------------
Pair    | 0.46288    | 1.2833     | 1.6626     |  30.5 | 71.99
Neigh   | 0          | 0          | 0          |   0.0 |  0.00
Comm    | 0.031404   | 0.28991    | 0.86518    |  44.9 | 16.26
Output  | 0.00022436 | 0.00023062 | 0.0003587  |   0.0 |  0.01
Modify  | 1.9543e-05 | 0.0025307  | 0.0053692  |   2.4 |  0.14
Other   |            | 0.2066     |            |       | 11.59

Nlocal:        2776.45 ave        3959 max           0 min
Histogram: 8 4 4 0 4 12 8 2 28 34
Nghost:        3879.01 ave        5424 max         232 min
Histogram: 8 0 8 0 16 0 8 8 16 40
Neighs:        79213.4 ave      115391 max           0 min
Histogram: 8 4 4 0 10 6 8 8 24 32

Total # of neighbors = 8238190
Ave neighs/atom = 28.530429
Neighbor list builds = 0
Dangerous builds = 0
unfix              hold

variable           new_x         delete
variable           new_y         delete
variable           new_z         delete
variable           dot           delete
variable           new_x         equal     ${x0}-${x_0}
variable           new_x         equal     0.507881203376411-${x_0}
variable           new_x         equal     0.507881203376411-0.594466768762759
variable           new_y         equal     ${y0}-${y_0}
variable           new_y         equal     -1.08644486753305-${y_0}
variable           new_y         equal     -1.08644486753305--1.01611334148917
variable           new_z         equal     ${z0}-${z_0}
variable           new_z         equal     11.79203398849-${z_0}
variable           new_z         equal     11.79203398849-11.778464512193

variable           dot      equal     ${fx}*${new_x}+${fy}*${new_y}+${fz}*${new_z}
variable           dot      equal     -6.36562051841332e-06*${new_x}+${fy}*${new_y}+${fz}*${new_z}
variable           dot      equal     -6.36562051841332e-06*-0.086585565386348+${fy}*${new_y}+${fz}*${new_z}
variable           dot      equal     -6.36562051841332e-06*-0.086585565386348+1.35821762585856e-05*${new_y}+${fz}*${new_z}
variable           dot      equal     -6.36562051841332e-06*-0.086585565386348+1.35821762585856e-05*-0.0703315260438799+${fz}*${new_z}
variable           dot      equal     -6.36562051841332e-06*-0.086585565386348+1.35821762585856e-05*-0.0703315260438799+3.78789273240923e-05*${new_z}
variable           dot      equal     -6.36562051841332e-06*-0.086585565386348+1.35821762585856e-05*-0.0703315260438799+3.78789273240923e-05*0.0135694762969987
print              "The dot product: ${dot}"
The dot product: 1.09912874838481e-07

if "(${dot} >= 0.0) && (${dot} < 1.0e-10)" then "jump TaR.in relaxation" elif "(${dot} < 0.0) && (${dot} > -1.0e-10)" "jump TaR.in relaxation" elif "(${iteration} == ${iter_tot}) && (${seed} < 319)" "print 'The iteration number is maximum!'" "next seed" "variable iteration delete" "jump TaR.in loop" elif "(${iteration} == ${iter_tot}) && (${seed} == 319)" "quit" else    "next iteration"    "jump TaR.in iteration"
next iteration
jump TaR.in iteration
variable           norm          equal     sqrt(${new_x}^2+${new_y}^2+${new_z}^2)
variable           norm          equal     sqrt(-0.086585565386348^2+${new_y}^2+${new_z}^2)
variable           norm          equal     sqrt(-0.086585565386348^2+-0.0703315260438799^2+${new_z}^2)
variable           norm          equal     sqrt(-0.086585565386348^2+-0.0703315260438799^2+0.0135694762969987^2)
variable           unit_x        equal     ${new_x}/${norm}
variable           unit_x        equal     -0.086585565386348/${norm}
variable           unit_x        equal     -0.086585565386348/0.112373103436317
variable           unit_y        equal     ${new_y}/${norm}
variable           unit_y        equal     -0.0703315260438799/${norm}
variable           unit_y        equal     -0.0703315260438799/0.112373103436317
variable           unit_z        equal     ${new_z}/${norm}
variable           unit_z        equal     0.0135694762969987/${norm}
variable           unit_z        equal     0.0135694762969987/0.112373103436317
variable           x_new         equal     ${x0}+${delta}*${unit_x}
variable           x_new         equal     0.507881203376411+${delta}*${unit_x}
variable           x_new         equal     0.507881203376411+0.02*${unit_x}
variable           x_new         equal     0.507881203376411+0.02*-0.770518591536603
variable           y_new         equal     ${y0}+${delta}*${unit_y}
variable           y_new         equal     -1.08644486753305+${delta}*${unit_y}
variable           y_new         equal     -1.08644486753305+0.02*${unit_y}
variable           y_new         equal     -1.08644486753305+0.02*-0.625875088372348
variable           z_new         equal     ${z0}+${delta}*${unit_z}
variable           z_new         equal     11.79203398849+${delta}*${unit_z}
variable           z_new         equal     11.79203398849+0.02*${unit_z}
variable           z_new         equal     11.79203398849+0.02*0.120753773652684

set                atom          $i    x  ${x_new}  y  ${y_new}  z   ${z_new}
set                atom          288751    x  ${x_new}  y  ${y_new}  z   ${z_new}
set                atom          288751    x  0.492470831545679  y  ${y_new}  z   ${z_new}
set                atom          288751    x  0.492470831545679  y  -1.0989623693005  z   ${z_new}
set                atom          288751    x  0.492470831545679  y  -1.0989623693005  z   11.7944490639631
Setting atom values ...
  1 settings made for x
  1 settings made for y
  1 settings made for z

fix                hold    carbon   planeforce   ${new_x}  ${new_y}  ${new_z}
fix                hold    carbon   planeforce   -0.086585565386348  ${new_y}  ${new_z}
fix                hold    carbon   planeforce   -0.086585565386348  -0.0703315260438799  ${new_z}
fix                hold    carbon   planeforce   -0.086585565386348  -0.0703315260438799  0.0135694762969987
min_style          cg
minimize           1.0e-30 1.0e-30 10000 10000
Per MPI rank memory allocation (min/avg/max) = 5.441 | 5.816 | 6.074 Mbytes
Step PotEng KinEng TotEng v_fx v_fy v_fz 
    1082   -1152449.4            0   -1152449.4 -0.024384617  0.031092801 0.0055601469 
    1222   -1152449.4            0   -1152449.4 -1.4568455e-05 1.595655e-05 -1.025606e-05 
Loop time of 1.66252 on 104 procs for 140 steps with 288751 atoms

99.9% CPU use with 104 MPI tasks x 1 OpenMP threads

Minimization stats:
  Stopping criterion = energy tolerance
  Energy initial, next-to-last, final = 
     -1152449.41422951  -1152449.41548556  -1152449.41548556
  Force two-norm initial, final = 0.15404996 0.00017221906
  Force max component initial, final = 0.10708445 1.5956550e-05
  Final line search alpha, max atom move = 1.0000000 1.5956550e-05
  Iterations, force evaluations = 140 280

MPI task timing breakdown:
Section |  min time  |  avg time  |  max time  |%varavg| %total
---------------------------------------------------------------
Pair    | 0.41973    | 1.1884     | 1.5572     |  29.7 | 71.48
Neigh   | 0          | 0          | 0          |   0.0 |  0.00
Comm    | 0.02582    | 0.27072    | 0.81646    |  42.9 | 16.28
Output  | 0          | 0          | 0          |   0.0 |  0.00
Modify  | 1.6926e-05 | 0.002314   | 0.0049288  |   2.3 |  0.14
Other   |            | 0.2011     |            |       | 12.10

Nlocal:        2776.45 ave        3959 max           0 min
Histogram: 8 4 4 0 4 12 8 2 28 34
Nghost:        3879.05 ave        5424 max         232 min
Histogram: 8 0 8 0 16 0 8 8 16 40
Neighs:        79213.4 ave      115391 max           0 min
Histogram: 8 4 4 0 10 6 8 8 24 32

Total # of neighbors = 8238191
Ave neighs/atom = 28.530433
Neighbor list builds = 0
Dangerous builds = 0
unfix              hold

variable           new_x         delete
variable           new_y         delete
variable           new_z         delete
variable           dot           delete
variable           new_x         equal     ${x0}-${x_0}
variable           new_x         equal     0.488226698145133-${x_0}
variable           new_x         equal     0.488226698145133-0.594466768762759
variable           new_y         equal     ${y0}-${y_0}
variable           new_y         equal     -1.09338863795593-${y_0}
variable           new_y         equal     -1.09338863795593--1.01611334148917
variable           new_z         equal     ${z0}-${z_0}
variable           new_z         equal     11.7962566754455-${z_0}
variable           new_z         equal     11.7962566754455-11.778464512193

variable           dot      equal     ${fx}*${new_x}+${fy}*${new_y}+${fz}*${new_z}
variable           dot      equal     -1.45684548897522e-05*${new_x}+${fy}*${new_y}+${fz}*${new_z}
variable           dot      equal     -1.45684548897522e-05*-0.106240070617626+${fy}*${new_y}+${fz}*${new_z}
variable           dot      equal     -1.45684548897522e-05*-0.106240070617626+1.59565503946873e-05*${new_y}+${fz}*${new_z}
variable           dot      equal     -1.45684548897522e-05*-0.106240070617626+1.59565503946873e-05*-0.07727529646676+${fz}*${new_z}
variable           dot      equal     -1.45684548897522e-05*-0.106240070617626+1.59565503946873e-05*-0.07727529646676+-1.02560600515313e-05*${new_z}
variable           dot      equal     -1.45684548897522e-05*-0.106240070617626+1.59565503946873e-05*-0.07727529646676+-1.02560600515313e-05*0.0177921632524995
print              "The dot product: ${dot}"
The dot product: 1.32229019176432e-07

if "(${dot} >= 0.0) && (${dot} < 1.0e-10)" then "jump TaR.in relaxation" elif "(${dot} < 0.0) && (${dot} > -1.0e-10)" "jump TaR.in relaxation" elif "(${iteration} == ${iter_tot}) && (${seed} < 319)" "print 'The iteration number is maximum!'" "next seed" "variable iteration delete" "jump TaR.in loop" elif "(${iteration} == ${iter_tot}) && (${seed} == 319)" "quit" else    "next iteration"    "jump TaR.in iteration"
next iteration
jump TaR.in iteration
variable           norm          equal     sqrt(${new_x}^2+${new_y}^2+${new_z}^2)
variable           norm          equal     sqrt(-0.106240070617626^2+${new_y}^2+${new_z}^2)
variable           norm          equal     sqrt(-0.106240070617626^2+-0.07727529646676^2+${new_z}^2)
variable           norm          equal     sqrt(-0.106240070617626^2+-0.07727529646676^2+0.0177921632524995^2)
variable           unit_x        equal     ${new_x}/${norm}
variable           unit_x        equal     -0.106240070617626/${norm}
variable           unit_x        equal     -0.106240070617626/0.132570679722431
variable           unit_y        equal     ${new_y}/${norm}
variable           unit_y        equal     -0.07727529646676/${norm}
variable           unit_y        equal     -0.07727529646676/0.132570679722431
variable           unit_z        equal     ${new_z}/${norm}
variable           unit_z        equal     0.0177921632524995/${norm}
variable           unit_z        equal     0.0177921632524995/0.132570679722431
variable           x_new         equal     ${x0}+${delta}*${unit_x}
variable           x_new         equal     0.488226698145133+${delta}*${unit_x}
variable           x_new         equal     0.488226698145133+0.02*${unit_x}
variable           x_new         equal     0.488226698145133+0.02*-0.801384369757064
variable           y_new         equal     ${y0}+${delta}*${unit_y}
variable           y_new         equal     -1.09338863795593+${delta}*${unit_y}
variable           y_new         equal     -1.09338863795593+0.02*${unit_y}
variable           y_new         equal     -1.09338863795593+0.02*-0.582898847833885
variable           z_new         equal     ${z0}+${delta}*${unit_z}
variable           z_new         equal     11.7962566754455+${delta}*${unit_z}
variable           z_new         equal     11.7962566754455+0.02*${unit_z}
variable           z_new         equal     11.7962566754455+0.02*0.134208886080631

set                atom          $i    x  ${x_new}  y  ${y_new}  z   ${z_new}
set                atom          288751    x  ${x_new}  y  ${y_new}  z   ${z_new}
set                atom          288751    x  0.472199010749992  y  ${y_new}  z   ${z_new}
set                atom          288751    x  0.472199010749992  y  -1.10504661491261  z   ${z_new}
set                atom          288751    x  0.472199010749992  y  -1.10504661491261  z   11.7989408531671
Setting atom values ...
  1 settings made for x
  1 settings made for y
  1 settings made for z

fix                hold    carbon   planeforce   ${new_x}  ${new_y}  ${new_z}
fix                hold    carbon   planeforce   -0.106240070617626  ${new_y}  ${new_z}
fix                hold    carbon   planeforce   -0.106240070617626  -0.07727529646676  ${new_z}
fix                hold    carbon   planeforce   -0.106240070617626  -0.07727529646676  0.0177921632524995
min_style          cg
minimize           1.0e-30 1.0e-30 10000 10000
Per MPI rank memory allocation (min/avg/max) = 5.441 | 5.816 | 6.074 Mbytes
Step PotEng KinEng TotEng v_fx v_fy v_fz 
    1222   -1152449.4            0   -1152449.4 -0.026550531  0.038315318 0.0078740969 
    1375   -1152449.4            0   -1152449.4 2.6240747e-05 -2.6566426e-05 4.130416e-05 
Loop time of 1.79156 on 104 procs for 153 steps with 288751 atoms

99.9% CPU use with 104 MPI tasks x 1 OpenMP threads

Minimization stats:
  Stopping criterion = energy tolerance
  Energy initial, next-to-last, final = 
     -1152449.40356306   -1152449.4048793   -1152449.4048793
  Force two-norm initial, final = 0.15576675 0.00023614794
  Force max component initial, final = 0.10971569 6.2369435e-05
  Final line search alpha, max atom move = 1.0000000 6.2369435e-05
  Iterations, force evaluations = 153 306

MPI task timing breakdown:
Section |  min time  |  avg time  |  max time  |%varavg| %total
---------------------------------------------------------------
Pair    | 0.45763    | 1.2841     | 1.6753     |  30.7 | 71.68
Neigh   | 0          | 0          | 0          |   0.0 |  0.00
Comm    | 0.027626   | 0.29158    | 0.8748     |  44.7 | 16.28
Output  | 0          | 0          | 0          |   0.0 |  0.00
Modify  | 1.8657e-05 | 0.002528   | 0.0053782  |   2.4 |  0.14
Other   |            | 0.2133     |            |       | 11.91

Nlocal:        2776.45 ave        3958 max           0 min
Histogram: 8 4 4 0 4 12 8 2 28 34
Nghost:        3879.05 ave        5424 max         232 min
Histogram: 8 0 8 0 16 0 8 8 16 40
Neighs:        79213.4 ave      115369 max           0 min
Histogram: 8 4 4 0 10 6 8 8 24 32

Total # of neighbors = 8238192
Ave neighs/atom = 28.530436
Neighbor list builds = 0
Dangerous builds = 0
unfix              hold

variable           new_x         delete
variable           new_y         delete
variable           new_z         delete
variable           dot           delete
variable           new_x         equal     ${x0}-${x_0}
variable           new_x         equal     0.466936476633418-${x_0}
variable           new_x         equal     0.466936476633418-0.594466768762759
variable           new_y         equal     ${y0}-${y_0}
variable           new_y         equal     -1.09737113211285-${y_0}
variable           new_y         equal     -1.09737113211285--1.01611334148917
variable           new_z         equal     ${z0}-${z_0}
variable           new_z         equal     11.8008536735604-${z_0}
variable           new_z         equal     11.8008536735604-11.778464512193

variable           dot      equal     ${fx}*${new_x}+${fy}*${new_y}+${fz}*${new_z}
variable           dot      equal     2.62407467118298e-05*${new_x}+${fy}*${new_y}+${fz}*${new_z}
variable           dot      equal     2.62407467118298e-05*-0.127530292129341+${fy}*${new_y}+${fz}*${new_z}
variable           dot      equal     2.62407467118298e-05*-0.127530292129341+-2.65664256680862e-05*${new_y}+${fz}*${new_z}
variable           dot      equal     2.62407467118298e-05*-0.127530292129341+-2.65664256680862e-05*-0.08125779062368+${fz}*${new_z}
variable           dot      equal     2.62407467118298e-05*-0.127530292129341+-2.65664256680862e-05*-0.08125779062368+4.1304160362637e-05*${new_z}
variable           dot      equal     2.62407467118298e-05*-0.127530292129341+-2.65664256680862e-05*-0.08125779062368+4.1304160362637e-05*0.0223891613673999
print              "The dot product: ${dot}"
The dot product: -2.62995527790749e-07

if "(${dot} >= 0.0) && (${dot} < 1.0e-10)" then "jump TaR.in relaxation" elif "(${dot} < 0.0) && (${dot} > -1.0e-10)" "jump TaR.in relaxation" elif "(${iteration} == ${iter_tot}) && (${seed} < 319)" "print 'The iteration number is maximum!'" "next seed" "variable iteration delete" "jump TaR.in loop" elif "(${iteration} == ${iter_tot}) && (${seed} == 319)" "quit" else    "next iteration"    "jump TaR.in iteration"
next iteration
jump TaR.in iteration
variable           norm          equal     sqrt(${new_x}^2+${new_y}^2+${new_z}^2)
variable           norm          equal     sqrt(-0.127530292129341^2+${new_y}^2+${new_z}^2)
variable           norm          equal     sqrt(-0.127530292129341^2+-0.08125779062368^2+${new_z}^2)
variable           norm          equal     sqrt(-0.127530292129341^2+-0.08125779062368^2+0.0223891613673999^2)
variable           unit_x        equal     ${new_x}/${norm}
variable           unit_x        equal     -0.127530292129341/${norm}
variable           unit_x        equal     -0.127530292129341/0.152866211094448
variable           unit_y        equal     ${new_y}/${norm}
variable           unit_y        equal     -0.08125779062368/${norm}
variable           unit_y        equal     -0.08125779062368/0.152866211094448
variable           unit_z        equal     ${new_z}/${norm}
variable           unit_z        equal     0.0223891613673999/${norm}
variable           unit_z        equal     0.0223891613673999/0.152866211094448
variable           x_new         equal     ${x0}+${delta}*${unit_x}
variable           x_new         equal     0.466936476633418+${delta}*${unit_x}
variable           x_new         equal     0.466936476633418+0.02*${unit_x}
variable           x_new         equal     0.466936476633418+0.02*-0.834260829887036
variable           y_new         equal     ${y0}+${delta}*${unit_y}
variable           y_new         equal     -1.09737113211285+${delta}*${unit_y}
variable           y_new         equal     -1.09737113211285+0.02*${unit_y}
variable           y_new         equal     -1.09737113211285+0.02*-0.531561487930613
variable           z_new         equal     ${z0}+${delta}*${unit_z}
variable           z_new         equal     11.8008536735604+${delta}*${unit_z}
variable           z_new         equal     11.8008536735604+0.02*${unit_z}
variable           z_new         equal     11.8008536735604+0.02*0.146462460259232

set                atom          $i    x  ${x_new}  y  ${y_new}  z   ${z_new}
set                atom          288751    x  ${x_new}  y  ${y_new}  z   ${z_new}
set                atom          288751    x  0.450251260035677  y  ${y_new}  z   ${z_new}
set                atom          288751    x  0.450251260035677  y  -1.10800236187146  z   ${z_new}
set                atom          288751    x  0.450251260035677  y  -1.10800236187146  z   11.8037829227656
Setting atom values ...
  1 settings made for x
  1 settings made for y
  1 settings made for z

fix                hold    carbon   planeforce   ${new_x}  ${new_y}  ${new_z}
fix                hold    carbon   planeforce   -0.127530292129341  ${new_y}  ${new_z}
fix                hold    carbon   planeforce   -0.127530292129341  -0.08125779062368  ${new_z}
fix                hold    carbon   planeforce   -0.127530292129341  -0.08125779062368  0.0223891613673999
min_style          cg
minimize           1.0e-30 1.0e-30 10000 10000
Per MPI rank memory allocation (min/avg/max) = 5.441 | 5.816 | 6.074 Mbytes
Step PotEng KinEng TotEng v_fx v_fy v_fz 
    1375   -1152449.4            0   -1152449.4 -0.025276241  0.042049704 0.0086371978 
    1518   -1152449.4            0   -1152449.4 2.1837224e-05 -1.8647095e-05 5.6709844e-05 
Loop time of 1.67324 on 104 procs for 143 steps with 288751 atoms

99.9% CPU use with 104 MPI tasks x 1 OpenMP threads

Minimization stats:
  Stopping criterion = energy tolerance
  Energy initial, next-to-last, final = 
     -1152449.39171521  -1152449.39306905  -1152449.39306905
  Force two-norm initial, final = 0.15661554 0.00021971323
  Force max component initial, final = 0.11183691 5.6709844e-05
  Final line search alpha, max atom move = 1.0000000 5.6709844e-05
  Iterations, force evaluations = 143 286

MPI task timing breakdown:
Section |  min time  |  avg time  |  max time  |%varavg| %total
---------------------------------------------------------------
Pair    | 0.42882    | 1.2069     | 1.5706     |  29.7 | 72.13
Neigh   | 0          | 0          | 0          |   0.0 |  0.00
Comm    | 0.027125   | 0.27248    | 0.80911    |  43.5 | 16.28
Output  | 0          | 0          | 0          |   0.0 |  0.00
Modify  | 1.7333e-05 | 0.0023654  | 0.0050172  |   2.3 |  0.14
Other   |            | 0.1915     |            |       | 11.44

Nlocal:        2776.45 ave        3958 max           0 min
Histogram: 8 4 4 0 4 12 8 2 28 34
Nghost:        3879.05 ave        5424 max         232 min
Histogram: 8 0 8 0 16 0 8 8 16 40
Neighs:        79213.4 ave      115369 max           0 min
Histogram: 8 4 4 0 10 6 8 8 24 32

Total # of neighbors = 8238191
Ave neighs/atom = 28.530433
Neighbor list builds = 0
Dangerous builds = 0
unfix              hold

variable           new_x         delete
variable           new_y         delete
variable           new_z         delete
variable           dot           delete
variable           new_x         equal     ${x0}-${x_0}
variable           new_x         equal     0.444831998775119-${x_0}
variable           new_x         equal     0.444831998775119-0.594466768762759
variable           new_y         equal     ${y0}-${y_0}
variable           new_y         equal     -1.09903710972138-${y_0}
variable           new_y         equal     -1.09903710972138--1.01611334148917
variable           new_z         equal     ${z0}-${z_0}
variable           new_z         equal     11.8054523292162-${z_0}
variable           new_z         equal     11.8054523292162-11.778464512193

variable           dot      equal     ${fx}*${new_x}+${fy}*${new_y}+${fz}*${new_z}
variable           dot      equal     2.18372243889927e-05*${new_x}+${fy}*${new_y}+${fz}*${new_z}
variable           dot      equal     2.18372243889927e-05*-0.14963476998764+${fy}*${new_y}+${fz}*${new_z}
variable           dot      equal     2.18372243889927e-05*-0.14963476998764+-1.86470953035512e-05*${new_y}+${fz}*${new_z}
variable           dot      equal     2.18372243889927e-05*-0.14963476998764+-1.86470953035512e-05*-0.0829237682322099+${fz}*${new_z}
variable           dot      equal     2.18372243889927e-05*-0.14963476998764+-1.86470953035512e-05*-0.0829237682322099+5.67098436092201e-05*${new_z}
variable           dot      equal     2.18372243889927e-05*-0.14963476998764+-1.86470953035512e-05*-0.0829237682322099+5.67098436092201e-05*0.0269878170231994
print              "The dot product: ${dot}"
The dot product: -1.9084575671991e-07

if "(${dot} >= 0.0) && (${dot} < 1.0e-10)" then "jump TaR.in relaxation" elif "(${dot} < 0.0) && (${dot} > -1.0e-10)" "jump TaR.in relaxation" elif "(${iteration} == ${iter_tot}) && (${seed} < 319)" "print 'The iteration number is maximum!'" "next seed" "variable iteration delete" "jump TaR.in loop" elif "(${iteration} == ${iter_tot}) && (${seed} == 319)" "quit" else    "next iteration"    "jump TaR.in iteration"
next iteration
jump TaR.in iteration
variable           norm          equal     sqrt(${new_x}^2+${new_y}^2+${new_z}^2)
variable           norm          equal     sqrt(-0.14963476998764^2+${new_y}^2+${new_z}^2)
variable           norm          equal     sqrt(-0.14963476998764^2+-0.0829237682322099^2+${new_z}^2)
variable           norm          equal     sqrt(-0.14963476998764^2+-0.0829237682322099^2+0.0269878170231994^2)
variable           unit_x        equal     ${new_x}/${norm}
variable           unit_x        equal     -0.14963476998764/${norm}
variable           unit_x        equal     -0.14963476998764/0.173191391225895
variable           unit_y        equal     ${new_y}/${norm}
variable           unit_y        equal     -0.0829237682322099/${norm}
variable           unit_y        equal     -0.0829237682322099/0.173191391225895
variable           unit_z        equal     ${new_z}/${norm}
variable           unit_z        equal     0.0269878170231994/${norm}
variable           unit_z        equal     0.0269878170231994/0.173191391225895
variable           x_new         equal     ${x0}+${delta}*${unit_x}
variable           x_new         equal     0.444831998775119+${delta}*${unit_x}
variable           x_new         equal     0.444831998775119+0.02*${unit_x}
variable           x_new         equal     0.444831998775119+0.02*-0.863985033716082
variable           y_new         equal     ${y0}+${delta}*${unit_y}
variable           y_new         equal     -1.09903710972138+${delta}*${unit_y}
variable           y_new         equal     -1.09903710972138+0.02*${unit_y}
variable           y_new         equal     -1.09903710972138+0.02*-0.478798441684966
variable           z_new         equal     ${z0}+${delta}*${unit_z}
variable           z_new         equal     11.8054523292162+${delta}*${unit_z}
variable           z_new         equal     11.8054523292162+0.02*${unit_z}
variable           z_new         equal     11.8054523292162+0.02*0.155826550223844

set                atom          $i    x  ${x_new}  y  ${y_new}  z   ${z_new}
set                atom          288751    x  ${x_new}  y  ${y_new}  z   ${z_new}
set                atom          288751    x  0.427552298100797  y  ${y_new}  z   ${z_new}
set                atom          288751    x  0.427552298100797  y  -1.10861307855508  z   ${z_new}
set                atom          288751    x  0.427552298100797  y  -1.10861307855508  z   11.8085688602207
Setting atom values ...
  1 settings made for x
  1 settings made for y
  1 settings made for z

fix                hold    carbon   planeforce   ${new_x}  ${new_y}  ${new_z}
fix                hold    carbon   planeforce   -0.14963476998764  ${new_y}  ${new_z}
fix                hold    carbon   planeforce   -0.14963476998764  -0.0829237682322099  ${new_z}
fix                hold    carbon   planeforce   -0.14963476998764  -0.0829237682322099  0.0269878170231994
min_style          cg
minimize           1.0e-30 1.0e-30 10000 10000
Per MPI rank memory allocation (min/avg/max) = 5.441 | 5.816 | 6.074 Mbytes
Step PotEng KinEng TotEng v_fx v_fy v_fz 
    1518   -1152449.4            0   -1152449.4 -0.021750063  0.041920233 0.0082117773 
    1694   -1152449.4            0   -1152449.4 -8.7404778e-06 5.9693844e-06 -3.0120092e-05 
Loop time of 2.07199 on 104 procs for 176 steps with 288751 atoms

99.9% CPU use with 104 MPI tasks x 1 OpenMP threads

Minimization stats:
  Stopping criterion = energy tolerance
  Energy initial, next-to-last, final = 
     -1152449.37865996  -1152449.38001091  -1152449.38001091
  Force two-norm initial, final = 0.15665249 0.00012836596
  Force max component initial, final = 0.11337621 3.0389332e-05
  Final line search alpha, max atom move = 1.0000000 3.0389332e-05
  Iterations, force evaluations = 176 352

MPI task timing breakdown:
Section |  min time  |  avg time  |  max time  |%varavg| %total
---------------------------------------------------------------
Pair    | 0.52926    | 1.4816     | 1.9366     |  33.0 | 71.51
Neigh   | 0          | 0          | 0          |   0.0 |  0.00
Comm    | 0.032179   | 0.33924    | 1.0074     |  48.0 | 16.37
Output  | 0          | 0          | 0          |   0.0 |  0.00
Modify  | 2.1535e-05 | 0.0029157  | 0.0061681  |   2.5 |  0.14
Other   |            | 0.2483     |            |       | 11.98

Nlocal:        2776.45 ave        3958 max           0 min
Histogram: 8 4 4 0 4 12 8 2 28 34
Nghost:        3879.12 ave        5424 max         232 min
Histogram: 8 0 8 0 16 0 8 8 16 40
Neighs:        79213.4 ave      115369 max           0 min
Histogram: 8 4 4 0 10 6 8 8 24 32

Total # of neighbors = 8238192
Ave neighs/atom = 28.530436
Neighbor list builds = 0
Dangerous builds = 0
unfix              hold

variable           new_x         delete
variable           new_y         delete
variable           new_z         delete
variable           dot           delete
variable           new_x         equal     ${x0}-${x_0}
variable           new_x         equal     0.422598351807577-${x_0}
variable           new_x         equal     0.422598351807577-0.594466768762759
variable           new_y         equal     ${y0}-${y_0}
variable           new_y         equal     -1.09922895505948-${y_0}
variable           new_y         equal     -1.09922895505948--1.01611334148917
variable           new_z         equal     ${z0}-${z_0}
variable           new_z         equal     11.8099355608938-${z_0}
variable           new_z         equal     11.8099355608938-11.778464512193

variable           dot      equal     ${fx}*${new_x}+${fy}*${new_y}+${fz}*${new_z}
variable           dot      equal     -8.74047778958451e-06*${new_x}+${fy}*${new_y}+${fz}*${new_z}
variable           dot      equal     -8.74047778958451e-06*-0.171868416955182+${fy}*${new_y}+${fz}*${new_z}
variable           dot      equal     -8.74047778958451e-06*-0.171868416955182+5.96938440114841e-06*${new_y}+${fz}*${new_z}
variable           dot      equal     -8.74047778958451e-06*-0.171868416955182+5.96938440114841e-06*-0.0831156135703099+${fz}*${new_z}
variable           dot      equal     -8.74047778958451e-06*-0.171868416955182+5.96938440114841e-06*-0.0831156135703099+-3.01200921278877e-05*${new_z}
variable           dot      equal     -8.74047778958451e-06*-0.171868416955182+5.96938440114841e-06*-0.0831156135703099+-3.01200921278877e-05*0.0314710487007996
print              "The dot product: ${dot}"
The dot product: 5.81521477600068e-08

if "(${dot} >= 0.0) && (${dot} < 1.0e-10)" then "jump TaR.in relaxation" elif "(${dot} < 0.0) && (${dot} > -1.0e-10)" "jump TaR.in relaxation" elif "(${iteration} == ${iter_tot}) && (${seed} < 319)" "print 'The iteration number is maximum!'" "next seed" "variable iteration delete" "jump TaR.in loop" elif "(${iteration} == ${iter_tot}) && (${seed} == 319)" "quit" else    "next iteration"    "jump TaR.in iteration"
next iteration
jump TaR.in iteration
variable           norm          equal     sqrt(${new_x}^2+${new_y}^2+${new_z}^2)
variable           norm          equal     sqrt(-0.171868416955182^2+${new_y}^2+${new_z}^2)
variable           norm          equal     sqrt(-0.171868416955182^2+-0.0831156135703099^2+${new_z}^2)
variable           norm          equal     sqrt(-0.171868416955182^2+-0.0831156135703099^2+0.0314710487007996^2)
variable           unit_x        equal     ${new_x}/${norm}
variable           unit_x        equal     -0.171868416955182/${norm}
variable           unit_x        equal     -0.171868416955182/0.19348742820188
variable           unit_y        equal     ${new_y}/${norm}
variable           unit_y        equal     -0.0831156135703099/${norm}
variable           unit_y        equal     -0.0831156135703099/0.19348742820188
variable           unit_z        equal     ${new_z}/${norm}
variable           unit_z        equal     0.0314710487007996/${norm}
variable           unit_z        equal     0.0314710487007996/0.19348742820188
variable           x_new         equal     ${x0}+${delta}*${unit_x}
variable           x_new         equal     0.422598351807577+${delta}*${unit_x}
variable           x_new         equal     0.422598351807577+0.02*${unit_x}
variable           x_new         equal     0.422598351807577+0.02*-0.888266584306753
variable           y_new         equal     ${y0}+${delta}*${unit_y}
variable           y_new         equal     -1.09922895505948+${delta}*${unit_y}
variable           y_new         equal     -1.09922895505948+0.02*${unit_y}
variable           y_new         equal     -1.09922895505948+0.02*-0.429565963756514
variable           z_new         equal     ${z0}+${delta}*${unit_z}
variable           z_new         equal     11.8099355608938+${delta}*${unit_z}
variable           z_new         equal     11.8099355608938+0.02*${unit_z}
variable           z_new         equal     11.8099355608938+0.02*0.162651646121233

set                atom          $i    x  ${x_new}  y  ${y_new}  z   ${z_new}
set                atom          288751    x  ${x_new}  y  ${y_new}  z   ${z_new}
set                atom          288751    x  0.404833020121442  y  ${y_new}  z   ${z_new}
set                atom          288751    x  0.404833020121442  y  -1.10782027433461  z   ${z_new}
set                atom          288751    x  0.404833020121442  y  -1.10782027433461  z   11.8131885938162
Setting atom values ...
  1 settings made for x
  1 settings made for y
  1 settings made for z

fix                hold    carbon   planeforce   ${new_x}  ${new_y}  ${new_z}
fix                hold    carbon   planeforce   -0.171868416955182  ${new_y}  ${new_z}
fix                hold    carbon   planeforce   -0.171868416955182  -0.0831156135703099  ${new_z}
fix                hold    carbon   planeforce   -0.171868416955182  -0.0831156135703099  0.0314710487007996
min_style          cg
minimize           1.0e-30 1.0e-30 10000 10000
Per MPI rank memory allocation (min/avg/max) = 5.441 | 5.816 | 6.074 Mbytes
Step PotEng KinEng TotEng v_fx v_fy v_fz 
    1694   -1152449.4            0   -1152449.4 -0.017356586  0.038758938 0.0075759772 
    1873   -1152449.4            0   -1152449.4 1.1746437e-05 -2.4136392e-05 4.0451286e-07 
Loop time of 2.09651 on 104 procs for 179 steps with 288751 atoms

99.9% CPU use with 104 MPI tasks x 1 OpenMP threads

Minimization stats:
  Stopping criterion = energy tolerance
  Energy initial, next-to-last, final = 
     -1152449.36432047  -1152449.36564201  -1152449.36564201
  Force two-norm initial, final = 0.1562913 0.00010172021
  Force max component initial, final = 0.11432688 2.4136392e-05
  Final line search alpha, max atom move = 1.0000000 2.4136392e-05
  Iterations, force evaluations = 179 358

MPI task timing breakdown:
Section |  min time  |  avg time  |  max time  |%varavg| %total
---------------------------------------------------------------
Pair    | 0.53611    | 1.509      | 1.9726     |  33.2 | 71.98
Neigh   | 0          | 0          | 0          |   0.0 |  0.00
Comm    | 0.032373   | 0.34378    | 1.0313     |  48.5 | 16.40
Output  | 0          | 0          | 0          |   0.0 |  0.00
Modify  | 2.1855e-05 | 0.0029517  | 0.0062938  |   2.6 |  0.14
Other   |            | 0.2408     |            |       | 11.49

Nlocal:        2776.45 ave        3958 max           0 min
Histogram: 8 4 4 0 4 12 8 2 28 34
Nghost:        3879.12 ave        5424 max         232 min
Histogram: 8 0 8 0 16 0 8 8 16 40
Neighs:        79213.4 ave      115369 max           0 min
Histogram: 8 4 4 0 10 6 8 8 24 32

Total # of neighbors = 8238193
Ave neighs/atom = 28.530440
Neighbor list builds = 0
Dangerous builds = 0
unfix              hold

variable           new_x         delete
variable           new_y         delete
variable           new_z         delete
variable           dot           delete
variable           new_x         equal     ${x0}-${x_0}
variable           new_x         equal     0.40064281034211-${x_0}
variable           new_x         equal     0.40064281034211-0.594466768762759
variable           new_y         equal     ${y0}-${y_0}
variable           new_y         equal     -1.09876810238455-${y_0}
variable           new_y         equal     -1.09876810238455--1.01611334148917
variable           new_z         equal     ${z0}-${z_0}
variable           new_z         equal     11.8142121410323-${z_0}
variable           new_z         equal     11.8142121410323-11.778464512193

variable           dot      equal     ${fx}*${new_x}+${fy}*${new_y}+${fz}*${new_z}
variable           dot      equal     1.1746436838817e-05*${new_x}+${fy}*${new_y}+${fz}*${new_z}
variable           dot      equal     1.1746436838817e-05*-0.193823958420649+${fy}*${new_y}+${fz}*${new_z}
variable           dot      equal     1.1746436838817e-05*-0.193823958420649+-2.4136392360463e-05*${new_y}+${fz}*${new_z}
variable           dot      equal     1.1746436838817e-05*-0.193823958420649+-2.4136392360463e-05*-0.0826547608953798+${fz}*${new_z}
variable           dot      equal     1.1746436838817e-05*-0.193823958420649+-2.4136392360463e-05*-0.0826547608953798+4.04512860516113e-07*${new_z}
variable           dot      equal     1.1746436838817e-05*-0.193823958420649+-2.4136392360463e-05*-0.0826547608953798+4.04512860516113e-07*0.0357476288392995
print              "The dot product: ${dot}"
The dot product: -2.67292770408052e-07

if "(${dot} >= 0.0) && (${dot} < 1.0e-10)" then "jump TaR.in relaxation" elif "(${dot} < 0.0) && (${dot} > -1.0e-10)" "jump TaR.in relaxation" elif "(${iteration} == ${iter_tot}) && (${seed} < 319)" "print 'The iteration number is maximum!'" "next seed" "variable iteration delete" "jump TaR.in loop" elif "(${iteration} == ${iter_tot}) && (${seed} == 319)" "quit" else    "next iteration"    "jump TaR.in iteration"
next iteration
jump TaR.in iteration
variable           norm          equal     sqrt(${new_x}^2+${new_y}^2+${new_z}^2)
variable           norm          equal     sqrt(-0.193823958420649^2+${new_y}^2+${new_z}^2)
variable           norm          equal     sqrt(-0.193823958420649^2+-0.0826547608953798^2+${new_z}^2)
variable           norm          equal     sqrt(-0.193823958420649^2+-0.0826547608953798^2+0.0357476288392995^2)
variable           unit_x        equal     ${new_x}/${norm}
variable           unit_x        equal     -0.193823958420649/${norm}
variable           unit_x        equal     -0.193823958420649/0.213722786160377
variable           unit_y        equal     ${new_y}/${norm}
variable           unit_y        equal     -0.0826547608953798/${norm}
[...]
fix                hold    carbon   planeforce   -1.53992327716433  ${new_y}  ${new_z}
fix                hold    carbon   planeforce   -1.53992327716433  0.163540141727769  ${new_z}
fix                hold    carbon   planeforce   -1.53992327716433  0.163540141727769  1.4091512001303
min_style          cg
minimize           1.0e-30 1.0e-30 10000 10000
Per MPI rank memory allocation (min/avg/max) = 5.441 | 5.816 | 6.074 Mbytes
Step PotEng KinEng TotEng v_fx v_fy v_fz 
   18619   -1152449.3            0   -1152449.3 -0.017013014  0.037728931 -0.022970517 
   18780   -1152449.3            0   -1152449.3 -3.019389e-05 -1.0223448e-05 -3.1809453e-05 
Loop time of 1.89309 on 104 procs for 161 steps with 288751 atoms

99.9% CPU use with 104 MPI tasks x 1 OpenMP threads

Minimization stats:
  Stopping criterion = energy tolerance
  Energy initial, next-to-last, final = 
     -1152449.32370188  -1152449.32471713  -1152449.32471713
  Force two-norm initial, final = 0.13908485 0.00024926155
  Force max component initial, final = 0.058938244 5.9483249e-05
  Final line search alpha, max atom move = 1.0000000 5.9483249e-05
  Iterations, force evaluations = 161 322

MPI task timing breakdown:
Section |  min time  |  avg time  |  max time  |%varavg| %total
---------------------------------------------------------------
Pair    | 0.48177    | 1.3514     | 1.7815     |  31.7 | 71.39
Neigh   | 0          | 0          | 0          |   0.0 |  0.00
Comm    | 0.029708   | 0.30898    | 0.91186    |  45.6 | 16.32
Output  | 0          | 0          | 0          |   0.0 |  0.00
Modify  | 2.0382e-05 | 0.002662   | 0.0056385  |   2.4 |  0.14
Other   |            | 0.23       |            |       | 12.15

Nlocal:        2776.45 ave        3961 max           0 min
Histogram: 8 4 4 0 6 10 8 4 26 34
Nghost:        3879.14 ave        5425 max         232 min
Histogram: 8 0 8 0 16 0 8 8 16 40
Neighs:        79213.4 ave      115383 max           0 min
Histogram: 8 4 4 0 10 6 8 8 24 32

Total # of neighbors = 8238192
Ave neighs/atom = 28.530436
Neighbor list builds = 0
Dangerous builds = 0
unfix              hold

variable           new_x         delete
variable           new_y         delete
variable           new_z         delete
variable           dot           delete
variable           new_x         equal     ${x0}-${x_0}
variable           new_x         equal     -0.960887184826306-${x_0}
variable           new_x         equal     -0.960887184826306-0.594466768762759
variable           new_y         equal     ${y0}-${y_0}
variable           new_y         equal     -0.848549841728856-${y_0}
variable           new_y         equal     -0.848549841728856--1.01611334148917
variable           new_z         equal     ${z0}-${z_0}
variable           new_z         equal     13.2000026663805-${z_0}
variable           new_z         equal     13.2000026663805-11.778464512193

variable           dot      equal     ${fx}*${new_x}+${fy}*${new_y}+${fz}*${new_z}
variable           dot      equal     -3.01938895119357e-05*${new_x}+${fy}*${new_y}+${fz}*${new_z}
variable           dot      equal     -3.01938895119357e-05*-1.55535395358906+${fy}*${new_y}+${fz}*${new_z}
variable           dot      equal     -3.01938895119357e-05*-1.55535395358906+-1.02234478266109e-05*${new_y}+${fz}*${new_z}
variable           dot      equal     -3.01938895119357e-05*-1.55535395358906+-1.02234478266109e-05*0.167563499760314+${fz}*${new_z}
variable           dot      equal     -3.01938895119357e-05*-1.55535395358906+-1.02234478266109e-05*0.167563499760314+-3.18094532204374e-05*${new_z}
variable           dot      equal     -3.01938895119357e-05*-1.55535395358906+-1.02234478266109e-05*0.167563499760314+-3.18094532204374e-05*1.4215381541875
print              "The dot product: ${dot}"
The dot product: 3.07573124823352e-08

if "(${dot} >= 0.0) && (${dot} < 1.0e-10)" then "jump TaR.in relaxation" elif "(${dot} < 0.0) && (${dot} > -1.0e-10)" "jump TaR.in relaxation" elif "(${iteration} == ${iter_tot}) && (${seed} < 319)" "print 'The iteration number is maximum!'" "next seed" "variable iteration delete" "jump TaR.in loop" elif "(${iteration} == ${iter_tot}) && (${seed} == 319)" "quit" else    "next iteration"    "jump TaR.in iteration"
next iteration
jump TaR.in iteration
variable           norm          equal     sqrt(${new_x}^2+${new_y}^2+${new_z}^2)
variable           norm          equal     sqrt(-1.55535395358906^2+${new_y}^2+${new_z}^2)
variable           norm          equal     sqrt(-1.55535395358906^2+0.167563499760314^2+${new_z}^2)
variable           norm          equal     sqrt(-1.55535395358906^2+0.167563499760314^2+1.4215381541875^2)
variable           unit_x        equal     ${new_x}/${norm}
variable           unit_x        equal     -1.55535395358906/${norm}
variable           unit_x        equal     -1.55535395358906/2.11375830482292
variable           unit_y        equal     ${new_y}/${norm}
variable           unit_y        equal     0.167563499760314/${norm}
variable           unit_y        equal     0.167563499760314/2.11375830482292
variable           unit_z        equal     ${new_z}/${norm}
variable           unit_z        equal     1.4215381541875/${norm}
variable           unit_z        equal     1.4215381541875/2.11375830482292
variable           x_new         equal     ${x0}+${delta}*${unit_x}
variable           x_new         equal     -0.960887184826306+${delta}*${unit_x}
variable           x_new         equal     -0.960887184826306+0.02*${unit_x}
variable           x_new         equal     -0.960887184826306+0.02*-0.735823935045099
variable           y_new         equal     ${y0}+${delta}*${unit_y}
variable           y_new         equal     -0.848549841728856+${delta}*${unit_y}
variable           y_new         equal     -0.848549841728856+0.02*${unit_y}
variable           y_new         equal     -0.848549841728856+0.02*0.0792727812721008
variable           z_new         equal     ${z0}+${delta}*${unit_z}
variable           z_new         equal     13.2000026663805+${delta}*${unit_z}
variable           z_new         equal     13.2000026663805+0.02*${unit_z}
variable           z_new         equal     13.2000026663805+0.02*0.672516886601465

set                atom          $i    x  ${x_new}  y  ${y_new}  z   ${z_new}
set                atom          288751    x  ${x_new}  y  ${y_new}  z   ${z_new}
set                atom          288751    x  -0.975603663527208  y  ${y_new}  z   ${z_new}
set                atom          288751    x  -0.975603663527208  y  -0.846964386103414  z   ${z_new}
set                atom          288751    x  -0.975603663527208  y  -0.846964386103414  z   13.2134530041125
Setting atom values ...
  1 settings made for x
  1 settings made for y
  1 settings made for z

fix                hold    carbon   planeforce   ${new_x}  ${new_y}  ${new_z}
fix                hold    carbon   planeforce   -1.55535395358906  ${new_y}  ${new_z}
fix                hold    carbon   planeforce   -1.55535395358906  0.167563499760314  ${new_z}
fix                hold    carbon   planeforce   -1.55535395358906  0.167563499760314  1.4215381541875
min_style          cg
minimize           1.0e-30 1.0e-30 10000 10000
Per MPI rank memory allocation (min/avg/max) = 5.441 | 5.816 | 6.074 Mbytes
Step PotEng KinEng TotEng v_fx v_fy v_fz 
   18780   -1152449.3            0   -1152449.3 -0.016665219  0.036620227 -0.022550592 
   18973   -1152449.3            0   -1152449.3 1.4913523e-05 -1.0432803e-05 1.7547165e-05 
Loop time of 2.28262 on 104 procs for 193 steps with 288751 atoms

99.9% CPU use with 104 MPI tasks x 1 OpenMP threads

Minimization stats:
  Stopping criterion = energy tolerance
  Energy initial, next-to-last, final = 
      -1152449.3157601  -1152449.31676003  -1152449.31676003
  Force two-norm initial, final = 0.13787385 9.1346542e-05
  Force max component initial, final = 0.057145441 1.7547165e-05
  Final line search alpha, max atom move = 1.0000000 1.7547165e-05
  Iterations, force evaluations = 193 386

MPI task timing breakdown:
Section |  min time  |  avg time  |  max time  |%varavg| %total
---------------------------------------------------------------
Pair    | 0.5779     | 1.6219     | 2.1354     |  34.7 | 71.05
Neigh   | 0          | 0          | 0          |   0.0 |  0.00
Comm    | 0.034741   | 0.3793     | 1.1143     |  49.7 | 16.62
Output  | 0          | 0          | 0          |   0.0 |  0.00
Modify  | 2.3921e-05 | 0.0031939  | 0.0068096  |   2.7 |  0.14
Other   |            | 0.2783     |            |       | 12.19

Nlocal:        2776.45 ave        3960 max           0 min
Histogram: 8 4 4 0 4 12 8 4 26 34
Nghost:        3879.18 ave        5426 max         232 min
Histogram: 8 0 8 0 16 0 8 8 16 40
Neighs:        79213.4 ave      115349 max           0 min
Histogram: 8 4 4 0 10 6 8 8 24 32

Total # of neighbors = 8238190
Ave neighs/atom = 28.530429
Neighbor list builds = 0
Dangerous builds = 0
unfix              hold

variable           new_x         delete
variable           new_y         delete
variable           new_z         delete
variable           dot           delete
variable           new_x         equal     ${x0}-${x_0}
variable           new_x         equal     -0.97631311928745-${x_0}
variable           new_x         equal     -0.97631311928745-0.594466768762759
variable           new_y         equal     ${y0}-${y_0}
variable           new_y         equal     -0.844619789974021-${y_0}
variable           new_y         equal     -0.844619789974021--1.01611334148917
variable           new_z         equal     ${z0}-${z_0}
variable           new_z         equal     13.2124003953238-${z_0}
variable           new_z         equal     13.2124003953238-11.778464512193

variable           dot      equal     ${fx}*${new_x}+${fy}*${new_y}+${fz}*${new_z}
variable           dot      equal     1.49135233981383e-05*${new_x}+${fy}*${new_y}+${fz}*${new_z}
variable           dot      equal     1.49135233981383e-05*-1.57077988805021+${fy}*${new_y}+${fz}*${new_z}
variable           dot      equal     1.49135233981383e-05*-1.57077988805021+-1.04328025688845e-05*${new_y}+${fz}*${new_z}
variable           dot      equal     1.49135233981383e-05*-1.57077988805021+-1.04328025688845e-05*0.171493551515149+${fz}*${new_z}
variable           dot      equal     1.49135233981383e-05*-1.57077988805021+-1.04328025688845e-05*0.171493551515149+1.7547164960971e-05*${new_z}
variable           dot      equal     1.49135233981383e-05*-1.57077988805021+-1.04328025688845e-05*0.171493551515149+1.7547164960971e-05*1.4339358831308
print              "The dot product: ${dot}"
The dot product: -5.35114938044556e-08

if "(${dot} >= 0.0) && (${dot} < 1.0e-10)" then "jump TaR.in relaxation" elif "(${dot} < 0.0) && (${dot} > -1.0e-10)" "jump TaR.in relaxation" elif "(${iteration} == ${iter_tot}) && (${seed} < 319)" "print 'The iteration number is maximum!'" "next seed" "variable iteration delete" "jump TaR.in loop" elif "(${iteration} == ${iter_tot}) && (${seed} == 319)" "quit" else    "next iteration"    "jump TaR.in iteration"
next iteration
jump TaR.in iteration
variable           norm          equal     sqrt(${new_x}^2+${new_y}^2+${new_z}^2)
variable           norm          equal     sqrt(-1.57077988805021^2+${new_y}^2+${new_z}^2)
variable           norm          equal     sqrt(-1.57077988805021^2+0.171493551515149^2+${new_z}^2)
variable           norm          equal     sqrt(-1.57077988805021^2+0.171493551515149^2+1.4339358831308^2)
variable           unit_x        equal     ${new_x}/${norm}
variable           unit_x        equal     -1.57077988805021/${norm}
variable           unit_x        equal     -1.57077988805021/2.13375997053193
variable           unit_y        equal     ${new_y}/${norm}
variable           unit_y        equal     0.171493551515149/${norm}
variable           unit_y        equal     0.171493551515149/2.13375997053193
variable           unit_z        equal     ${new_z}/${norm}
variable           unit_z        equal     1.4339358831308/${norm}
variable           unit_z        equal     1.4339358831308/2.13375997053193
variable           x_new         equal     ${x0}+${delta}*${unit_x}
variable           x_new         equal     -0.97631311928745+${delta}*${unit_x}
variable           x_new         equal     -0.97631311928745+0.02*${unit_x}
variable           x_new         equal     -0.97631311928745+0.02*-0.736155851521869
variable           y_new         equal     ${y0}+${delta}*${unit_y}
variable           y_new         equal     -0.844619789974021+${delta}*${unit_y}
variable           y_new         equal     -0.844619789974021+0.02*${unit_y}
variable           y_new         equal     -0.844619789974021+0.02*0.0803715290770953
variable           z_new         equal     ${z0}+${delta}*${unit_z}
variable           z_new         equal     13.2124003953238+${delta}*${unit_z}
variable           z_new         equal     13.2124003953238+0.02*${unit_z}
variable           z_new         equal     13.2124003953238+0.02*0.672023049890345

set                atom          $i    x  ${x_new}  y  ${y_new}  z   ${z_new}
set                atom          288751    x  ${x_new}  y  ${y_new}  z   ${z_new}
set                atom          288751    x  -0.991036236317887  y  ${y_new}  z   ${z_new}
set                atom          288751    x  -0.991036236317887  y  -0.843012359392479  z   ${z_new}
set                atom          288751    x  -0.991036236317887  y  -0.843012359392479  z   13.2258408563216
Setting atom values ...
  1 settings made for x
  1 settings made for y
  1 settings made for z

fix                hold    carbon   planeforce   ${new_x}  ${new_y}  ${new_z}
fix                hold    carbon   planeforce   -1.57077988805021  ${new_y}  ${new_z}
fix                hold    carbon   planeforce   -1.57077988805021  0.171493551515149  ${new_z}
fix                hold    carbon   planeforce   -1.57077988805021  0.171493551515149  1.4339358831308
min_style          cg
minimize           1.0e-30 1.0e-30 10000 10000
Per MPI rank memory allocation (min/avg/max) = 5.441 | 5.816 | 6.074 Mbytes
Step PotEng KinEng TotEng v_fx v_fy v_fz 
   18973   -1152449.3            0   -1152449.3 -0.016576503  0.034855599 -0.022327043 
   19000   -1152449.3            0   -1152449.3 0.00039463218 0.00052748511 0.00036920758 
   19300   -1152449.3            0   -1152449.3 -8.0960883e-08 -4.6382112e-08 -8.3140045e-08 
Loop time of 3.86876 on 104 procs for 327 steps with 288751 atoms

99.9% CPU use with 104 MPI tasks x 1 OpenMP threads

Minimization stats:
  Stopping criterion = energy tolerance
  Energy initial, next-to-last, final = 
     -1152449.30632993  -1152449.30731737  -1152449.30731737
  Force two-norm initial, final = 0.13669696 3.3928110e-07
  Force max component initial, final = 0.05536598 8.3140045e-08
  Final line search alpha, max atom move = 1.0000000 8.3140045e-08
  Iterations, force evaluations = 327 654

MPI task timing breakdown:
Section |  min time  |  avg time  |  max time  |%varavg| %total
---------------------------------------------------------------
Pair    | 0.97445    | 2.7507     | 3.6226     |  45.3 | 71.10
Neigh   | 0          | 0          | 0          |   0.0 |  0.00
Comm    | 0.066754   | 0.63226    | 1.8658     |  64.8 | 16.34
Output  | 0.0001683  | 0.00017555 | 0.00027476 |   0.0 |  0.00
Modify  | 4.0149e-05 | 0.0053885  | 0.011474   |   3.5 |  0.14
Other   |            | 0.4802     |            |       | 12.41

Nlocal:        2776.45 ave        3960 max           0 min
Histogram: 8 4 4 0 4 12 8 4 26 34
Nghost:        3879.16 ave        5427 max         232 min
Histogram: 8 0 8 0 16 0 8 8 16 40
Neighs:        79213.4 ave      115349 max           0 min
Histogram: 8 4 4 0 10 6 8 8 24 32

Total # of neighbors = 8238190
Ave neighs/atom = 28.530429
Neighbor list builds = 0
Dangerous builds = 0
unfix              hold

variable           new_x         delete
variable           new_y         delete
variable           new_z         delete
variable           dot           delete
variable           new_x         equal     ${x0}-${x_0}
variable           new_x         equal     -0.991761250982678-${x_0}
variable           new_x         equal     -0.991761250982678-0.594466768762759
variable           new_y         equal     ${y0}-${y_0}
variable           new_y         equal     -0.84083607405761-${y_0}
variable           new_y         equal     -0.84083607405761--1.01611334148917
variable           new_z         equal     ${z0}-${z_0}
variable           new_z         equal     13.2247863758716-${z_0}
variable           new_z         equal     13.2247863758716-11.778464512193

variable           dot      equal     ${fx}*${new_x}+${fy}*${new_y}+${fz}*${new_z}
variable           dot      equal     -8.09608829961928e-08*${new_x}+${fy}*${new_y}+${fz}*${new_z}
variable           dot      equal     -8.09608829961928e-08*-1.58622801974544+${fy}*${new_y}+${fz}*${new_z}
variable           dot      equal     -8.09608829961928e-08*-1.58622801974544+-4.63821118925456e-08*${new_y}+${fz}*${new_z}
variable           dot      equal     -8.09608829961928e-08*-1.58622801974544+-4.63821118925456e-08*0.17527726743156+${fz}*${new_z}
variable           dot      equal     -8.09608829961928e-08*-1.58622801974544+-4.63821118925456e-08*0.17527726743156+-8.31400449501231e-08*${new_z}
variable           dot      equal     -8.09608829961928e-08*-1.58622801974544+-4.63821118925456e-08*0.17527726743156+-8.31400449501231e-08*1.4463218636786
print              "The dot product: ${dot}"
The dot product: 4.54265230782961e-11

if "(${dot} >= 0.0) && (${dot} < 1.0e-10)" then "jump TaR.in relaxation" elif "(${dot} < 0.0) && (${dot} > -1.0e-10)" "jump TaR.in relaxation" elif "(${iteration} == ${iter_tot}) && (${seed} < 319)" "print 'The iteration number is maximum!'" "next seed" "variable iteration delete" "jump TaR.in loop" elif "(${iteration} == ${iter_tot}) && (${seed} == 319)" "quit" else    "next iteration"    "jump TaR.in iteration"
jump TaR.in relaxation
#full relaxation
min_style          cg
minimize           1.0e-30 1.0e-30 10000 10000
Per MPI rank memory allocation (min/avg/max) = 5.441 | 5.816 | 6.074 Mbytes
Step PotEng KinEng TotEng v_fx v_fy v_fz 
   19300   -1152449.3            0   -1152449.3   0.37521961 -0.040965529  -0.34253119 
   19524   -1152449.3            0   -1152449.3 6.1848907e-06 3.2988186e-05 -2.5501352e-05 
Loop time of 2.63737 on 104 procs for 224 steps with 288751 atoms

99.9% CPU use with 104 MPI tasks x 1 OpenMP threads

Minimization stats:
  Stopping criterion = energy tolerance
  Energy initial, next-to-last, final = 
     -1152449.30731737  -1152449.34271557  -1152449.34271557
  Force two-norm initial, final = 0.50970143 0.0001735776
  Force max component initial, final = 0.37521961 3.2988186e-05
  Final line search alpha, max atom move = 1.0000000 3.2988186e-05
  Iterations, force evaluations = 224 448

MPI task timing breakdown:
Section |  min time  |  avg time  |  max time  |%varavg| %total
---------------------------------------------------------------
Pair    | 0.67592    | 1.8843     | 2.4716     |  37.3 | 71.45
Neigh   | 1.0249e-05 | 0.0029418  | 0.0042742  |   2.2 |  0.11
Comm    | 0.04345    | 0.43392    | 1.2973     |  54.2 | 16.45
Output  | 0          | 0          | 0          |   0.0 |  0.00
Modify  | 2.7091e-05 | 0.0024133  | 0.0061579  |   3.1 |  0.09
Other   |            | 0.3138     |            |       | 11.90

Nlocal:        2776.45 ave        3960 max           0 min
Histogram: 8 4 4 0 4 12 8 4 26 34
Nghost:        3879.16 ave        5426 max         232 min
Histogram: 8 0 8 0 16 0 8 8 16 40
Neighs:        79213.4 ave      115349 max           0 min
Histogram: 8 4 4 0 10 6 8 8 24 32

Total # of neighbors = 8238195
Ave neighs/atom = 28.530447
Neighbor list builds = 1
Dangerous builds = 0
print              "${x0} ${y0} ${z0}" append info.dat screen no

if "${seed} < 319" then "next seed" "variable iteration delete" "jump TaR.in loop" else "quit"
quit
