LAMMPS (29 Oct 2020)
OMP_NUM_THREADS environment is not set. Defaulting to 1 thread. (../comm.cpp:94)
  using 1 OpenMP thread(s) per MPI task
OMP_NUM_THREADS environment is not set. Defaulting to 1 thread. (../comm.cpp:94)
  using 1 OpenMP thread(s) per MPI task
Reading data file ...
  orthogonal box = (-122.39241 -121.13707 -37.090501) to (122.39241 121.13707 37.090501)
  13 by 4 by 2 MPI processor grid
  reading atoms ...
  288751 atoms
  read_data CPU = 0.372 seconds
199981 atoms in group inner
88770 atoms in group outer
1 atoms in group carbon
Neighbor list info ...
  update every 1 steps, delay 0 steps, check yes
  max neighbors/atom: 2000, page size: 100000
  master list distance cutoff = 5.6
  ghost atom cutoff = 5.6
  binsize = 2.8, bins = 88 87 27
  1 neighbor lists, perpetual/occasional/extra = 1 0 0
  (1) pair eam/alloy, perpetual
      attributes: half, newton on
      pair build: half/bin/atomonly/newton
      stencil: half/bin/3d/newton
      bin: standard
Setting up cg style minimization ...
  Unit style    : metal
  Current step  : 0
Per MPI rank memory allocation (min/avg/max) = 5.441 | 5.816 | 6.074 Mbytes
Step v_fx v_fy v_fz PotEng KinEng TotEng 
       0   -26.358471  -0.83124381    7.8022384   -1152441.8            0   -1152441.8 
     250 -1.815766e-05 -1.9498262e-06 1.9153978e-05     -1152449            0     -1152449 
Loop time of 2.93399 on 104 procs for 250 steps with 288751 atoms

99.8% CPU use with 104 MPI tasks x 1 OpenMP threads

Minimization stats:
  Stopping criterion = energy tolerance
  Energy initial, next-to-last, final = 
     -1152441.81605118  -1152448.97218899  -1152448.97218899
  Force two-norm initial, final = 45.108469 0.00010349855
  Force max component initial, final = 34.006003 2.2153810e-05
  Final line search alpha, max atom move = 1.0000000 2.2153810e-05
  Iterations, force evaluations = 250 496

MPI task timing breakdown:
Section |  min time  |  avg time  |  max time  |%varavg| %total
---------------------------------------------------------------
Pair    | 0.80135    | 2.0952     | 2.7026     |  37.8 | 71.41
Neigh   | 9.3925e-05 | 0.026446   | 0.038444   |   6.7 |  0.90
Comm    | 0.053667   | 0.46984    | 1.4053     |  57.4 | 16.01
Output  | 0          | 0          | 0          |   0.0 |  0.00
Modify  | 3.0293e-05 | 0.0026755  | 0.0069059  |   3.2 |  0.09
Other   |            | 0.3399     |            |       | 11.58

Nlocal:        2776.45 ave        3952 max           0 min
Histogram: 8 4 4 0 4 12 8 0 30 34
Nghost:        3879.14 ave        5424 max         232 min
Histogram: 8 0 8 0 16 0 8 8 16 40
Neighs:        79213.6 ave      115128 max           0 min
Histogram: 8 4 4 0 10 6 8 8 24 32

Total # of neighbors = 8238213
Ave neighs/atom = 28.530509
Neighbor list builds = 9
Dangerous builds = 0
Setting atom values ...
  1 settings made for x
  1 settings made for y
  1 settings made for z
Setting up cg style minimization ...
  Unit style    : metal
  Current step  : 250
Per MPI rank memory allocation (min/avg/max) = 5.441 | 5.816 | 6.074 Mbytes
Step PotEng KinEng TotEng v_fx v_fy v_fz 
     250     -1152449            0     -1152449 -0.001662335 0.0028149724  0.005024028 
     403     -1152449            0     -1152449 -2.4769824e-05 -7.887232e-06 3.2232137e-05 
Loop time of 1.82701 on 104 procs for 153 steps with 288751 atoms

99.9% CPU use with 104 MPI tasks x 1 OpenMP threads

Minimization stats:
  Stopping criterion = energy tolerance
  Energy initial, next-to-last, final = 
     -1152448.97154956  -1152448.97202155  -1152448.97202155
  Force two-norm initial, final = 0.087722969 0.00011929202
  Force max component initial, final = 0.04188416 3.8910371e-05
  Final line search alpha, max atom move = 1.0000000 3.8910371e-05
  Iterations, force evaluations = 153 306

MPI task timing breakdown:
Section |  min time  |  avg time  |  max time  |%varavg| %total
---------------------------------------------------------------
Pair    | 0.47038    | 1.2934     | 1.6867     |  30.5 | 70.79
Neigh   | 0          | 0          | 0          |   0.0 |  0.00
Comm    | 0.035541   | 0.29358    | 0.88238    |  45.3 | 16.07
Output  | 0          | 0          | 0          |   0.0 |  0.00
Modify  | 1.8622e-05 | 0.00253    | 0.0054594  |   2.4 |  0.14
Other   |            | 0.2375     |            |       | 13.00

Nlocal:        2776.45 ave        3951 max           0 min
Histogram: 8 4 4 0 4 12 8 0 30 34
Nghost:        3879.24 ave        5424 max         232 min
Histogram: 8 0 8 0 16 0 8 8 16 40
Neighs:        79213.5 ave      115112 max           0 min
Histogram: 8 4 4 0 10 6 8 8 24 32

Total # of neighbors = 8238206
Ave neighs/atom = 28.530485
Neighbor list builds = 0
Dangerous builds = 0
Setting atom values ...
  1 settings made for x
  1 settings made for y
  1 settings made for z
Setting up cg style minimization ...
  Unit style    : metal
  Current step  : 403
Per MPI rank memory allocation (min/avg/max) = 5.441 | 5.816 | 6.074 Mbytes
Step PotEng KinEng TotEng v_fx v_fy v_fz 
     403     -1152449            0     -1152449 0.0056674409  0.019660357 0.0020425003 
     668     -1152449            0     -1152449 -6.588157e-06 -1.3138255e-06 6.1430782e-06 
Loop time of 3.13502 on 104 procs for 265 steps with 288751 atoms

99.8% CPU use with 104 MPI tasks x 1 OpenMP threads

Minimization stats:
  Stopping criterion = energy tolerance
  Energy initial, next-to-last, final = 
     -1152448.96937428  -1152448.97109388  -1152448.97109388
  Force two-norm initial, final = 0.15682966 4.7911609e-05
  Force max component initial, final = 0.089726354 8.3965613e-06
  Final line search alpha, max atom move = 1.0000000 8.3965613e-06
  Iterations, force evaluations = 265 530

MPI task timing breakdown:
Section |  min time  |  avg time  |  max time  |%varavg| %total
---------------------------------------------------------------
Pair    | 0.81295    | 2.2327     | 2.903      |  40.2 | 71.22
Neigh   | 0          | 0          | 0          |   0.0 |  0.00
Comm    | 0.062961   | 0.50699    | 1.512      |  58.7 | 16.17
Output  | 0          | 0          | 0          |   0.0 |  0.00
Modify  | 3.3183e-05 | 0.0043744  | 0.009363   |   3.1 |  0.14
Other   |            | 0.3909     |            |       | 12.47

Nlocal:        2776.45 ave        3951 max           0 min
Histogram: 8 4 4 0 4 12 8 0 30 34
Nghost:        3879.24 ave        5424 max         232 min
Histogram: 8 0 8 0 16 0 8 8 16 40
Neighs:        79213.5 ave      115112 max           0 min
Histogram: 8 4 4 0 10 6 8 8 24 32

Total # of neighbors = 8238203
Ave neighs/atom = 28.530474
Neighbor list builds = 0
Dangerous builds = 0
The dot product: 7.75073168831468e-08
Setting atom values ...
  1 settings made for x
  1 settings made for y
  1 settings made for z
Setting up cg style minimization ...
  Unit style    : metal
  Current step  : 668
Per MPI rank memory allocation (min/avg/max) = 5.441 | 5.816 | 6.074 Mbytes
Step PotEng KinEng TotEng v_fx v_fy v_fz 
     668     -1152449            0     -1152449  0.015806477  0.033563713 -0.0041629163 
     933     -1152449            0     -1152449 -2.1818317e-06 -1.726773e-07 1.1779302e-06 
Loop time of 3.08164 on 104 procs for 265 steps with 288751 atoms

99.9% CPU use with 104 MPI tasks x 1 OpenMP threads

Minimization stats:
  Stopping criterion = energy tolerance
  Energy initial, next-to-last, final = 
     -1152448.96765236  -1152448.96947301  -1152448.96947301
  Force two-norm initial, final = 0.1631874 8.2210553e-06
  Force max component initial, final = 0.096687638 2.2330448e-06
  Final line search alpha, max atom move = 1.0000000 2.2330448e-06
  Iterations, force evaluations = 265 530

MPI task timing breakdown:
Section |  min time  |  avg time  |  max time  |%varavg| %total
---------------------------------------------------------------
Pair    | 0.81522    | 2.2374     | 2.9049     |  40.3 | 72.60
Neigh   | 0          | 0          | 0          |   0.0 |  0.00
Comm    | 0.051253   | 0.50399    | 1.5156     |  59.7 | 16.35
Output  | 0          | 0          | 0          |   0.0 |  0.00
Modify  | 3.3946e-05 | 0.0043734  | 0.0094115  |   3.1 |  0.14
Other   |            | 0.3359     |            |       | 10.90

Nlocal:        2776.45 ave        3952 max           0 min
Histogram: 8 4 4 0 4 12 8 0 30 34
Nghost:        3879.22 ave        5423 max         232 min
Histogram: 8 0 8 0 16 0 8 8 16 40
Neighs:        79213.5 ave      115119 max           0 min
Histogram: 8 4 4 0 10 6 8 8 24 32

Total # of neighbors = 8238201
Ave neighs/atom = 28.530467
Neighbor list builds = 0
Dangerous builds = 0
The dot product: 2.41154921429003e-08
Setting atom values ...
  1 settings made for x
  1 settings made for y
  1 settings made for z
Setting up cg style minimization ...
  Unit style    : metal
  Current step  : 933
Per MPI rank memory allocation (min/avg/max) = 5.441 | 5.816 | 6.074 Mbytes
Step PotEng KinEng TotEng v_fx v_fy v_fz 
     933     -1152449            0     -1152449  0.028789131  0.038029339 -0.0087094472 
    1000     -1152449            0     -1152449 -0.00081562011 -4.0291384e-05 0.00026606238 
    1100     -1152449            0     -1152449 -5.9212881e-05 -5.0980726e-06 1.9275285e-05 
Loop time of 1.93447 on 104 procs for 167 steps with 288751 atoms

99.9% CPU use with 104 MPI tasks x 1 OpenMP threads

Minimization stats:
  Stopping criterion = energy tolerance
  Energy initial, next-to-last, final = 
     -1152448.96521104   -1152448.9675791   -1152448.9675791
  Force two-norm initial, final = 0.17281994 0.00017368255
  Force max component initial, final = 0.095808917 5.9212881e-05
  Final line search alpha, max atom move = 1.0000000 5.9212881e-05
  Iterations, force evaluations = 167 334

MPI task timing breakdown:
Section |  min time  |  avg time  |  max time  |%varavg| %total
---------------------------------------------------------------
Pair    | 0.50947    | 1.3994     | 1.8189     |  31.9 | 72.34
Neigh   | 0          | 0          | 0          |   0.0 |  0.00
Comm    | 0.032318   | 0.31126    | 0.93783    |  47.3 | 16.09
Output  | 0.00010056 | 0.00010887 | 0.00022674 |   0.0 |  0.01
Modify  | 2.0123e-05 | 0.0027515  | 0.0058575  |   2.5 |  0.14
Other   |            | 0.2209     |            |       | 11.42

Nlocal:        2776.45 ave        3952 max           0 min
Histogram: 8 4 4 0 4 12 8 0 30 34
Nghost:        3879.20 ave        5423 max         232 min
Histogram: 8 0 8 0 16 0 8 8 16 40
Neighs:        79213.5 ave      115142 max           0 min
Histogram: 8 4 4 0 10 6 8 8 24 32

Total # of neighbors = 8238206
Ave neighs/atom = 28.530485
Neighbor list builds = 0
Dangerous builds = 0
The dot product: 1.45095619608322e-06
Setting atom values ...
  1 settings made for x
  1 settings made for y
  1 settings made for z
Setting up cg style minimization ...
  Unit style    : metal
  Current step  : 1100
Per MPI rank memory allocation (min/avg/max) = 5.441 | 5.816 | 6.074 Mbytes
Step PotEng KinEng TotEng v_fx v_fy v_fz 
    1100     -1152449            0     -1152449  0.034563381  0.034123819 -0.00098317963 
    1303     -1152449            0     -1152449 -5.7034867e-07 -1.1947574e-07  7.74548e-09 
Loop time of 2.3484 on 104 procs for 203 steps with 288751 atoms

99.9% CPU use with 104 MPI tasks x 1 OpenMP threads

Minimization stats:
  Stopping criterion = energy tolerance
  Energy initial, next-to-last, final = 
     -1152448.96330859  -1152448.96592134  -1152448.96592134
  Force two-norm initial, final = 0.19160696 1.8233133e-05
  Force max component initial, final = 0.082634281 3.7981815e-06
  Final line search alpha, max atom move = 1.0000000 3.7981815e-06
  Iterations, force evaluations = 203 406

MPI task timing breakdown:
Section |  min time  |  avg time  |  max time  |%varavg| %total
---------------------------------------------------------------
Pair    | 0.621      | 1.7086     | 2.2247     |  35.1 | 72.76
Neigh   | 0          | 0          | 0          |   0.0 |  0.00
Comm    | 0.040018   | 0.38017    | 1.1497     |  52.4 | 16.19
Output  | 0          | 0          | 0          |   0.0 |  0.00
Modify  | 2.4658e-05 | 0.00334    | 0.0071431  |   2.7 |  0.14
Other   |            | 0.2563     |            |       | 10.91

Nlocal:        2776.45 ave        3952 max           0 min
Histogram: 8 4 4 0 4 12 8 0 30 34
Nghost:        3879.20 ave        5424 max         232 min
Histogram: 8 0 8 0 16 0 8 8 16 40
Neighs:        79213.6 ave      115159 max           0 min
Histogram: 8 4 4 0 10 6 8 8 24 32

Total # of neighbors = 8238213
Ave neighs/atom = 28.530509
Neighbor list builds = 0
Dangerous builds = 0
The dot product: 8.5964347678131e-09
Setting atom values ...
  1 settings made for x
  1 settings made for y
  1 settings made for z
Setting up cg style minimization ...
  Unit style    : metal
  Current step  : 1303
Per MPI rank memory allocation (min/avg/max) = 5.441 | 5.816 | 6.074 Mbytes
Step PotEng KinEng TotEng v_fx v_fy v_fz 
    1303     -1152449            0     -1152449  0.047343818  0.032183933 0.0060129475 
    1503     -1152449            0     -1152449 4.4502803e-05 3.4623651e-06 6.3968341e-06 
Loop time of 2.29291 on 104 procs for 200 steps with 288751 atoms

99.9% CPU use with 104 MPI tasks x 1 OpenMP threads

Minimization stats:
  Stopping criterion = energy tolerance
  Energy initial, next-to-last, final = 
     -1152448.96134837  -1152448.96445877  -1152448.96445877
  Force two-norm initial, final = 0.20498392 0.00020503735
  Force max component initial, final = 0.098961349 6.5540020e-05
  Final line search alpha, max atom move = 1.0000000 6.5540020e-05
  Iterations, force evaluations = 200 400

MPI task timing breakdown:
Section |  min time  |  avg time  |  max time  |%varavg| %total
---------------------------------------------------------------
Pair    | 0.60803    | 1.6734     | 2.1719     |  34.9 | 72.98
Neigh   | 0          | 0          | 0          |   0.0 |  0.00
Comm    | 0.037022   | 0.37108    | 1.1249     |  52.1 | 16.18
Output  | 0          | 0          | 0          |   0.0 |  0.00
Modify  | 2.5722e-05 | 0.0032966  | 0.0071204  |   2.7 |  0.14
Other   |            | 0.2451     |            |       | 10.69

Nlocal:        2776.45 ave        3953 max           0 min
Histogram: 8 4 4 0 4 12 8 0 30 34
Nghost:        3879.12 ave        5424 max         232 min
Histogram: 8 0 8 0 16 0 8 8 16 40
Neighs:        79213.6 ave      115202 max           0 min
Histogram: 8 4 4 0 10 6 8 8 24 32

Total # of neighbors = 8238215
Ave neighs/atom = 28.530516
Neighbor list builds = 0
Dangerous builds = 0
The dot product: -5.52240362322487e-07
Setting atom values ...
  1 settings made for x
  1 settings made for y
  1 settings made for z
Setting up cg style minimization ...
  Unit style    : metal
  Current step  : 1503
Per MPI rank memory allocation (min/avg/max) = 5.441 | 5.816 | 6.074 Mbytes
Step PotEng KinEng TotEng v_fx v_fy v_fz 
    1503     -1152449            0     -1152449  0.052798836  0.030265117  0.012617673 
    1676     -1152449            0     -1152449 1.3442828e-05 1.8808387e-06 3.349246e-06 
Loop time of 2.0237 on 104 procs for 173 steps with 288751 atoms

99.9% CPU use with 104 MPI tasks x 1 OpenMP threads

Minimization stats:
  Stopping criterion = energy tolerance
  Energy initial, next-to-last, final = 
     -1152448.96032934  -1152448.96294929  -1152448.96294929
  Force two-norm initial, final = 0.21459727 0.00019780057
  Force max component initial, final = 0.10958521 6.0235041e-05
  Final line search alpha, max atom move = 1.0000000 6.0235041e-05
  Iterations, force evaluations = 173 346

MPI task timing breakdown:
Section |  min time  |  avg time  |  max time  |%varavg| %total
---------------------------------------------------------------
Pair    | 0.52773    | 1.4568     | 1.9124     |  32.5 | 71.99
Neigh   | 0          | 0          | 0          |   0.0 |  0.00
Comm    | 0.03742    | 0.32631    | 0.97731    |  47.9 | 16.12
Output  | 0          | 0          | 0          |   0.0 |  0.00
Modify  | 2.1297e-05 | 0.0028491  | 0.0061464  |   2.5 |  0.14
Other   |            | 0.2377     |            |       | 11.75

Nlocal:        2776.45 ave        3954 max           0 min
Histogram: 8 4 4 0 4 12 8 0 30 34
Nghost:        3879.07 ave        5424 max         232 min
Histogram: 8 0 8 0 16 0 8 8 16 40
Neighs:        79213.6 ave      115234 max           0 min
Histogram: 8 4 4 0 10 6 8 8 24 32

Total # of neighbors = 8238214
Ave neighs/atom = 28.530512
Neighbor list builds = 0
Dangerous builds = 0
The dot product: 1.16524823358709e-08
Setting atom values ...
  1 settings made for x
  1 settings made for y
  1 settings made for z
Setting up cg style minimization ...
  Unit style    : metal
  Current step  : 1676
Per MPI rank memory allocation (min/avg/max) = 5.441 | 5.816 | 6.074 Mbytes
Step PotEng KinEng TotEng v_fx v_fy v_fz 
    1676     -1152449            0     -1152449  0.062122701  0.032584686  0.014302129 
    1852     -1152449            0     -1152449 -2.6535594e-05 -1.0408563e-06 -6.528768e-06 
Loop time of 2.03052 on 104 procs for 176 steps with 288751 atoms

99.9% CPU use with 104 MPI tasks x 1 OpenMP threads

Minimization stats:
  Stopping criterion = energy tolerance
  Energy initial, next-to-last, final = 
     -1152448.95831635  -1152448.96078646  -1152448.96078646
  Force two-norm initial, final = 0.21718297 0.00023720933
  Force max component initial, final = 0.11006037 6.8266899e-05
  Final line search alpha, max atom move = 1.0000000 6.8266899e-05
  Iterations, force evaluations = 176 352

MPI task timing breakdown:
Section |  min time  |  avg time  |  max time  |%varavg| %total
---------------------------------------------------------------
Pair    | 0.53422    | 1.4754     | 1.9182     |  32.8 | 72.66
Neigh   | 0          | 0          | 0          |   0.0 |  0.00
Comm    | 0.031879   | 0.3277     | 0.99274    |  48.8 | 16.14
Output  | 0          | 0          | 0          |   0.0 |  0.00
Modify  | 2.1867e-05 | 0.0029024  | 0.0062412  |   2.5 |  0.14
Other   |            | 0.2245     |            |       | 11.06

Nlocal:        2776.45 ave        3955 max           0 min
Histogram: 8 4 4 0 4 12 8 0 30 34
Nghost:        3879.07 ave        5424 max         232 min
Histogram: 8 0 8 0 16 0 8 8 16 40
Neighs:        79213.6 ave      115265 max           0 min
Histogram: 8 4 4 0 10 6 8 8 24 32

Total # of neighbors = 8238212
Ave neighs/atom = 28.530506
Neighbor list builds = 0
Dangerous builds = 0
The dot product: -1.39152432566651e-07
Setting atom values ...
  1 settings made for x
  1 settings made for y
  1 settings made for z
Setting up cg style minimization ...
  Unit style    : metal
  Current step  : 1852
Per MPI rank memory allocation (min/avg/max) = 5.441 | 5.816 | 6.074 Mbytes
Step PotEng KinEng TotEng v_fx v_fy v_fz 
    1852     -1152449            0     -1152449  0.069418811  0.035002145  0.013290324 
    2000     -1152449            0     -1152449 -1.37023e-06 -9.8872172e-07 -2.4887375e-07 
    2055     -1152449            0     -1152449 -2.3605186e-05 -2.5164607e-06 -4.9433747e-06 
Loop time of 2.39997 on 104 procs for 203 steps with 288751 atoms

99.9% CPU use with 104 MPI tasks x 1 OpenMP threads

Minimization stats:
  Stopping criterion = energy tolerance
  Energy initial, next-to-last, final = 
     -1152448.95556115  -1152448.95816196  -1152448.95816196
  Force two-norm initial, final = 0.21714075 9.0828106e-05
  Force max component initial, final = 0.10753893 2.6917559e-05
  Final line search alpha, max atom move = 1.0000000 2.6917559e-05
  Iterations, force evaluations = 203 406

MPI task timing breakdown:
Section |  min time  |  avg time  |  max time  |%varavg| %total
---------------------------------------------------------------
Pair    | 0.62293    | 1.7148     | 2.2457     |  35.2 | 71.45
Neigh   | 0          | 0          | 0          |   0.0 |  0.00
Comm    | 0.038187   | 0.38941    | 1.1577     |  51.8 | 16.23
Output  | 0.00016793 | 0.00017061 | 0.00030745 |   0.0 |  0.01
Modify  | 2.4548e-05 | 0.0033517  | 0.0072007  |   2.7 |  0.14
Other   |            | 0.2923     |            |       | 12.18

Nlocal:        2776.45 ave        3956 max           0 min
Histogram: 8 4 4 0 4 12 8 0 30 34
Nghost:        3879.11 ave        5424 max         232 min
Histogram: 8 0 8 0 16 0 8 8 16 40
Neighs:        79213.5 ave      115298 max           0 min
Histogram: 8 4 4 0 10 6 8 8 24 32

Total # of neighbors = 8238208
Ave neighs/atom = 28.530492
Neighbor list builds = 0
Dangerous builds = 0
The dot product: -1.06710367374122e-07
Setting atom values ...
  1 settings made for x
  1 settings made for y
  1 settings made for z
Setting up cg style minimization ...
  Unit style    : metal
  Current step  : 2055
Per MPI rank memory allocation (min/avg/max) = 5.441 | 5.816 | 6.074 Mbytes
Step PotEng KinEng TotEng v_fx v_fy v_fz 
    2055     -1152449            0     -1152449  0.072355048  0.036775516  0.011617627 
    2229     -1152449            0     -1152449 -1.1554692e-05 -1.156315e-06 -2.128206e-06 
Loop time of 2.02807 on 104 procs for 174 steps with 288751 atoms

99.9% CPU use with 104 MPI tasks x 1 OpenMP threads

Minimization stats:
  Stopping criterion = energy tolerance
  Energy initial, next-to-last, final = 
     -1152448.95264948   -1152448.9549606   -1152448.9549606
  Force two-norm initial, final = 0.2162959 0.00019118629
  Force max component initial, final = 0.10559024 3.3228008e-05
  Final line search alpha, max atom move = 1.0000000 3.3228008e-05
  Iterations, force evaluations = 174 348

MPI task timing breakdown:
Section |  min time  |  avg time  |  max time  |%varavg| %total
---------------------------------------------------------------
Pair    | 0.52949    | 1.4631     | 1.9043     |  32.7 | 72.15
Neigh   | 0          | 0          | 0          |   0.0 |  0.00
Comm    | 0.034644   | 0.33081    | 0.99079    |  48.0 | 16.31
Output  | 0          | 0          | 0          |   0.0 |  0.00
Modify  | 2.1808e-05 | 0.0028655  | 0.006134   |   2.5 |  0.14
Other   |            | 0.2312     |            |       | 11.40

Nlocal:        2776.45 ave        3956 max           0 min
Histogram: 8 4 4 0 4 12 8 0 30 34
Nghost:        3879.11 ave        5424 max         232 min
Histogram: 8 0 8 0 16 0 8 8 16 40
Neighs:        79213.5 ave      115302 max           0 min
Histogram: 8 4 4 0 10 6 8 8 24 32

Total # of neighbors = 8238204
Ave neighs/atom = 28.530478
Neighbor list builds = 0
Dangerous builds = 0
The dot product: -7.58644486989299e-08
Setting atom values ...
  1 settings made for x
  1 settings made for y
  1 settings made for z
Setting up cg style minimization ...
  Unit style    : metal
  Current step  : 2229
Per MPI rank memory allocation (min/avg/max) = 5.441 | 5.816 | 6.074 Mbytes
Step PotEng KinEng TotEng v_fx v_fy v_fz 
    2229   -1152448.9            0   -1152448.9  0.077410611  0.038804236  0.009451302 
    2502     -1152449            0     -1152449 -4.5386645e-07 -6.6964347e-08 -6.6932599e-08 
Loop time of 3.15181 on 104 procs for 273 steps with 288751 atoms

99.9% CPU use with 104 MPI tasks x 1 OpenMP threads

Minimization stats:
  Stopping criterion = energy tolerance
  Energy initial, next-to-last, final = 
     -1152448.94872601  -1152448.95096631  -1152448.95096631
  Force two-norm initial, final = 0.21540943 3.7962871e-06
  Force max component initial, final = 0.1025235 6.2256697e-07
  Final line search alpha, max atom move = 1.0000000 6.2256697e-07
  Iterations, force evaluations = 273 546

MPI task timing breakdown:
Section |  min time  |  avg time  |  max time  |%varavg| %total
---------------------------------------------------------------
Pair    | 0.83419    | 2.2971     | 2.9873     |  40.8 | 72.88
Neigh   | 0          | 0          | 0          |   0.0 |  0.00
Comm    | 0.054301   | 0.5141     | 1.5712     |  60.9 | 16.31
Output  | 0          | 0          | 0          |   0.0 |  0.00
Modify  | 3.6883e-05 | 0.0044908  | 0.0097183  |   3.2 |  0.14
Other   |            | 0.3361     |            |       | 10.66

Nlocal:        2776.45 ave        3956 max           0 min
Histogram: 8 4 4 0 4 12 8 0 30 34
Nghost:        3879.11 ave        5424 max         232 min
Histogram: 8 0 8 0 16 0 8 8 16 40
Neighs:        79213.5 ave      115316 max           0 min
Histogram: 8 4 4 0 10 6 8 8 24 32

Total # of neighbors = 8238200
Ave neighs/atom = 28.530464
Neighbor list builds = 0
Dangerous builds = 0
The dot product: -3.67097678198493e-09
Setting atom values ...
  1 settings made for x
  1 settings made for y
  1 settings made for z
Setting up cg style minimization ...
  Unit style    : metal
  Current step  : 2502
Per MPI rank memory allocation (min/avg/max) = 5.441 | 5.816 | 6.074 Mbytes
Step PotEng KinEng TotEng v_fx v_fy v_fz 
    2502   -1152448.9            0   -1152448.9  0.081621781  0.040045333 0.0066306187 
    2691   -1152448.9            0   -1152448.9 -2.7118546e-05 -3.9864705e-06 -2.9934178e-06 
Loop time of 2.18386 on 104 procs for 189 steps with 288751 atoms

99.9% CPU use with 104 MPI tasks x 1 OpenMP threads

Minimization stats:
  Stopping criterion = energy tolerance
  Energy initial, next-to-last, final = 
     -1152448.94401904  -1152448.94622812  -1152448.94622812
  Force two-norm initial, final = 0.21380436 0.00010241758
  Force max component initial, final = 0.098625575 3.6364244e-05
  Final line search alpha, max atom move = 1.0000000 3.6364244e-05
  Iterations, force evaluations = 189 378

MPI task timing breakdown:
Section |  min time  |  avg time  |  max time  |%varavg| %total
---------------------------------------------------------------
Pair    | 0.57367    | 1.5853     | 2.0672     |  34.1 | 72.59
Neigh   | 0          | 0          | 0          |   0.0 |  0.00
Comm    | 0.03421    | 0.35363    | 1.0599     |  50.2 | 16.19
Output  | 0          | 0          | 0          |   0.0 |  0.00
Modify  | 2.2899e-05 | 0.0031149  | 0.0067508  |   2.6 |  0.14
Other   |            | 0.2419     |            |       | 11.07

Nlocal:        2776.45 ave        3957 max           0 min
Histogram: 8 4 4 0 4 12 8 2 28 34
Nghost:        3879.12 ave        5424 max         232 min
Histogram: 8 0 8 0 16 0 8 8 16 40
Neighs:        79213.5 ave      115354 max           0 min
Histogram: 8 4 4 0 10 6 8 8 24 32

Total # of neighbors = 8238209
Ave neighs/atom = 28.530495
Neighbor list builds = 0
Dangerous builds = 0
The dot product: -2.3668746938853e-07
Setting atom values ...
  1 settings made for x
  1 settings made for y
  1 settings made for z
Setting up cg style minimization ...
  Unit style    : metal
  Current step  : 2691
Per MPI rank memory allocation (min/avg/max) = 5.441 | 5.816 | 6.074 Mbytes
Step PotEng KinEng TotEng v_fx v_fy v_fz 
    2691   -1152448.9            0   -1152448.9  0.084324773  0.040779832 0.0034629303 
    2882   -1152448.9            0   -1152448.9 -1.4785958e-05 -2.7544325e-06 -1.0342344e-06 
Loop time of 2.21525 on 104 procs for 191 steps with 288751 atoms

99.9% CPU use with 104 MPI tasks x 1 OpenMP threads

Minimization stats:
  Stopping criterion = energy tolerance
  Energy initial, next-to-last, final = 
     -1152448.93861967  -1152448.94071178  -1152448.94071178
  Force two-norm initial, final = 0.21160723 8.5363627e-05
  Force max component initial, final = 0.094203653 1.9700939e-05
  Final line search alpha, max atom move = 1.0000000 1.9700939e-05
  Iterations, force evaluations = 191 382

MPI task timing breakdown:
Section |  min time  |  avg time  |  max time  |%varavg| %total
---------------------------------------------------------------
Pair    | 0.58512    | 1.6068     | 2.0965     |  34.1 | 72.53
Neigh   | 0          | 0          | 0          |   0.0 |  0.00
Comm    | 0.034686   | 0.35933    | 1.0867     |  50.7 | 16.22
Output  | 0          | 0          | 0          |   0.0 |  0.00
Modify  | 2.3473e-05 | 0.0031415  | 0.0067326  |   2.6 |  0.14
Other   |            | 0.246      |            |       | 11.11

Nlocal:        2776.45 ave        3957 max           0 min
Histogram: 8 4 4 0 4 12 8 2 28 34
Nghost:        3879.14 ave        5424 max         232 min
Histogram: 8 0 8 0 16 0 8 8 16 40
Neighs:        79213.5 ave      115357 max           0 min
Histogram: 8 4 4 0 10 6 8 8 24 32

Total # of neighbors = 8238204
Ave neighs/atom = 28.530478
Neighbor list builds = 0
Dangerous builds = 0
The dot product: -1.16940970100997e-07
Setting atom values ...
  1 settings made for x
  1 settings made for y
  1 settings made for z
Setting up cg style minimization ...
  Unit style    : metal
  Current step  : 2882
Per MPI rank memory allocation (min/avg/max) = 5.441 | 5.816 | 6.074 Mbytes
Step PotEng KinEng TotEng v_fx v_fy v_fz 
    2882   -1152448.9            0   -1152448.9  0.084381076  0.041828241 0.00042589342 
    3000   -1152448.9            0   -1152448.9 2.8547319e-05 3.8007327e-06 1.2914342e-06 
    3097   -1152448.9            0   -1152448.9 -2.5029507e-07 -1.0956696e-07 -2.8713005e-09 
Loop time of 2.46873 on 104 procs for 215 steps with 288751 atoms

99.9% CPU use with 104 MPI tasks x 1 OpenMP threads

Minimization stats:
  Stopping criterion = energy tolerance
  Energy initial, next-to-last, final = 
     -1152448.93235622  -1152448.93436156  -1152448.93436156
  Force two-norm initial, final = 0.20924854 4.7722653e-05
  Force max component initial, final = 0.090319948 3.2231482e-06
  Final line search alpha, max atom move = 1.0000000 3.2231482e-06
  Iterations, force evaluations = 215 430

MPI task timing breakdown:
Section |  min time  |  avg time  |  max time  |%varavg| %total
---------------------------------------------------------------
Pair    | 0.65441    | 1.7995     | 2.3372     |  36.2 | 72.89
Neigh   | 0          | 0          | 0          |   0.0 |  0.00
Comm    | 0.038814   | 0.39836    | 1.2117     |  54.2 | 16.14
Output  | 0.00010762 | 0.00011862 | 0.00025324 |   0.0 |  0.00
Modify  | 2.5964e-05 | 0.0035456  | 0.0075913  |   2.8 |  0.14
Other   |            | 0.2672     |            |       | 10.82

Nlocal:        2776.45 ave        3957 max           0 min
Histogram: 8 4 4 0 4 12 8 2 28 34
Nghost:        3879.12 ave        5424 max         232 min
Histogram: 8 0 8 0 16 0 8 8 16 40
Neighs:        79213.5 ave      115358 max           0 min
Histogram: 8 4 4 0 10 6 8 8 24 32

Total # of neighbors = 8238201
Ave neighs/atom = 28.530467
Neighbor list builds = 0
Dangerous builds = 0
The dot product: -2.02436751877472e-09
Setting atom values ...
  1 settings made for x
  1 settings made for y
  1 settings made for z
Setting up cg style minimization ...
  Unit style    : metal
  Current step  : 3097
Per MPI rank memory allocation (min/avg/max) = 5.441 | 5.816 | 6.074 Mbytes
Step PotEng KinEng TotEng v_fx v_fy v_fz 
    3097   -1152448.9            0   -1152448.9   0.08358226  0.038327216 -0.0016898515 
    3282   -1152448.9            0   -1152448.9 1.8746879e-05 2.8440009e-06 3.4503535e-07 
Loop time of 2.14802 on 104 procs for 185 steps with 288751 atoms

99.9% CPU use with 104 MPI tasks x 1 OpenMP threads

Minimization stats:
  Stopping criterion = energy tolerance
  Energy initial, next-to-last, final = 
      -1152448.9251606  -1152448.92706659  -1152448.92706659
  Force two-norm initial, final = 0.20598028 9.1776092e-05
  Force max component initial, final = 0.086893846 2.9816294e-05
  Final line search alpha, max atom move = 1.0000000 2.9816294e-05
  Iterations, force evaluations = 185 370

MPI task timing breakdown:
Section |  min time  |  avg time  |  max time  |%varavg| %total
---------------------------------------------------------------
Pair    | 0.56799    | 1.5581     | 2.0309     |  33.5 | 72.54
Neigh   | 0          | 0          | 0          |   0.0 |  0.00
Comm    | 0.034162   | 0.34879    | 1.0544     |  49.9 | 16.24
Output  | 0          | 0          | 0          |   0.0 |  0.00
Modify  | 2.3084e-05 | 0.0030512  | 0.0065184  |   2.6 |  0.14
Other   |            | 0.2381     |            |       | 11.08

Nlocal:        2776.45 ave        3957 max           0 min
Histogram: 8 4 4 0 4 12 8 2 28 34
Nghost:        3879.14 ave        5424 max         232 min
Histogram: 8 0 8 0 16 0 8 8 16 40
Neighs:        79213.5 ave      115362 max           0 min
Histogram: 8 4 4 0 10 6 8 8 24 32

Total # of neighbors = 8238200
Ave neighs/atom = 28.530464
Neighbor list builds = 0
Dangerous builds = 0
The dot product: 1.13949660782775e-07
Setting atom values ...
  1 settings made for x
  1 settings made for y
  1 settings made for z
Setting up cg style minimization ...
  Unit style    : metal
  Current step  : 3282
Per MPI rank memory allocation (min/avg/max) = 5.441 | 5.816 | 6.074 Mbytes
Step PotEng KinEng TotEng v_fx v_fy v_fz 
    3282   -1152448.9            0   -1152448.9  0.082898387  0.028233305 -0.0023075636 
    3486   -1152448.9            0   -1152448.9 -5.4206246e-06 -4.9945783e-07 -3.3308314e-08 
Loop time of 2.34285 on 104 procs for 204 steps with 288751 atoms

99.9% CPU use with 104 MPI tasks x 1 OpenMP threads

Minimization stats:
  Stopping criterion = energy tolerance
  Energy initial, next-to-last, final = 
     -1152448.91670133  -1152448.91857357  -1152448.91857357
  Force two-norm initial, final = 0.20257881 6.3876031e-05
  Force max component initial, final = 0.084208017 7.1331890e-06
  Final line search alpha, max atom move = 1.0000000 7.1331890e-06
  Iterations, force evaluations = 204 408

MPI task timing breakdown:
Section |  min time  |  avg time  |  max time  |%varavg| %total
---------------------------------------------------------------
Pair    | 0.62168    | 1.7095     | 2.2216     |  35.3 | 72.97
Neigh   | 0          | 0          | 0          |   0.0 |  0.00
Comm    | 0.036842   | 0.37839    | 1.1466     |  52.5 | 16.15
Output  | 0          | 0          | 0          |   0.0 |  0.00
Modify  | 2.4569e-05 | 0.0033601  | 0.0072352  |   2.7 |  0.14
Other   |            | 0.2516     |            |       | 10.74

Nlocal:        2776.45 ave        3957 max           0 min
Histogram: 8 4 4 0 4 12 8 2 28 34
Nghost:        3879.14 ave        5424 max         232 min
Histogram: 8 0 8 0 16 0 8 8 16 40
Neighs:        79213.4 ave      115363 max           0 min
Histogram: 8 4 4 0 10 6 8 8 24 32

Total # of neighbors = 8238198
Ave neighs/atom = 28.530457
Neighbor list builds = 0
Dangerous builds = 0
The dot product: -2.72608668452799e-08
Setting atom values ...
  1 settings made for x
  1 settings made for y
  1 settings made for z
Setting up cg style minimization ...
  Unit style    : metal
  Current step  : 3486
Per MPI rank memory allocation (min/avg/max) = 5.441 | 5.816 | 6.074 Mbytes
Step PotEng KinEng TotEng v_fx v_fy v_fz 
    3486   -1152448.9            0   -1152448.9  0.082462774  0.021483105 -0.0027562684 
    3656   -1152448.9            0   -1152448.9 1.4485186e-05 1.4757249e-06 -1.6026204e-07 
Loop time of 1.98665 on 104 procs for 170 steps with 288751 atoms

99.9% CPU use with 104 MPI tasks x 1 OpenMP threads

Minimization stats:
  Stopping criterion = energy tolerance
  Energy initial, next-to-last, final = 
     -1152448.90687221  -1152448.90873741  -1152448.90873741
  Force two-norm initial, final = 0.20077208 0.00012749416
  Force max component initial, final = 0.082802074 1.8132489e-05
  Final line search alpha, max atom move = 1.0000000 1.8132489e-05
  Iterations, force evaluations = 170 340

MPI task timing breakdown:
Section |  min time  |  avg time  |  max time  |%varavg| %total
---------------------------------------------------------------
Pair    | 0.5188     | 1.4342     | 1.8807     |  32.3 | 72.19
Neigh   | 0          | 0          | 0          |   0.0 |  0.00
Comm    | 0.031612   | 0.32383    | 0.96964    |  47.5 | 16.30
Output  | 0          | 0          | 0          |   0.0 |  0.00
Modify  | 2.0764e-05 | 0.002802   | 0.0060055  |   2.5 |  0.14
Other   |            | 0.2258     |            |       | 11.36

Nlocal:        2776.45 ave        3957 max           0 min
Histogram: 8 4 4 0 4 12 8 2 28 34
Nghost:        3879.14 ave        5424 max         232 min
Histogram: 8 0 8 0 16 0 8 8 16 40
Neighs:        79213.4 ave      115363 max           0 min
Histogram: 8 4 4 0 10 6 8 8 24 32

Total # of neighbors = 8238198
Ave neighs/atom = 28.530457
Neighbor list builds = 0
Dangerous builds = 0
The dot product: 6.28649782451118e-08
Setting atom values ...
  1 settings made for x
  1 settings made for y
  1 settings made for z
Setting up cg style minimization ...
  Unit style    : metal
  Current step  : 3656
Per MPI rank memory allocation (min/avg/max) = 5.441 | 5.816 | 6.074 Mbytes
Step PotEng KinEng TotEng v_fx v_fy v_fz 
    3656   -1152448.9            0   -1152448.9  0.082099684  0.017753094 -0.0032926708 
    3865   -1152448.9            0   -1152448.9 -2.2225177e-05 -3.5954498e-06 7.2011866e-07 
Loop time of 2.40947 on 104 procs for 209 steps with 288751 atoms

99.9% CPU use with 104 MPI tasks x 1 OpenMP threads

Minimization stats:
  Stopping criterion = energy tolerance
  Energy initial, next-to-last, final = 
     -1152448.89567975  -1152448.89754696  -1152448.89754696
  Force two-norm initial, final = 0.19970891 6.5565446e-05
  Force max component initial, final = 0.083782096 2.2225177e-05
  Final line search alpha, max atom move = 1.0000000 2.2225177e-05
  Iterations, force evaluations = 209 418

MPI task timing breakdown:
Section |  min time  |  avg time  |  max time  |%varavg| %total
---------------------------------------------------------------
Pair    | 0.6399     | 1.7536     | 2.284      |  35.7 | 72.78
Neigh   | 0          | 0          | 0          |   0.0 |  0.00
Comm    | 0.039003   | 0.39076    | 1.1823     |  53.1 | 16.22
Output  | 0          | 0          | 0          |   0.0 |  0.00
Modify  | 2.5185e-05 | 0.0034389  | 0.0073554  |   2.8 |  0.14
Other   |            | 0.2616     |            |       | 10.86

Nlocal:        2776.45 ave        3957 max           0 min
Histogram: 8 4 4 0 4 12 8 2 28 34
Nghost:        3879.10 ave        5424 max         232 min
Histogram: 8 0 8 0 16 0 8 8 16 40
Neighs:        79213.5 ave      115366 max           0 min
Histogram: 8 4 4 0 10 6 8 8 24 32

Total # of neighbors = 8238200
Ave neighs/atom = 28.530464
Neighbor list builds = 0
Dangerous builds = 0
The dot product: -7.47357176163397e-08
Setting atom values ...
  1 settings made for x
  1 settings made for y
  1 settings made for z
Setting up cg style minimization ...
  Unit style    : metal
  Current step  : 3865
Per MPI rank memory allocation (min/avg/max) = 5.441 | 5.816 | 6.074 Mbytes
Step PotEng KinEng TotEng v_fx v_fy v_fz 
    3865   -1152448.9            0   -1152448.9  0.080961778  0.015029252 -0.0036571089 
    4000   -1152448.9            0   -1152448.9 -7.7159324e-05 -1.9008154e-05 4.1441351e-06 
    4183   -1152448.9            0   -1152448.9 -3.0887069e-08 1.6827746e-10 5.6524154e-10 
Loop time of 3.71385 on 104 procs for 318 steps with 288751 atoms

99.9% CPU use with 104 MPI tasks x 1 OpenMP threads

Minimization stats:
  Stopping criterion = energy tolerance
  Energy initial, next-to-last, final = 
     -1152448.88315577  -1152448.88507418  -1152448.88507418
  Force two-norm initial, final = 0.19880682 1.5473512e-06
  Force max component initial, final = 0.085303089 3.0369507e-07
  Final line search alpha, max atom move = 1.0000000 3.0369507e-07
  Iterations, force evaluations = 318 636

MPI task timing breakdown:
Section |  min time  |  avg time  |  max time  |%varavg| %total
---------------------------------------------------------------
Pair    | 0.9674     | 2.6833     | 3.5024     |  44.1 | 72.25
Neigh   | 0          | 0          | 0          |   0.0 |  0.00
Comm    | 0.063202   | 0.60681    | 1.8234     |  65.1 | 16.34
Output  | 0.00012819 | 0.00013214 | 0.00027232 |   0.0 |  0.00
Modify  | 4.0525e-05 | 0.005235   | 0.011288   |   3.4 |  0.14
Other   |            | 0.4183     |            |       | 11.26

Nlocal:        2776.45 ave        3957 max           0 min
Histogram: 8 4 4 0 4 12 8 2 28 34
Nghost:        3879.11 ave        5424 max         232 min
Histogram: 8 0 8 0 16 0 8 8 16 40
Neighs:        79213.4 ave      115370 max           0 min
Histogram: 8 4 4 0 10 6 8 8 24 32

Total # of neighbors = 8238197
Ave neighs/atom = 28.530454
Neighbor list builds = 0
Dangerous builds = 0
The dot product: -2.49830870251648e-12
Setting up cg style minimization ...
  Unit style    : metal
  Current step  : 4183
Per MPI rank memory allocation (min/avg/max) = 5.441 | 5.816 | 6.074 Mbytes
Step PotEng KinEng TotEng v_fx v_fy v_fz 
    4183   -1152448.9            0   -1152448.9 -0.012268692 -0.090486703  -0.64347006 
    4445     -1152449            0     -1152449 4.3597539e-05 7.7666232e-06 -4.2671108e-05 
Loop time of 3.03835 on 104 procs for 262 steps with 288751 atoms

99.9% CPU use with 104 MPI tasks x 1 OpenMP threads

Minimization stats:
  Stopping criterion = energy tolerance
  Energy initial, next-to-last, final = 
     -1152448.88507418  -1152448.97218896  -1152448.97218896
  Force two-norm initial, final = 0.64991698 0.00019423229
  Force max component initial, final = 0.64347006 5.3858664e-05
  Final line search alpha, max atom move = 1.0000000 5.3858664e-05
  Iterations, force evaluations = 262 524

MPI task timing breakdown:
Section |  min time  |  avg time  |  max time  |%varavg| %total
---------------------------------------------------------------
Pair    | 0.814      | 2.2062     | 2.8607     |  39.8 | 72.61
Neigh   | 4.071e-05  | 0.011809   | 0.017115   |   4.5 |  0.39
Comm    | 0.047037   | 0.49091    | 1.4885     |  59.7 | 16.16
Output  | 0          | 0          | 0          |   0.0 |  0.00
Modify  | 3.016e-05  | 0.0028061  | 0.0072405  |   3.3 |  0.09
Other   |            | 0.3267     |            |       | 10.75

Nlocal:        2776.45 ave        3951 max           0 min
Histogram: 8 4 4 0 4 12 8 0 30 34
Nghost:        3879.34 ave        5424 max         232 min
Histogram: 8 0 8 0 16 0 8 8 16 40
Neighs:        79213.5 ave      115105 max           0 min
Histogram: 8 4 4 0 10 6 8 8 24 32

Total # of neighbors = 8238203
Ave neighs/atom = 28.530474
Neighbor list builds = 4
Dangerous builds = 0
OMP_NUM_THREADS environment is not set. Defaulting to 1 thread. (../comm.cpp:94)
  using 1 OpenMP thread(s) per MPI task
Reading data file ...
  orthogonal box = (-122.39241 -121.13707 -37.090501) to (122.39241 121.13707 37.090501)
  13 by 4 by 2 MPI processor grid
  reading atoms ...
  288751 atoms
  read_data CPU = 0.342 seconds
199981 atoms in group inner
88770 atoms in group outer
1 atoms in group carbon
Neighbor list info ...
  update every 1 steps, delay 0 steps, check yes
  max neighbors/atom: 2000, page size: 100000
  master list distance cutoff = 5.6
  ghost atom cutoff = 5.6
  binsize = 2.8, bins = 88 87 27
  1 neighbor lists, perpetual/occasional/extra = 1 0 0
  (1) pair eam/alloy, perpetual
      attributes: half, newton on
      pair build: half/bin/atomonly/newton
      stencil: half/bin/3d/newton
      bin: standard
Setting up cg style minimization ...
  Unit style    : metal
  Current step  : 0
Per MPI rank memory allocation (min/avg/max) = 5.441 | 5.816 | 6.074 Mbytes
Step v_fx v_fy v_fz PotEng KinEng TotEng 
       0   -26.358471  -0.83124381    7.8022384   -1152441.8            0   -1152441.8 
     250 -1.815766e-05 -1.9498262e-06 1.9153978e-05     -1152449            0     -1152449 
Loop time of 2.93918 on 104 procs for 250 steps with 288751 atoms

99.9% CPU use with 104 MPI tasks x 1 OpenMP threads

Minimization stats:
  Stopping criterion = energy tolerance
  Energy initial, next-to-last, final = 
     -1152441.81605118  -1152448.97218899  -1152448.97218899
  Force two-norm initial, final = 45.108469 0.00010349855
  Force max component initial, final = 34.006003 2.2153810e-05
  Final line search alpha, max atom move = 1.0000000 2.2153810e-05
  Iterations, force evaluations = 250 496

MPI task timing breakdown:
Section |  min time  |  avg time  |  max time  |%varavg| %total
---------------------------------------------------------------
Pair    | 0.79356    | 2.1        | 2.7388     |  38.2 | 71.45
Neigh   | 9.1616e-05 | 0.026616   | 0.038713   |   6.7 |  0.91
Comm    | 0.047958   | 0.47403    | 1.4275     |  57.3 | 16.13
Output  | 0          | 0          | 0          |   0.0 |  0.00
Modify  | 2.741e-05  | 0.0026638  | 0.0069021  |   3.2 |  0.09
Other   |            | 0.3359     |            |       | 11.43

Nlocal:        2776.45 ave        3952 max           0 min
Histogram: 8 4 4 0 4 12 8 0 30 34
Nghost:        3879.14 ave        5424 max         232 min
Histogram: 8 0 8 0 16 0 8 8 16 40
Neighs:        79213.6 ave      115128 max           0 min
Histogram: 8 4 4 0 10 6 8 8 24 32

Total # of neighbors = 8238213
Ave neighs/atom = 28.530509
Neighbor list builds = 9
Dangerous builds = 0
Setting atom values ...
  1 settings made for x
  1 settings made for y
  1 settings made for z
Setting up cg style minimization ...
  Unit style    : metal
  Current step  : 250
Per MPI rank memory allocation (min/avg/max) = 5.441 | 5.816 | 6.074 Mbytes
Step PotEng KinEng TotEng v_fx v_fy v_fz 
     250     -1152449            0     -1152449   0.04101062  0.077339833 -0.025598362 
     453     -1152449            0     -1152449 -1.1636044e-06 2.6524477e-06 -3.5756717e-06 
Loop time of 2.34051 on 104 procs for 203 steps with 288751 atoms

99.9% CPU use with 104 MPI tasks x 1 OpenMP threads

Minimization stats:
  Stopping criterion = energy tolerance
  Energy initial, next-to-last, final = 
     -1152448.96660963    -1152448.971103    -1152448.971103
  Force two-norm initial, final = 0.30135449 0.00017620715
  Force max component initial, final = 0.16325115 2.9611723e-05
  Final line search alpha, max atom move = 1.0000000 2.9611723e-05
  Iterations, force evaluations = 203 406

MPI task timing breakdown:
Section |  min time  |  avg time  |  max time  |%varavg| %total
---------------------------------------------------------------
Pair    | 0.62166    | 1.7043     | 2.2211     |  35.2 | 72.82
Neigh   | 0          | 0          | 0          |   0.0 |  0.00
Comm    | 0.034621   | 0.38122    | 1.1492     |  52.0 | 16.29
Output  | 0          | 0          | 0          |   0.0 |  0.00
Modify  | 2.5106e-05 | 0.0033305  | 0.0070865  |   2.7 |  0.14
Other   |            | 0.2517     |            |       | 10.75

Nlocal:        2776.45 ave        3951 max           0 min
Histogram: 8 4 4 0 4 12 8 0 30 34
Nghost:        3879.24 ave        5424 max         232 min
Histogram: 8 0 8 0 16 0 8 8 16 40
Neighs:        79213.5 ave      115112 max           0 min
Histogram: 8 4 4 0 10 6 8 8 24 32

Total # of neighbors = 8238206
Ave neighs/atom = 28.530485
Neighbor list builds = 0
Dangerous builds = 0
Setting atom values ...
  1 settings made for x
  1 settings made for y
  1 settings made for z
Setting up cg style minimization ...
  Unit style    : metal
  Current step  : 453
Per MPI rank memory allocation (min/avg/max) = 5.441 | 5.816 | 6.074 Mbytes
Step PotEng KinEng TotEng v_fx v_fy v_fz 
     453     -1152449            0     -1152449  0.058363245  0.037579414  0.013068466 
     662     -1152449            0     -1152449 -7.7457898e-06 -7.6695965e-06 -6.4005116e-07 
Loop time of 2.41818 on 104 procs for 209 steps with 288751 atoms

99.9% CPU use with 104 MPI tasks x 1 OpenMP threads

Minimization stats:
  Stopping criterion = energy tolerance
  Energy initial, next-to-last, final = 
     -1152448.96706514  -1152448.96964625  -1152448.96964625
  Force two-norm initial, final = 0.21248764 6.6007030e-05
  Force max component initial, final = 0.11261489 1.0700266e-05
  Final line search alpha, max atom move = 1.0000000 1.0700266e-05
  Iterations, force evaluations = 209 418

MPI task timing breakdown:
Section |  min time  |  avg time  |  max time  |%varavg| %total
---------------------------------------------------------------
Pair    | 0.64308    | 1.7627     | 2.2922     |  35.8 | 72.89
Neigh   | 0          | 0          | 0          |   0.0 |  0.00
Comm    | 0.037145   | 0.39582    | 1.1928     |  52.9 | 16.37
Output  | 0          | 0          | 0          |   0.0 |  0.00
Modify  | 2.5231e-05 | 0.0034357  | 0.007311   |   2.8 |  0.14
Other   |            | 0.2562     |            |       | 10.60

Nlocal:        2776.45 ave        3952 max           0 min
Histogram: 8 4 4 0 4 12 8 0 30 34
Nghost:        3879.20 ave        5423 max         232 min
Histogram: 8 0 8 0 16 0 8 8 16 40
Neighs:        79213.5 ave      115121 max           0 min
Histogram: 8 4 4 0 10 6 8 8 24 32

Total # of neighbors = 8238203
Ave neighs/atom = 28.530474
Neighbor list builds = 0
Dangerous builds = 0
The dot product: -4.41082676504232e-09
Setting atom values ...
  1 settings made for x
  1 settings made for y
  1 settings made for z
Setting up cg style minimization ...
  Unit style    : metal
  Current step  : 662
Per MPI rank memory allocation (min/avg/max) = 5.441 | 5.816 | 6.074 Mbytes
Step PotEng KinEng TotEng v_fx v_fy v_fz 
     662     -1152449            0     -1152449    0.0668552  0.028325416  0.012293932 
     828     -1152449            0     -1152449 2.093607e-05 7.1530825e-06 4.1911579e-06 
Loop time of 1.91979 on 104 procs for 166 steps with 288751 atoms

99.9% CPU use with 104 MPI tasks x 1 OpenMP threads

Minimization stats:
  Stopping criterion = energy tolerance
  Energy initial, next-to-last, final = 
     -1152448.96518047  -1152448.96812743  -1152448.96812743
  Force two-norm initial, final = 0.21173485 0.00012244301
  Force max component initial, final = 0.10624149 2.7895075e-05
  Final line search alpha, max atom move = 1.0000000 2.7895075e-05
  Iterations, force evaluations = 166 332

MPI task timing breakdown:
Section |  min time  |  avg time  |  max time  |%varavg| %total
---------------------------------------------------------------
Pair    | 0.50875    | 1.3943     | 1.8128     |  31.8 | 72.63
Neigh   | 0          | 0          | 0          |   0.0 |  0.00
Comm    | 0.030675   | 0.3105     | 0.93926    |  47.2 | 16.17
Output  | 0          | 0          | 0          |   0.0 |  0.00
Modify  | 2.0531e-05 | 0.0027326  | 0.005896   |   2.5 |  0.14
Other   |            | 0.2123     |            |       | 11.06

Nlocal:        2776.45 ave        3952 max           0 min
Histogram: 8 4 4 0 4 12 8 0 30 34
Nghost:        3879.20 ave        5423 max         232 min
Histogram: 8 0 8 0 16 0 8 8 16 40
Neighs:        79213.5 ave      115135 max           0 min
Histogram: 8 4 4 0 10 6 8 8 24 32

Total # of neighbors = 8238207
Ave neighs/atom = 28.530488
Neighbor list builds = 0
Dangerous builds = 0
The dot product: 8.88640472461646e-09
Setting atom values ...
  1 settings made for x
  1 settings made for y
  1 settings made for z
Setting up cg style minimization ...
  Unit style    : metal
  Current step  : 828
Per MPI rank memory allocation (min/avg/max) = 5.441 | 5.816 | 6.074 Mbytes
Step PotEng KinEng TotEng v_fx v_fy v_fz 
     828     -1152449            0     -1152449  0.059287549   0.02502122  0.011185704 
     969     -1152449            0     -1152449 -2.6544804e-05 -4.7921742e-06 -5.4555662e-06 
Loop time of 1.66488 on 104 procs for 141 steps with 288751 atoms

99.9% CPU use with 104 MPI tasks x 1 OpenMP threads

Minimization stats:
  Stopping criterion = energy tolerance
  Energy initial, next-to-last, final = 
     -1152448.96386479  -1152448.96647248  -1152448.96647248
  Force two-norm initial, final = 0.21046706 0.00013305255
  Force max component initial, final = 0.10470797 3.2814452e-05
  Final line search alpha, max atom move = 1.0000000 3.2814452e-05
  Iterations, force evaluations = 141 282

MPI task timing breakdown:
Section |  min time  |  avg time  |  max time  |%varavg| %total
---------------------------------------------------------------
Pair    | 0.43118    | 1.1875     | 1.5506     |  29.4 | 71.33
Neigh   | 0          | 0          | 0          |   0.0 |  0.00
Comm    | 0.027054   | 0.27097    | 0.80938    |  43.1 | 16.28
Output  | 0          | 0          | 0          |   0.0 |  0.00
Modify  | 1.7646e-05 | 0.0023241  | 0.0050261  |   2.3 |  0.14
Other   |            | 0.2041     |            |       | 12.26

Nlocal:        2776.45 ave        3952 max           0 min
Histogram: 8 4 4 0 4 12 8 0 30 34
Nghost:        3879.22 ave        5424 max         232 min
Histogram: 8 0 8 0 16 0 8 8 16 40
Neighs:        79213.6 ave      115159 max           0 min
Histogram: 8 4 4 0 10 6 8 8 24 32

Total # of neighbors = 8238213
Ave neighs/atom = 28.530509
Neighbor list builds = 0
Dangerous builds = 0
The dot product: 1.24673263709048e-08
Setting atom values ...
  1 settings made for x
  1 settings made for y
  1 settings made for z
Setting up cg style minimization ...
  Unit style    : metal
  Current step  : 969
Per MPI rank memory allocation (min/avg/max) = 5.441 | 5.816 | 6.074 Mbytes
Step PotEng KinEng TotEng v_fx v_fy v_fz 
     969     -1152449            0     -1152449  0.057712719  0.028745835  0.011486779 
    1000     -1152449            0     -1152449 0.0023605748 0.00054257156 0.00049300591 
    1200     -1152449            0     -1152449 6.5576863e-06 1.6423081e-07 1.4187209e-06 
Loop time of 2.66746 on 104 procs for 231 steps with 288751 atoms

99.9% CPU use with 104 MPI tasks x 1 OpenMP threads

Minimization stats:
  Stopping criterion = energy tolerance
  Energy initial, next-to-last, final = 
     -1152448.96188869  -1152448.96484842  -1152448.96484842
  Force two-norm initial, final = 0.21165421 9.9514585e-05
  Force max component initial, final = 0.10560194 3.8593501e-05
  Final line search alpha, max atom move = 1.0000000 3.8593501e-05
  Iterations, force evaluations = 231 462

MPI task timing breakdown:
Section |  min time  |  avg time  |  max time  |%varavg| %total
---------------------------------------------------------------
Pair    | 0.70835    | 1.9428     | 2.527      |  37.5 | 72.83
Neigh   | 0          | 0          | 0          |   0.0 |  0.00
Comm    | 0.03945    | 0.43441    | 1.311      |  55.8 | 16.29
Output  | 9.4072e-05 | 0.00010061 | 0.00021804 |   0.0 |  0.00
Modify  | 2.7639e-05 | 0.003793   | 0.0080547  |   2.9 |  0.14
Other   |            | 0.2863     |            |       | 10.73

Nlocal:        2776.45 ave        3953 max           0 min
Histogram: 8 4 4 0 4 12 8 0 30 34
Nghost:        3879.16 ave        5424 max         232 min
Histogram: 8 0 8 0 16 0 8 8 16 40
Neighs:        79213.6 ave      115201 max           0 min
Histogram: 8 4 4 0 10 6 8 8 24 32

Total # of neighbors = 8238216
Ave neighs/atom = 28.530519
Neighbor list builds = 0
Dangerous builds = 0
The dot product: -3.64526035373338e-08
Setting atom values ...
  1 settings made for x
  1 settings made for y
  1 settings made for z
Setting up cg style minimization ...
  Unit style    : metal
  Current step  : 1200
Per MPI rank memory allocation (min/avg/max) = 5.441 | 5.816 | 6.074 Mbytes
Step PotEng KinEng TotEng v_fx v_fy v_fz 
    1200     -1152449            0     -1152449  0.054555311  0.029220554   0.01395567 
    1362     -1152449            0     -1152449 1.0425687e-05 4.4126884e-07 2.7786343e-06 
Loop time of 1.88724 on 104 procs for 162 steps with 288751 atoms

99.9% CPU use with 104 MPI tasks x 1 OpenMP threads

Minimization stats:
  Stopping criterion = energy tolerance
  Energy initial, next-to-last, final = 
       -1152448.960736   -1152448.9634609   -1152448.9634609
  Force two-norm initial, final = 0.21571882 0.00010486346
  Force max component initial, final = 0.11063406 2.0223913e-05
  Final line search alpha, max atom move = 1.0000000 2.0223913e-05
  Iterations, force evaluations = 162 324

MPI task timing breakdown:
Section |  min time  |  avg time  |  max time  |%varavg| %total
---------------------------------------------------------------
Pair    | 0.49436    | 1.3654     | 1.7886     |  31.5 | 72.35
Neigh   | 0          | 0          | 0          |   0.0 |  0.00
Comm    | 0.030789   | 0.30651    | 0.92749    |  46.4 | 16.24
Output  | 0          | 0          | 0          |   0.0 |  0.00
Modify  | 1.9235e-05 | 0.0026648  | 0.0057026  |   2.4 |  0.14
Other   |            | 0.2126     |            |       | 11.27

Nlocal:        2776.45 ave        3954 max           0 min
Histogram: 8 4 4 0 4 12 8 0 30 34
Nghost:        3879.07 ave        5424 max         232 min
Histogram: 8 0 8 0 16 0 8 8 16 40
Neighs:        79213.5 ave      115231 max           0 min
Histogram: 8 4 4 0 10 6 8 8 24 32

Total # of neighbors = 8238209
Ave neighs/atom = 28.530495
Neighbor list builds = 0
Dangerous builds = 0
The dot product: 1.00323918593102e-08
Setting atom values ...
  1 settings made for x
  1 settings made for y
  1 settings made for z
Setting up cg style minimization ...
  Unit style    : metal
  Current step  : 1362
Per MPI rank memory allocation (min/avg/max) = 5.441 | 5.816 | 6.074 Mbytes
Step PotEng KinEng TotEng v_fx v_fy v_fz 
    1362     -1152449            0     -1152449  0.060761096  0.031726713  0.014910279 
    1557     -1152449            0     -1152449 2.5022823e-06 -9.9185966e-08 6.5416343e-07 
Loop time of 2.28421 on 104 procs for 195 steps with 288751 atoms

99.9% CPU use with 104 MPI tasks x 1 OpenMP threads

Minimization stats:
  Stopping criterion = energy tolerance
  Energy initial, next-to-last, final = 
     -1152448.95900935  -1152448.96148996  -1152448.96148996
  Force two-norm initial, final = 0.21763412 0.00010541875
  Force max component initial, final = 0.11092522 1.5058981e-05
  Final line search alpha, max atom move = 1.0000000 1.5058981e-05
  Iterations, force evaluations = 195 390

MPI task timing breakdown:
Section |  min time  |  avg time  |  max time  |%varavg| %total
---------------------------------------------------------------
Pair    | 0.5966     | 1.6411     | 2.1393     |  34.5 | 71.85
Neigh   | 0          | 0          | 0          |   0.0 |  0.00
Comm    | 0.036719   | 0.36901    | 1.1107     |  50.9 | 16.15
Output  | 0          | 0          | 0          |   0.0 |  0.00
Modify  | 2.2992e-05 | 0.0032108  | 0.0069731  |   2.7 |  0.14
Other   |            | 0.2709     |            |       | 11.86

Nlocal:        2776.45 ave        3954 max           0 min
Histogram: 8 4 4 0 4 12 8 0 30 34
Nghost:        3879.03 ave        5424 max         232 min
Histogram: 8 0 8 0 16 0 8 8 16 40
Neighs:        79213.6 ave      115227 max           0 min
Histogram: 8 4 4 0 10 6 8 8 24 32

Total # of neighbors = 8238212
Ave neighs/atom = 28.530506
Neighbor list builds = 0
Dangerous builds = 0
The dot product: 1.29031786897876e-08
Setting atom values ...
  1 settings made for x
  1 settings made for y
  1 settings made for z
Setting up cg style minimization ...
  Unit style    : metal
  Current step  : 1557
Per MPI rank memory allocation (min/avg/max) = 5.441 | 5.816 | 6.074 Mbytes
Step PotEng KinEng TotEng v_fx v_fy v_fz 
    1557     -1152449            0     -1152449  0.068104728  0.034348318   0.01394383 
    1755     -1152449            0     -1152449 -2.1625841e-05 -1.8786723e-06 -4.7982075e-06 
Loop time of 2.30879 on 104 procs for 198 steps with 288751 atoms

99.9% CPU use with 104 MPI tasks x 1 OpenMP threads

Minimization stats:
  Stopping criterion = energy tolerance
  Energy initial, next-to-last, final = 
     -1152448.95642023  -1152448.95896582  -1152448.95896582
  Force two-norm initial, final = 0.21754726 0.00011544802
  Force max component initial, final = 0.10852882 3.6181534e-05
  Final line search alpha, max atom move = 1.0000000 3.6181534e-05
  Iterations, force evaluations = 198 396

MPI task timing breakdown:
Section |  min time  |  avg time  |  max time  |%varavg| %total
---------------------------------------------------------------
Pair    | 0.60416    | 1.6681     | 2.1861     |  34.8 | 72.25
Neigh   | 0          | 0          | 0          |   0.0 |  0.00
Comm    | 0.035363   | 0.37526    | 1.1383     |  51.5 | 16.25
Output  | 0          | 0          | 0          |   0.0 |  0.00
Modify  | 2.3676e-05 | 0.0032544  | 0.0069525  |   2.7 |  0.14
Other   |            | 0.2621     |            |       | 11.35

Nlocal:        2776.45 ave        3956 max           0 min
Histogram: 8 4 4 0 4 12 8 0 30 34
Nghost:        3879.11 ave        5424 max         232 min
Histogram: 8 0 8 0 16 0 8 8 16 40
Neighs:        79213.6 ave      115297 max           0 min
Histogram: 8 4 4 0 10 6 8 8 24 32

Total # of neighbors = 8238210
Ave neighs/atom = 28.530499
Neighbor list builds = 0
Dangerous builds = 0
The dot product: -1.02128526873284e-07
Setting atom values ...
  1 settings made for x
  1 settings made for y
  1 settings made for z
Setting up cg style minimization ...
  Unit style    : metal
  Current step  : 1755
Per MPI rank memory allocation (min/avg/max) = 5.441 | 5.816 | 6.074 Mbytes
Step PotEng KinEng TotEng v_fx v_fy v_fz 
    1755     -1152449            0     -1152449  0.071453604  0.036220266  0.012259995 
    1911     -1152449            0     -1152449 3.255519e-05 4.1029442e-06 6.2526138e-06 
Loop time of 1.80181 on 104 procs for 156 steps with 288751 atoms

99.9% CPU use with 104 MPI tasks x 1 OpenMP threads

Minimization stats:
  Stopping criterion = energy tolerance
  Energy initial, next-to-last, final = 
      -1152448.9535972  -1152448.95598671  -1152448.95598671
  Force two-norm initial, final = 0.2167062 0.00029109275
  Force max component initial, final = 0.10635436 6.6240335e-05
  Final line search alpha, max atom move = 1.0000000 6.6240335e-05
  Iterations, force evaluations = 156 312

MPI task timing breakdown:
Section |  min time  |  avg time  |  max time  |%varavg| %total
---------------------------------------------------------------
Pair    | 0.47934    | 1.31       | 1.7073     |  30.7 | 72.71
Neigh   | 0          | 0          | 0          |   0.0 |  0.00
Comm    | 0.026921   | 0.29351    | 0.88484    |  45.6 | 16.29
Output  | 0          | 0          | 0          |   0.0 |  0.00
Modify  | 1.9587e-05 | 0.0025623  | 0.0054651  |   2.4 |  0.14
Other   |            | 0.1957     |            |       | 10.86

Nlocal:        2776.45 ave        3956 max           0 min
Histogram: 8 4 4 0 4 12 8 0 30 34
Nghost:        3879.11 ave        5424 max         232 min
Histogram: 8 0 8 0 16 0 8 8 16 40
Neighs:        79213.5 ave      115301 max           0 min
Histogram: 8 4 4 0 10 6 8 8 24 32

Total # of neighbors = 8238206
Ave neighs/atom = 28.530485
Neighbor list builds = 0
Dangerous builds = 0
The dot product: 2.01854655003296e-07
Setting atom values ...
  1 settings made for x
  1 settings made for y
  1 settings made for z
Setting up cg style minimization ...
  Unit style    : metal
  Current step  : 1911
Per MPI rank memory allocation (min/avg/max) = 5.441 | 5.816 | 6.074 Mbytes
Step PotEng KinEng TotEng v_fx v_fy v_fz 
    1911   -1152448.9            0   -1152448.9  0.076107674  0.038291877  0.010205815 
    2000     -1152449            0     -1152449 -0.00020232033 -2.8769535e-05 -3.2069696e-05 
    2137     -1152449            0     -1152449 4.4939679e-06 8.4825883e-07 6.9818507e-07 
Loop time of 2.60689 on 104 procs for 226 steps with 288751 atoms

99.9% CPU use with 104 MPI tasks x 1 OpenMP threads

Minimization stats:
  Stopping criterion = energy tolerance
  Energy initial, next-to-last, final = 
     -1152448.94996898   -1152448.9522246   -1152448.9522246
  Force two-norm initial, final = 0.21586118 3.8653209e-05
  Force max component initial, final = 0.10359124 8.5807364e-06
  Final line search alpha, max atom move = 1.0000000 8.5807364e-06
  Iterations, force evaluations = 226 452

MPI task timing breakdown:
Section |  min time  |  avg time  |  max time  |%varavg| %total
---------------------------------------------------------------
Pair    | 0.6923     | 1.9034     | 2.4722     |  37.2 | 73.01
Neigh   | 0          | 0          | 0          |   0.0 |  0.00
Comm    | 0.039757   | 0.42789    | 1.2906     |  55.0 | 16.41
Output  | 0.00010405 | 0.00010675 | 0.00024994 |   0.0 |  0.00
Modify  | 2.6776e-05 | 0.0037115  | 0.0079089  |   2.9 |  0.14
Other   |            | 0.2718     |            |       | 10.43

Nlocal:        2776.45 ave        3956 max           0 min
Histogram: 8 4 4 0 4 12 8 0 30 34
Nghost:        3879.11 ave        5424 max         232 min
Histogram: 8 0 8 0 16 0 8 8 16 40
Neighs:        79213.5 ave      115305 max           0 min
Histogram: 8 4 4 0 10 6 8 8 24 32

Total # of neighbors = 8238201
Ave neighs/atom = 28.530467
Neighbor list builds = 0
Dangerous builds = 0
The dot product: 3.53689597095042e-08
Setting atom values ...
  1 settings made for x
  1 settings made for y
  1 settings made for z
Setting up cg style minimization ...
  Unit style    : metal
  Current step  : 2137
Per MPI rank memory allocation (min/avg/max) = 5.441 | 5.816 | 6.074 Mbytes
Step PotEng KinEng TotEng v_fx v_fy v_fz 
    2137   -1152448.9            0   -1152448.9  0.080513145  0.039772303 0.0075222812 
    2319   -1152448.9            0   -1152448.9 -3.1457169e-05 -3.484186e-06 -3.9167687e-06 
Loop time of 2.0981 on 104 procs for 182 steps with 288751 atoms

99.9% CPU use with 104 MPI tasks x 1 OpenMP threads

Minimization stats:
  Stopping criterion = energy tolerance
  Energy initial, next-to-last, final = 
     -1152448.94547916  -1152448.94770091  -1152448.94770091
  Force two-norm initial, final = 0.21436919 0.00013763964
  Force max component initial, final = 0.099875898 5.0828107e-05
  Final line search alpha, max atom move = 1.0000000 5.0828107e-05
  Iterations, force evaluations = 182 364

MPI task timing breakdown:
Section |  min time  |  avg time  |  max time  |%varavg| %total
---------------------------------------------------------------
Pair    | 0.55507    | 1.5264     | 1.9902     |  33.3 | 72.75
Neigh   | 0          | 0          | 0          |   0.0 |  0.00
Comm    | 0.031954   | 0.34013    | 1.0243     |  49.2 | 16.21
Output  | 0          | 0          | 0          |   0.0 |  0.00
Modify  | 2.1717e-05 | 0.0029899  | 0.0063858  |   2.6 |  0.14
Other   |            | 0.2286     |            |       | 10.89

Nlocal:        2776.45 ave        3956 max           0 min
Histogram: 8 4 4 0 4 12 8 0 30 34
Nghost:        3879.12 ave        5424 max         232 min
Histogram: 8 0 8 0 16 0 8 8 16 40
Neighs:        79213.5 ave      115317 max           0 min
Histogram: 8 4 4 0 10 6 8 8 24 32

Total # of neighbors = 8238203
Ave neighs/atom = 28.530474
Neighbor list builds = 0
Dangerous builds = 0
The dot product: -2.72185635846416e-07
Setting atom values ...
  1 settings made for x
  1 settings made for y
  1 settings made for z
Setting up cg style minimization ...
  Unit style    : metal
  Current step  : 2319
Per MPI rank memory allocation (min/avg/max) = 5.441 | 5.816 | 6.074 Mbytes
Step PotEng KinEng TotEng v_fx v_fy v_fz 
    2319   -1152448.9            0   -1152448.9  0.083845715  0.040517988 0.0044015907 
    2494   -1152448.9            0   -1152448.9 -2.492115e-05 -3.7102318e-06 -2.0861515e-06 
Loop time of 2.03292 on 104 procs for 175 steps with 288751 atoms

99.9% CPU use with 104 MPI tasks x 1 OpenMP threads

Minimization stats:
  Stopping criterion = energy tolerance
  Energy initial, next-to-last, final = 
     -1152448.94029875  -1152448.94242323  -1152448.94242323
  Force two-norm initial, final = 0.21228987 0.00013444814
  Force max component initial, final = 0.095420829 2.9167395e-05
  Final line search alpha, max atom move = 1.0000000 2.9167395e-05
  Iterations, force evaluations = 175 350

MPI task timing breakdown:
Section |  min time  |  avg time  |  max time  |%varavg| %total
---------------------------------------------------------------
Pair    | 0.53444    | 1.4722     | 1.9236     |  32.8 | 72.42
Neigh   | 0          | 0          | 0          |   0.0 |  0.00
Comm    | 0.031278   | 0.33341    | 0.9963     |  48.1 | 16.40
Output  | 0          | 0          | 0          |   0.0 |  0.00
Modify  | 2.1136e-05 | 0.0028789  | 0.0061518  |   2.5 |  0.14
Other   |            | 0.2244     |            |       | 11.04

Nlocal:        2776.45 ave        3957 max           0 min
Histogram: 8 4 4 0 4 12 8 2 28 34
Nghost:        3879.14 ave        5424 max         232 min
Histogram: 8 0 8 0 16 0 8 8 16 40
Neighs:        79213.5 ave      115358 max           0 min
Histogram: 8 4 4 0 10 6 8 8 24 32

Total # of neighbors = 8238206
Ave neighs/atom = 28.530485
Neighbor list builds = 0
Dangerous builds = 0
The dot product: -2.01992486475849e-07
Setting atom values ...
  1 settings made for x
  1 settings made for y
  1 settings made for z
Setting up cg style minimization ...
  Unit style    : metal
  Current step  : 2494
Per MPI rank memory allocation (min/avg/max) = 5.441 | 5.816 | 6.074 Mbytes
Step PotEng KinEng TotEng v_fx v_fy v_fz 
    2494   -1152448.9            0   -1152448.9  0.084494949  0.041540327  0.001272704 
    2671   -1152448.9            0   -1152448.9 -2.1728579e-05 -1.97408e-06 -1.2560864e-06 
Loop time of 2.0482 on 104 procs for 177 steps with 288751 atoms

99.9% CPU use with 104 MPI tasks x 1 OpenMP threads

Minimization stats:
  Stopping criterion = energy tolerance
  Energy initial, next-to-last, final = 
     -1152448.93429221  -1152448.93632328  -1152448.93632328
  Force two-norm initial, final = 0.20990662 0.00012541366
  Force max component initial, final = 0.091389552 2.1728579e-05
  Final line search alpha, max atom move = 1.0000000 2.1728579e-05
  Iterations, force evaluations = 177 354

MPI task timing breakdown:
Section |  min time  |  avg time  |  max time  |%varavg| %total
---------------------------------------------------------------
Pair    | 0.54341    | 1.487      | 1.9375     |  32.9 | 72.60
Neigh   | 0          | 0          | 0          |   0.0 |  0.00
Comm    | 0.034917   | 0.33158    | 1.0072     |  48.8 | 16.19
Output  | 0          | 0          | 0          |   0.0 |  0.00
Modify  | 2.1306e-05 | 0.0029095  | 0.0061895  |   2.5 |  0.14
Other   |            | 0.2267     |            |       | 11.07

Nlocal:        2776.45 ave        3957 max           0 min
Histogram: 8 4 4 0 4 12 8 2 28 34
Nghost:        3879.16 ave        5424 max         232 min
Histogram: 8 0 8 0 16 0 8 8 16 40
Neighs:        79213.5 ave      115358 max           0 min
Histogram: 8 4 4 0 10 6 8 8 24 32

Total # of neighbors = 8238203
Ave neighs/atom = 28.530474
Neighbor list builds = 0
Dangerous builds = 0
The dot product: -1.48162597207309e-07
Setting atom values ...
  1 settings made for x
  1 settings made for y
  1 settings made for z
Setting up cg style minimization ...
  Unit style    : metal
  Current step  : 2671
Per MPI rank memory allocation (min/avg/max) = 5.441 | 5.816 | 6.074 Mbytes
Step PotEng KinEng TotEng v_fx v_fy v_fz 
    2671   -1152448.9            0   -1152448.9  0.083804447  0.040587172 -0.0012535275 
    2853   -1152448.9            0   -1152448.9 2.6528924e-05 4.5237206e-06 6.1314186e-07 
Loop time of 2.14389 on 104 procs for 182 steps with 288751 atoms

99.9% CPU use with 104 MPI tasks x 1 OpenMP threads

Minimization stats:
  Stopping criterion = energy tolerance
  Energy initial, next-to-last, final = 
     -1152448.92740025   -1152448.9293311   -1152448.9293311
  Force two-norm initial, final = 0.20719066 9.2630516e-05
  Force max component initial, final = 0.087869629 3.0914299e-05
  Final line search alpha, max atom move = 1.0000000 3.0914299e-05
  Iterations, force evaluations = 182 364

MPI task timing breakdown:
Section |  min time  |  avg time  |  max time  |%varavg| %total
---------------------------------------------------------------
Pair    | 0.5559     | 1.5344     | 2.0145     |  33.4 | 71.57
Neigh   | 0          | 0          | 0          |   0.0 |  0.00
Comm    | 0.038299   | 0.34768    | 1.0449     |  49.1 | 16.22
Output  | 0          | 0          | 0          |   0.0 |  0.00
Modify  | 2.1971e-05 | 0.0029922  | 0.0064217  |   2.6 |  0.14
Other   |            | 0.2588     |            |       | 12.07

Nlocal:        2776.45 ave        3957 max           0 min
Histogram: 8 4 4 0 4 12 8 2 28 34
Nghost:        3879.14 ave        5424 max         232 min
Histogram: 8 0 8 0 16 0 8 8 16 40
Neighs:        79213.5 ave      115362 max           0 min
Histogram: 8 4 4 0 10 6 8 8 24 32

Total # of neighbors = 8238200
Ave neighs/atom = 28.530464
Neighbor list builds = 0
Dangerous builds = 0
The dot product: 1.71221899110234e-07
Setting atom values ...
  1 settings made for x
  1 settings made for y
  1 settings made for z
Setting up cg style minimization ...
  Unit style    : metal
  Current step  : 2853
Per MPI rank memory allocation (min/avg/max) = 5.441 | 5.816 | 6.074 Mbytes
Step PotEng KinEng TotEng v_fx v_fy v_fz 
    2853   -1152448.9            0   -1152448.9  0.083111329  0.031294535 -0.0022152582 
    3000   -1152448.9            0   -1152448.9 -2.4158769e-05 -4.2889753e-06 -1.7268203e-09 
    3146   -1152448.9            0   -1152448.9 1.4258591e-07 3.3914167e-08 -1.1448207e-09 
Loop time of 3.3752 on 104 procs for 293 steps with 288751 atoms

99.9% CPU use with 104 MPI tasks x 1 OpenMP threads

Minimization stats:
  Stopping criterion = energy tolerance
  Energy initial, next-to-last, final = 
     -1152448.91933743  -1152448.92121337  -1152448.92121337
  Force two-norm initial, final = 0.20341892 2.0482535e-06
  Force max component initial, final = 0.084745898 1.7898590e-07
  Final line search alpha, max atom move = 1.0000000 1.7898590e-07
  Iterations, force evaluations = 293 586

MPI task timing breakdown:
Section |  min time  |  avg time  |  max time  |%varavg| %total
---------------------------------------------------------------
Pair    | 0.89586    | 2.4562     | 3.202      |  42.2 | 72.77
Neigh   | 0          | 0          | 0          |   0.0 |  0.00
Comm    | 0.052787   | 0.54788    | 1.6519     |  62.7 | 16.23
Output  | 0.00010296 | 0.00010657 | 0.00026775 |   0.0 |  0.00
Modify  | 3.5307e-05 | 0.0048038  | 0.010251   |   3.3 |  0.14
Other   |            | 0.3662     |            |       | 10.85

Nlocal:        2776.45 ave        3957 max           0 min
Histogram: 8 4 4 0 4 12 8 2 28 34
Nghost:        3879.14 ave        5424 max         232 min
Histogram: 8 0 8 0 16 0 8 8 16 40
Neighs:        79213.5 ave      115363 max           0 min
Histogram: 8 4 4 0 10 6 8 8 24 32

Total # of neighbors = 8238200
Ave neighs/atom = 28.530464
Neighbor list builds = 0
Dangerous builds = 0
The dot product: 7.90207332897693e-10
Setting atom values ...
  1 settings made for x
  1 settings made for y
  1 settings made for z
Setting up cg style minimization ...
  Unit style    : metal
  Current step  : 3146
Per MPI rank memory allocation (min/avg/max) = 5.441 | 5.816 | 6.074 Mbytes
Step PotEng KinEng TotEng v_fx v_fy v_fz 
    3146   -1152448.9            0   -1152448.9   0.08256746  0.022953939 -0.0025958805 
    3318   -1152448.9            0   -1152448.9 2.9396082e-05 4.1575562e-06 -3.6093924e-07 
Loop time of 2.01058 on 104 procs for 172 steps with 288751 atoms

99.9% CPU use with 104 MPI tasks x 1 OpenMP threads

Minimization stats:
  Stopping criterion = energy tolerance
  Energy initial, next-to-last, final = 
     -1152448.90991048  -1152448.91177858  -1152448.91177858
  Force two-norm initial, final = 0.20120679 0.00013609001
  Force max component initial, final = 0.083194459 5.3032495e-05
  Final line search alpha, max atom move = 1.0000000 5.3032495e-05
  Iterations, force evaluations = 172 344

MPI task timing breakdown:
Section |  min time  |  avg time  |  max time  |%varavg| %total
---------------------------------------------------------------
Pair    | 0.52422    | 1.4503     | 1.9012     |  32.4 | 72.13
Neigh   | 0          | 0          | 0          |   0.0 |  0.00
Comm    | 0.032045   | 0.32616    | 0.98267    |  47.8 | 16.22
Output  | 0          | 0          | 0          |   0.0 |  0.00
Modify  | 2.1213e-05 | 0.0028305  | 0.0060513  |   2.5 |  0.14
Other   |            | 0.2313     |            |       | 11.50

Nlocal:        2776.45 ave        3957 max           0 min
Histogram: 8 4 4 0 4 12 8 2 28 34
Nghost:        3879.14 ave        5424 max         232 min
Histogram: 8 0 8 0 16 0 8 8 16 40
Neighs:        79213.4 ave      115363 max           0 min
Histogram: 8 4 4 0 10 6 8 8 24 32

Total # of neighbors = 8238198
Ave neighs/atom = 28.530457
Neighbor list builds = 0
Dangerous builds = 0
The dot product: 1.33913613114466e-07
Setting atom values ...
  1 settings made for x
  1 settings made for y
  1 settings made for z
Setting up cg style minimization ...
  Unit style    : metal
  Current step  : 3318
Per MPI rank memory allocation (min/avg/max) = 5.441 | 5.816 | 6.074 Mbytes
Step PotEng KinEng TotEng v_fx v_fy v_fz 
    3318   -1152448.9            0   -1152448.9  0.082257527  0.018716742 -0.0031426463 
    3482   -1152448.9            0   -1152448.9 -2.3910905e-05 -5.6147062e-06 9.3814801e-07 
Loop time of 1.91708 on 104 procs for 164 steps with 288751 atoms

99.9% CPU use with 104 MPI tasks x 1 OpenMP threads

Minimization stats:
  Stopping criterion = energy tolerance
  Energy initial, next-to-last, final = 
     -1152448.89912021  -1152448.90098468  -1152448.90098468
  Force two-norm initial, final = 0.1999962 0.00015072932
  Force max component initial, final = 0.083294709 2.3910905e-05
  Final line search alpha, max atom move = 1.0000000 2.3910905e-05
  Iterations, force evaluations = 164 328

MPI task timing breakdown:
Section |  min time  |  avg time  |  max time  |%varavg| %total
---------------------------------------------------------------
Pair    | 0.50296    | 1.382      | 1.8085     |  31.8 | 72.09
Neigh   | 0          | 0          | 0          |   0.0 |  0.00
Comm    | 0.035798   | 0.31178    | 0.93671    |  46.4 | 16.26
Output  | 0          | 0          | 0          |   0.0 |  0.00
Modify  | 1.9775e-05 | 0.0026985  | 0.0057401  |   2.4 |  0.14
Other   |            | 0.2206     |            |       | 11.50

Nlocal:        2776.45 ave        3957 max           0 min
Histogram: 8 4 4 0 4 12 8 2 28 34
Nghost:        3879.10 ave        5424 max         232 min
Histogram: 8 0 8 0 16 0 8 8 16 40
Neighs:        79213.5 ave      115366 max           0 min
Histogram: 8 4 4 0 10 6 8 8 24 32

Total # of neighbors = 8238199
Ave neighs/atom = 28.530461
Neighbor list builds = 0
Dangerous builds = 0
The dot product: -8.89143285754684e-08
Setting atom values ...
  1 settings made for x
  1 settings made for y
  1 settings made for z
Setting up cg style minimization ...
  Unit style    : metal
  Current step  : 3482
Per MPI rank memory allocation (min/avg/max) = 5.441 | 5.816 | 6.074 Mbytes
Step PotEng KinEng TotEng v_fx v_fy v_fz 
    3482   -1152448.9            0   -1152448.9  0.081437409  0.015748432 -0.0035814726 
    3670   -1152448.9            0   -1152448.9 -1.8902507e-05 -3.1160173e-06 7.5526956e-07 
Loop time of 2.18322 on 104 procs for 188 steps with 288751 atoms

99.9% CPU use with 104 MPI tasks x 1 OpenMP threads

Minimization stats:
  Stopping criterion = energy tolerance
  Energy initial, next-to-last, final = 
     -1152448.88698065  -1152448.88887054  -1152448.88887054
  Force two-norm initial, final = 0.19906625 0.00010347369
  Force max component initial, final = 0.084896979 3.8732814e-05
  Final line search alpha, max atom move = 1.0000000 3.8732814e-05
  Iterations, force evaluations = 188 376

MPI task timing breakdown:
Section |  min time  |  avg time  |  max time  |%varavg| %total
---------------------------------------------------------------
Pair    | 0.57465    | 1.5819     | 2.0599     |  33.9 | 72.46
Neigh   | 0          | 0          | 0          |   0.0 |  0.00
Comm    | 0.032635   | 0.35334    | 1.0677     |  50.3 | 16.18
Output  | 0          | 0          | 0          |   0.0 |  0.00
Modify  | 2.2688e-05 | 0.0030937  | 0.0066304  |   2.6 |  0.14
Other   |            | 0.2449     |            |       | 11.22

Nlocal:        2776.45 ave        3957 max           0 min
Histogram: 8 4 4 0 4 12 8 2 28 34
Nghost:        3879.09 ave        5424 max         232 min
Histogram: 8 0 8 0 16 0 8 8 16 40
Neighs:        79213.4 ave      115370 max           0 min
Histogram: 8 4 4 0 10 6 8 8 24 32

Total # of neighbors = 8238198
Ave neighs/atom = 28.530457
Neighbor list builds = 0
Dangerous builds = 0
[...]
Histogram: 8 0 8 0 16 0 8 8 16 40
Neighs:        79213.4 ave      114237 max           0 min
Histogram: 8 4 4 0 8 8 8 8 18 38

Total # of neighbors = 8238195
Ave neighs/atom = 28.530447
Neighbor list builds = 0
Dangerous builds = 0
The dot product: -8.01274686462467e-08
Setting atom values ...
  1 settings made for x
  1 settings made for y
  1 settings made for z
Setting up cg style minimization ...
  Unit style    : metal
  Current step  : 27910
Per MPI rank memory allocation (min/avg/max) = 5.441 | 5.816 | 6.074 Mbytes
Step PotEng KinEng TotEng v_fx v_fy v_fz 
   27910   -1152449.4            0   -1152449.4 -3.4604905e-05 -0.030162412  0.031524522 
   28000   -1152449.4            0   -1152449.4 -0.00016534896 0.00011455817 -1.0629226e-05 
   28081   -1152449.4            0   -1152449.4 7.1294446e-05 1.7184692e-05 -6.4952628e-05 
Loop time of 1.95194 on 104 procs for 171 steps with 288751 atoms

99.9% CPU use with 104 MPI tasks x 1 OpenMP threads

Minimization stats:
  Stopping criterion = energy tolerance
  Energy initial, next-to-last, final = 
     -1152449.41258466  -1152449.41409622  -1152449.41409622
  Force two-norm initial, final = 0.17773503 0.00024157907
  Force max component initial, final = 0.081513551 7.1294446e-05
  Final line search alpha, max atom move = 1.0000000 7.1294446e-05
  Iterations, force evaluations = 171 342

MPI task timing breakdown:
Section |  min time  |  avg time  |  max time  |%varavg| %total
---------------------------------------------------------------
Pair    | 0.5206     | 1.4324     | 1.8479     |  32.2 | 73.38
Neigh   | 0          | 0          | 0          |   0.0 |  0.00
Comm    | 0.029904   | 0.31916    | 0.96714    |  48.0 | 16.35
Output  | 9.5707e-05 | 0.00010502 | 0.00024294 |   0.0 |  0.01
Modify  | 2.0895e-05 | 0.0028188  | 0.0060888  |   2.5 |  0.14
Other   |            | 0.1975     |            |       | 10.12

Nlocal:        2776.45 ave        3930 max           0 min
Histogram: 8 4 4 0 4 12 8 0 24 40
Nghost:        3879.55 ave        5424 max         232 min
Histogram: 8 0 8 0 16 0 8 8 16 40
Neighs:        79213.5 ave      114234 max           0 min
Histogram: 8 4 4 0 8 8 8 8 18 38

Total # of neighbors = 8238199
Ave neighs/atom = 28.530461
Neighbor list builds = 0
Dangerous builds = 0
The dot product: -5.91587268181277e-08
Setting atom values ...
  1 settings made for x
  1 settings made for y
  1 settings made for z
Setting up cg style minimization ...
  Unit style    : metal
  Current step  : 28081
Per MPI rank memory allocation (min/avg/max) = 5.441 | 5.816 | 6.074 Mbytes
Step PotEng KinEng TotEng v_fx v_fy v_fz 
   28081   -1152449.4            0   -1152449.4 -0.0090349522 -0.030582476  0.037931055 
   28262   -1152449.4            0   -1152449.4 2.5503809e-05 -8.0635345e-06 -8.3893371e-06 
Loop time of 2.08988 on 104 procs for 181 steps with 288751 atoms

99.9% CPU use with 104 MPI tasks x 1 OpenMP threads

Minimization stats:
  Stopping criterion = energy tolerance
  Energy initial, next-to-last, final = 
     -1152449.41344475  -1152449.41498207  -1152449.41498207
  Force two-norm initial, final = 0.17940627 0.00015679546
  Force max component initial, final = 0.080882144 2.5503809e-05
  Final line search alpha, max atom move = 1.0000000 2.5503809e-05
  Iterations, force evaluations = 181 362

MPI task timing breakdown:
Section |  min time  |  avg time  |  max time  |%varavg| %total
---------------------------------------------------------------
Pair    | 0.55632    | 1.5222     | 1.977      |  33.2 | 72.84
Neigh   | 0          | 0          | 0          |   0.0 |  0.00
Comm    | 0.029811   | 0.34421    | 1.049      |  49.1 | 16.47
Output  | 0          | 0          | 0          |   0.0 |  0.00
Modify  | 2.174e-05  | 0.0029859  | 0.006404   |   2.6 |  0.14
Other   |            | 0.2205     |            |       | 10.55

Nlocal:        2776.45 ave        3930 max           0 min
Histogram: 8 4 4 0 4 12 8 1 23 40
Nghost:        3879.59 ave        5424 max         232 min
Histogram: 8 0 8 0 16 0 8 8 16 40
Neighs:        79213.4 ave      114218 max           0 min
Histogram: 8 4 4 0 8 8 8 8 18 38

Total # of neighbors = 8238196
Ave neighs/atom = 28.530450
Neighbor list builds = 0
Dangerous builds = 0
The dot product: -3.48302539497785e-08
Setting atom values ...
  1 settings made for x
  1 settings made for y
  1 settings made for z
Setting up cg style minimization ...
  Unit style    : metal
  Current step  : 28262
Per MPI rank memory allocation (min/avg/max) = 5.441 | 5.816 | 6.074 Mbytes
Step PotEng KinEng TotEng v_fx v_fy v_fz 
   28262   -1152449.4            0   -1152449.4 -0.014978025 -0.031933626  0.043330159 
   28448   -1152449.4            0   -1152449.4 -1.561422e-05 -7.5918608e-06 1.826471e-05 
Loop time of 2.12473 on 104 procs for 186 steps with 288751 atoms

99.9% CPU use with 104 MPI tasks x 1 OpenMP threads

Minimization stats:
  Stopping criterion = energy tolerance
  Energy initial, next-to-last, final = 
     -1152449.41254757  -1152449.41411033  -1152449.41411033
  Force two-norm initial, final = 0.18131772 0.00012737428
  Force max component initial, final = 0.080079089 2.1803510e-05
  Final line search alpha, max atom move = 1.0000000 2.1803510e-05
  Iterations, force evaluations = 186 372

MPI task timing breakdown:
Section |  min time  |  avg time  |  max time  |%varavg| %total
---------------------------------------------------------------
Pair    | 0.56906    | 1.5584     | 2.0123     |  33.6 | 73.35
Neigh   | 0          | 0          | 0          |   0.0 |  0.00
Comm    | 0.032954   | 0.34729    | 1.0536     |  50.1 | 16.34
Output  | 0          | 0          | 0          |   0.0 |  0.00
Modify  | 2.2743e-05 | 0.0030667  | 0.0065969  |   2.6 |  0.14
Other   |            | 0.216      |            |       | 10.16

Nlocal:        2776.45 ave        3930 max           0 min
Histogram: 8 4 4 0 4 12 8 2 22 40
Nghost:        3879.59 ave        5424 max         232 min
Histogram: 8 0 8 0 16 0 8 8 16 40
Neighs:        79213.5 ave      114217 max           0 min
Histogram: 8 4 4 0 8 8 8 8 18 38

Total # of neighbors = 8238199
Ave neighs/atom = 28.530461
Neighbor list builds = 0
Dangerous builds = 0
The dot product: 1.01176920584768e-07
Setting atom values ...
  1 settings made for x
  1 settings made for y
  1 settings made for z
Setting up cg style minimization ...
  Unit style    : metal
  Current step  : 28448
Per MPI rank memory allocation (min/avg/max) = 5.441 | 5.816 | 6.074 Mbytes
Step PotEng KinEng TotEng v_fx v_fy v_fz 
   28448   -1152449.4            0   -1152449.4 -0.013766449 -0.032600289  0.043333604 
   28683   -1152449.4            0   -1152449.4 5.4229793e-06 -5.7054953e-08 -3.5350776e-06 
Loop time of 2.70122 on 104 procs for 235 steps with 288751 atoms

99.9% CPU use with 104 MPI tasks x 1 OpenMP threads

Minimization stats:
  Stopping criterion = energy tolerance
  Energy initial, next-to-last, final = 
     -1152449.41002825   -1152449.4115689   -1152449.4115689
  Force two-norm initial, final = 0.18009935 1.8749822e-05
  Force max component initial, final = 0.079126255 5.4229793e-06
  Final line search alpha, max atom move = 1.0000000 5.4229793e-06
  Iterations, force evaluations = 235 470

MPI task timing breakdown:
Section |  min time  |  avg time  |  max time  |%varavg| %total
---------------------------------------------------------------
Pair    | 0.72026    | 1.9768     | 2.5566     |  37.7 | 73.18
Neigh   | 0          | 0          | 0          |   0.0 |  0.00
Comm    | 0.041075   | 0.44322    | 1.3511     |  56.4 | 16.41
Output  | 0          | 0          | 0          |   0.0 |  0.00
Modify  | 2.8414e-05 | 0.0038715  | 0.0083839  |   2.9 |  0.14
Other   |            | 0.2773     |            |       | 10.27

Nlocal:        2776.45 ave        3930 max           0 min
Histogram: 8 4 4 0 4 12 8 2 22 40
Nghost:        3879.59 ave        5424 max         232 min
Histogram: 8 0 8 0 16 0 8 8 16 40
Neighs:        79213.5 ave      114216 max           0 min
Histogram: 8 4 4 0 8 8 8 8 18 38

Total # of neighbors = 8238202
Ave neighs/atom = 28.530471
Neighbor list builds = 0
Dangerous builds = 0
The dot product: -2.2721264796703e-08
Setting atom values ...
  1 settings made for x
  1 settings made for y
  1 settings made for z
Setting up cg style minimization ...
  Unit style    : metal
  Current step  : 28683
Per MPI rank memory allocation (min/avg/max) = 5.441 | 5.816 | 6.074 Mbytes
Step PotEng KinEng TotEng v_fx v_fy v_fz 
   28683   -1152449.4            0   -1152449.4 -0.010693926 -0.033326851  0.042160993 
   28869   -1152449.4            0   -1152449.4 -8.7225005e-06 -1.5117545e-05 2.1699788e-05 
Loop time of 2.12308 on 104 procs for 186 steps with 288751 atoms

99.9% CPU use with 104 MPI tasks x 1 OpenMP threads

Minimization stats:
  Stopping criterion = energy tolerance
  Energy initial, next-to-last, final = 
      -1152449.4058463  -1152449.40734681  -1152449.40734681
  Force two-norm initial, final = 0.17785041 0.00013071737
  Force max component initial, final = 0.078132791 2.1699788e-05
  Final line search alpha, max atom move = 1.0000000 2.1699788e-05
  Iterations, force evaluations = 186 372

MPI task timing breakdown:
Section |  min time  |  avg time  |  max time  |%varavg| %total
---------------------------------------------------------------
Pair    | 0.56765    | 1.5581     | 2.0084     |  33.7 | 73.39
Neigh   | 0          | 0          | 0          |   0.0 |  0.00
Comm    | 0.032503   | 0.34748    | 1.056      |  50.3 | 16.37
Output  | 0          | 0          | 0          |   0.0 |  0.00
Modify  | 2.1971e-05 | 0.0030643  | 0.0065591  |   2.6 |  0.14
Other   |            | 0.2144     |            |       | 10.10

Nlocal:        2776.45 ave        3930 max           0 min
Histogram: 8 4 4 0 4 12 8 2 22 40
Nghost:        3879.66 ave        5424 max         232 min
Histogram: 8 0 8 0 16 0 8 8 16 40
Neighs:        79213.5 ave      114215 max           0 min
Histogram: 8 4 4 0 8 8 8 8 18 38

Total # of neighbors = 8238202
Ave neighs/atom = 28.530471
Neighbor list builds = 0
Dangerous builds = 0
The dot product: 1.01430997270599e-07
Setting atom values ...
  1 settings made for x
  1 settings made for y
  1 settings made for z
Setting up cg style minimization ...
  Unit style    : metal
  Current step  : 28869
Per MPI rank memory allocation (min/avg/max) = 5.441 | 5.816 | 6.074 Mbytes
Step PotEng KinEng TotEng v_fx v_fy v_fz 
   28869   -1152449.4            0   -1152449.4 -0.0067403098 -0.034399522   0.04075211 
   29000   -1152449.4            0   -1152449.4 3.7208461e-05 5.2014975e-05 -7.9641778e-05 
   29025   -1152449.4            0   -1152449.4 -8.0707709e-05 2.2764273e-05 2.9842536e-05 
Loop time of 1.81858 on 104 procs for 156 steps with 288751 atoms

99.9% CPU use with 104 MPI tasks x 1 OpenMP threads

Minimization stats:
  Stopping criterion = energy tolerance
  Energy initial, next-to-last, final = 
     -1152449.40000095  -1152449.40145275  -1152449.40145275
  Force two-norm initial, final = 0.175343 0.00032922883
  Force max component initial, final = 0.077143746 8.0707709e-05
  Final line search alpha, max atom move = 1.0000000 8.0707709e-05
  Iterations, force evaluations = 156 312

MPI task timing breakdown:
Section |  min time  |  avg time  |  max time  |%varavg| %total
---------------------------------------------------------------
Pair    | 0.47916    | 1.3141     | 1.7045     |  30.7 | 72.26
Neigh   | 0          | 0          | 0          |   0.0 |  0.00
Comm    | 0.030656   | 0.29641    | 0.89433    |  46.0 | 16.30
Output  | 0.0001032  | 0.00011174 | 0.00027963 |   0.0 |  0.01
Modify  | 1.9084e-05 | 0.0025699  | 0.0055097  |   2.4 |  0.14
Other   |            | 0.2054     |            |       | 11.30

Nlocal:        2776.45 ave        3930 max           0 min
Histogram: 8 4 4 0 4 12 8 2 22 40
Nghost:        3879.70 ave        5424 max         232 min
Histogram: 8 0 8 0 16 0 8 8 16 40
Neighs:        79213.5 ave      114208 max           0 min
Histogram: 8 4 4 0 8 8 8 8 18 38

Total # of neighbors = 8238201
Ave neighs/atom = 28.530467
Neighbor list builds = 0
Dangerous builds = 0
The dot product: 1.65972075571976e-07
Setting atom values ...
  1 settings made for x
  1 settings made for y
  1 settings made for z
Setting up cg style minimization ...
  Unit style    : metal
  Current step  : 29025
Per MPI rank memory allocation (min/avg/max) = 5.441 | 5.816 | 6.074 Mbytes
Step PotEng KinEng TotEng v_fx v_fy v_fz 
   29025   -1152449.4            0   -1152449.4 -0.0019683328 -0.035733199  0.039059818 
   29179   -1152449.4            0   -1152449.4 -6.7524324e-05 -4.0633651e-05 8.8075523e-05 
Loop time of 1.77722 on 104 procs for 154 steps with 288751 atoms

99.9% CPU use with 104 MPI tasks x 1 OpenMP threads

Minimization stats:
  Stopping criterion = energy tolerance
  Energy initial, next-to-last, final = 
     -1152449.39253006  -1152449.39392759  -1152449.39392759
  Force two-norm initial, final = 0.17286592 0.0003378386
  Force max component initial, final = 0.076483175 8.8075523e-05
  Final line search alpha, max atom move = 1.0000000 8.8075523e-05
  Iterations, force evaluations = 154 308

MPI task timing breakdown:
Section |  min time  |  avg time  |  max time  |%varavg| %total
---------------------------------------------------------------
Pair    | 0.47181    | 1.295      | 1.662      |  30.5 | 72.87
Neigh   | 0          | 0          | 0          |   0.0 |  0.00
Comm    | 0.0295     | 0.29117    | 0.8746     |  45.4 | 16.38
Output  | 0          | 0          | 0          |   0.0 |  0.00
Modify  | 1.8453e-05 | 0.0025354  | 0.0054656  |   2.4 |  0.14
Other   |            | 0.1885     |            |       | 10.61

Nlocal:        2776.45 ave        3930 max           0 min
Histogram: 8 4 4 0 4 12 8 2 22 40
Nghost:        3879.68 ave        5423 max         232 min
Histogram: 8 0 8 0 16 0 8 8 16 40
Neighs:        79213.5 ave      114208 max           0 min
Histogram: 8 4 4 0 8 8 8 8 18 38

Total # of neighbors = 8238201
Ave neighs/atom = 28.530467
Neighbor list builds = 0
Dangerous builds = 0
The dot product: 3.63979664847451e-07
Setting atom values ...
  1 settings made for x
  1 settings made for y
  1 settings made for z
Setting up cg style minimization ...
  Unit style    : metal
  Current step  : 29179
Per MPI rank memory allocation (min/avg/max) = 5.441 | 5.816 | 6.074 Mbytes
Step PotEng KinEng TotEng v_fx v_fy v_fz 
   29179   -1152449.4            0   -1152449.4 0.0045928019 -0.037748809  0.036881174 
   29383   -1152449.4            0   -1152449.4 -1.5203617e-06 1.7676485e-06 -8.5235272e-07 
Loop time of 2.33737 on 104 procs for 204 steps with 288751 atoms

99.9% CPU use with 104 MPI tasks x 1 OpenMP threads

Minimization stats:
  Stopping criterion = energy tolerance
  Energy initial, next-to-last, final = 
     -1152449.38351174  -1152449.38485376  -1152449.38485376
  Force two-norm initial, final = 0.17086543 7.3873565e-05
  Force max component initial, final = 0.077037018 6.7366890e-06
  Final line search alpha, max atom move = 1.0000000 6.7366890e-06
  Iterations, force evaluations = 204 408

MPI task timing breakdown:
Section |  min time  |  avg time  |  max time  |%varavg| %total
---------------------------------------------------------------
Pair    | 0.62286    | 1.7127     | 2.2108     |  35.2 | 73.27
Neigh   | 0          | 0          | 0          |   0.0 |  0.00
Comm    | 0.035837   | 0.38275    | 1.1647     |  52.4 | 16.38
Output  | 0          | 0          | 0          |   0.0 |  0.00
Modify  | 2.4393e-05 | 0.0033644  | 0.0072336  |   2.7 |  0.14
Other   |            | 0.2386     |            |       | 10.21

Nlocal:        2776.45 ave        3930 max           0 min
Histogram: 8 4 4 0 4 12 8 2 22 40
Nghost:        3879.72 ave        5424 max         232 min
Histogram: 8 0 8 0 16 0 8 8 16 40
Neighs:        79213.5 ave      114208 max           0 min
Histogram: 8 4 4 0 8 8 8 8 18 38

Total # of neighbors = 8238199
Ave neighs/atom = 28.530461
Neighbor list builds = 0
Dangerous builds = 0
The dot product: -5.70474594908068e-09
Setting atom values ...
  1 settings made for x
  1 settings made for y
  1 settings made for z
Setting up cg style minimization ...
  Unit style    : metal
  Current step  : 29383
Per MPI rank memory allocation (min/avg/max) = 5.441 | 5.816 | 6.074 Mbytes
Step PotEng KinEng TotEng v_fx v_fy v_fz 
   29383   -1152449.4            0   -1152449.4  0.014485406 -0.040681532  0.033440583 
   29584   -1152449.4            0   -1152449.4 9.0243495e-06 8.7385471e-06 -1.5325808e-05 
Loop time of 2.28847 on 104 procs for 201 steps with 288751 atoms

99.9% CPU use with 104 MPI tasks x 1 OpenMP threads

Minimization stats:
  Stopping criterion = energy tolerance
  Energy initial, next-to-last, final = 
     -1152449.37314849  -1152449.37447511  -1152449.37447511
  Force two-norm initial, final = 0.17044978 6.3334093e-05
  Force max component initial, final = 0.077280693 1.5325808e-05
  Final line search alpha, max atom move = 1.0000000 1.5325808e-05
  Iterations, force evaluations = 201 402

MPI task timing breakdown:
Section |  min time  |  avg time  |  max time  |%varavg| %total
---------------------------------------------------------------
Pair    | 0.6126     | 1.6822     | 2.1702     |  34.8 | 73.51
Neigh   | 0          | 0          | 0          |   0.0 |  0.00
Comm    | 0.036868   | 0.37398    | 1.1338     |  52.1 | 16.34
Output  | 0          | 0          | 0          |   0.0 |  0.00
Modify  | 2.4532e-05 | 0.0033149  | 0.0071396  |   2.7 |  0.14
Other   |            | 0.229      |            |       | 10.00

Nlocal:        2776.45 ave        3930 max           0 min
Histogram: 8 4 4 0 4 12 8 2 22 40
Nghost:        3879.72 ave        5423 max         232 min
Histogram: 8 0 8 0 16 0 8 8 16 40
Neighs:        79213.4 ave      114218 max           0 min
Histogram: 8 4 4 0 8 8 8 8 18 38

Total # of neighbors = 8238197
Ave neighs/atom = 28.530454
Neighbor list builds = 0
Dangerous builds = 0
The dot product: -4.18144893504104e-08
Setting atom values ...
  1 settings made for x
  1 settings made for y
  1 settings made for z
Setting up cg style minimization ...
  Unit style    : metal
  Current step  : 29584
Per MPI rank memory allocation (min/avg/max) = 5.441 | 5.816 | 6.074 Mbytes
Step PotEng KinEng TotEng v_fx v_fy v_fz 
   29584   -1152449.4            0   -1152449.4  0.026036567 -0.044201148  0.029560365 
   29687   -1152449.4            0   -1152449.4 -4.4097941e-06 1.2635777e-05 -1.0484345e-05 
Loop time of 1.19107 on 104 procs for 103 steps with 288751 atoms

99.9% CPU use with 104 MPI tasks x 1 OpenMP threads

Minimization stats:
  Stopping criterion = energy tolerance
  Energy initial, next-to-last, final = 
      -1152449.3619476  -1152449.36359303  -1152449.36359303
  Force two-norm initial, final = 0.17372479 0.00014504902
  Force max component initial, final = 0.077106516 1.3862676e-05
  Final line search alpha, max atom move = 1.0000000 1.3862676e-05
  Iterations, force evaluations = 103 206

MPI task timing breakdown:
Section |  min time  |  avg time  |  max time  |%varavg| %total
---------------------------------------------------------------
Pair    | 0.31776    | 0.86956    | 1.1296     |  25.1 | 73.01
Neigh   | 0          | 0          | 0          |   0.0 |  0.00
Comm    | 0.017193   | 0.19595    | 0.59644    |  37.4 | 16.45
Output  | 0          | 0          | 0          |   0.0 |  0.00
Modify  | 1.2654e-05 | 0.0017011  | 0.0036554  |   2.0 |  0.14
Other   |            | 0.1239     |            |       | 10.40

Nlocal:        2776.45 ave        3929 max           0 min
Histogram: 8 4 4 0 4 12 8 2 22 40
Nghost:        3879.70 ave        5423 max         232 min
Histogram: 8 0 8 0 16 0 8 8 16 40
Neighs:        79213.4 ave      114196 max           0 min
Histogram: 8 4 4 0 8 8 8 8 18 38

Total # of neighbors = 8238198
Ave neighs/atom = 28.530457
Neighbor list builds = 0
Dangerous builds = 0
The dot product: -1.51311740348565e-07
