LAMMPS (29 Oct 2020)
OMP_NUM_THREADS environment is not set. Defaulting to 1 thread. (../comm.cpp:94)
  using 1 OpenMP thread(s) per MPI task
OMP_NUM_THREADS environment is not set. Defaulting to 1 thread. (../comm.cpp:94)
  using 1 OpenMP thread(s) per MPI task
Reading data file ...
  orthogonal box = (-122.39241 -121.13707 -37.090501) to (122.39241 121.13707 37.090501)
  13 by 4 by 2 MPI processor grid
  reading atoms ...
  288751 atoms
  read_data CPU = 0.375 seconds
199981 atoms in group inner
88770 atoms in group outer
1 atoms in group carbon
Neighbor list info ...
  update every 1 steps, delay 0 steps, check yes
  max neighbors/atom: 2000, page size: 100000
  master list distance cutoff = 5.6
  ghost atom cutoff = 5.6
  binsize = 2.8, bins = 88 87 27
  1 neighbor lists, perpetual/occasional/extra = 1 0 0
  (1) pair eam/alloy, perpetual
      attributes: half, newton on
      pair build: half/bin/atomonly/newton
      stencil: half/bin/3d/newton
      bin: standard
Setting up cg style minimization ...
  Unit style    : metal
  Current step  : 0
Per MPI rank memory allocation (min/avg/max) = 5.441 | 5.816 | 6.074 Mbytes
Step v_fx v_fy v_fz PotEng KinEng TotEng 
       0   -1.5210659   -1.1234579   -2.5470969   -1152447.8            0   -1152447.8 
     178 -6.0447849e-07 -9.8548513e-07 1.385023e-05   -1152449.5            0   -1152449.5 
Loop time of 2.09344 on 104 procs for 178 steps with 288751 atoms

99.8% CPU use with 104 MPI tasks x 1 OpenMP threads

Minimization stats:
  Stopping criterion = energy tolerance
  Energy initial, next-to-last, final = 
     -1152447.78222789  -1152449.45035271  -1152449.45035271
  Force two-norm initial, final = 10.182390 4.7404966e-05
  Force max component initial, final = 4.5652578 1.3850230e-05
  Final line search alpha, max atom move = 1.0000000 1.3850230e-05
  Iterations, force evaluations = 178 355

MPI task timing breakdown:
Section |  min time  |  avg time  |  max time  |%varavg| %total
---------------------------------------------------------------
Pair    | 0.55308    | 1.4958     | 1.9367     |  32.6 | 71.45
Neigh   | 3.3551e-05 | 0.0087517  | 0.012751   |   3.9 |  0.42
Comm    | 0.035515   | 0.33949    | 1.0105     |  48.1 | 16.22
Output  | 0          | 0          | 0          |   0.0 |  0.00
Modify  | 2.1168e-05 | 0.0019254  | 0.0049095  |   2.7 |  0.09
Other   |            | 0.2475     |            |       | 11.82

Nlocal:        2776.45 ave        3961 max           0 min
Histogram: 8 4 4 0 6 10 8 2 28 34
Nghost:        3879.01 ave        5424 max         232 min
Histogram: 8 0 8 0 16 0 8 8 16 40
Neighs:        79213.5 ave      115455 max           0 min
Histogram: 8 4 4 0 10 6 8 8 24 32

Total # of neighbors = 8238207
Ave neighs/atom = 28.530488
Neighbor list builds = 3
Dangerous builds = 1
Setting atom values ...
  1 settings made for x
  1 settings made for y
  1 settings made for z
Setting up cg style minimization ...
  Unit style    : metal
  Current step  : 178
Per MPI rank memory allocation (min/avg/max) = 5.441 | 5.816 | 6.074 Mbytes
Step PotEng KinEng TotEng v_fx v_fy v_fz 
     178   -1152449.4            0   -1152449.4 -0.0077678213 0.0064519531 0.0012318435 
     285   -1152449.5            0   -1152449.5 1.8779668e-06 -2.8659759e-06 -4.4679892e-06 
Loop time of 1.28091 on 104 procs for 107 steps with 288751 atoms

99.9% CPU use with 104 MPI tasks x 1 OpenMP threads

Minimization stats:
  Stopping criterion = energy tolerance
  Energy initial, next-to-last, final = 
     -1152449.44945355   -1152449.4500628   -1152449.4500628
  Force two-norm initial, final = 0.11540296 0.00018747202
  Force max component initial, final = 0.051731472 4.4679892e-06
  Final line search alpha, max atom move = 1.0000000 4.4679892e-06
  Iterations, force evaluations = 107 214

MPI task timing breakdown:
Section |  min time  |  avg time  |  max time  |%varavg| %total
---------------------------------------------------------------
Pair    | 0.32315    | 0.90908    | 1.1843     |  25.8 | 70.97
Neigh   | 0          | 0          | 0          |   0.0 |  0.00
Comm    | 0.022007   | 0.2106     | 0.61873    |  36.8 | 16.44
Output  | 0          | 0          | 0          |   0.0 |  0.00
Modify  | 1.3909e-05 | 0.0017817  | 0.0038664  |   2.0 |  0.14
Other   |            | 0.1595     |            |       | 12.45

Nlocal:        2776.45 ave        3961 max           0 min
Histogram: 8 4 4 0 6 10 8 2 28 34
Nghost:        3879.01 ave        5425 max         232 min
Histogram: 8 0 8 0 16 0 8 8 16 40
Neighs:        79213.4 ave      115455 max           0 min
Histogram: 8 4 4 0 10 6 8 8 24 32

Total # of neighbors = 8238198
Ave neighs/atom = 28.530457
Neighbor list builds = 0
Dangerous builds = 0
Setting atom values ...
  1 settings made for x
  1 settings made for y
  1 settings made for z
Setting up cg style minimization ...
  Unit style    : metal
  Current step  : 285
Per MPI rank memory allocation (min/avg/max) = 5.441 | 5.816 | 6.074 Mbytes
Step PotEng KinEng TotEng v_fx v_fy v_fz 
     285   -1152449.4            0   -1152449.4 -0.018709707  0.018079644 0.0026872811 
     404   -1152449.4            0   -1152449.4 2.144181e-06 5.042173e-06 2.7698722e-05 
Loop time of 1.39797 on 104 procs for 119 steps with 288751 atoms

99.9% CPU use with 104 MPI tasks x 1 OpenMP threads

Minimization stats:
  Stopping criterion = energy tolerance
  Energy initial, next-to-last, final = 
     -1152449.44670588  -1152449.44838208  -1152449.44838208
  Force two-norm initial, final = 0.19213678 0.00020836632
  Force max component initial, final = 0.080035328 2.7698722e-05
  Final line search alpha, max atom move = 1.0000000 2.7698722e-05
  Iterations, force evaluations = 119 238

MPI task timing breakdown:
Section |  min time  |  avg time  |  max time  |%varavg| %total
---------------------------------------------------------------
Pair    | 0.36235    | 1.0035     | 1.3015     |  26.9 | 71.78
Neigh   | 0          | 0          | 0          |   0.0 |  0.00
Comm    | 0.021505   | 0.22818    | 0.68453    |  39.6 | 16.32
Output  | 0          | 0          | 0          |   0.0 |  0.00
Modify  | 1.4991e-05 | 0.0019795  | 0.0042565  |   2.1 |  0.14
Other   |            | 0.1643     |            |       | 11.75

Nlocal:        2776.45 ave        3961 max           0 min
Histogram: 8 4 4 0 6 10 8 2 28 34
Nghost:        3879.01 ave        5426 max         232 min
Histogram: 8 0 8 0 16 0 8 8 16 40
Neighs:        79213.5 ave      115455 max           0 min
Histogram: 8 4 4 0 10 6 8 8 24 32

Total # of neighbors = 8238199
Ave neighs/atom = 28.530461
Neighbor list builds = 0
Dangerous builds = 0
The dot product: -3.84719308471841e-08
Setting atom values ...
  1 settings made for x
  1 settings made for y
  1 settings made for z
Setting up cg style minimization ...
  Unit style    : metal
  Current step  : 404
Per MPI rank memory allocation (min/avg/max) = 5.441 | 5.816 | 6.074 Mbytes
Step PotEng KinEng TotEng v_fx v_fy v_fz 
     404   -1152449.4            0   -1152449.4 -0.023610991  0.026781963 0.0027445234 
     579   -1152449.4            0   -1152449.4 1.1646207e-06 5.1527807e-06 3.1733874e-05 
Loop time of 2.08836 on 104 procs for 175 steps with 288751 atoms

99.9% CPU use with 104 MPI tasks x 1 OpenMP threads

Minimization stats:
  Stopping criterion = energy tolerance
  Energy initial, next-to-last, final = 
     -1152449.44354944  -1152449.44522705  -1152449.44522705
  Force two-norm initial, final = 0.19235238 9.6600805e-05
  Force max component initial, final = 0.076115986 3.1733874e-05
  Final line search alpha, max atom move = 1.0000000 3.1733874e-05
  Iterations, force evaluations = 175 350

MPI task timing breakdown:
Section |  min time  |  avg time  |  max time  |%varavg| %total
---------------------------------------------------------------
Pair    | 0.52771    | 1.4828     | 1.9471     |  33.1 | 71.00
Neigh   | 0          | 0          | 0          |   0.0 |  0.00
Comm    | 0.032097   | 0.34614    | 1.0067     |  46.8 | 16.57
Output  | 0          | 0          | 0          |   0.0 |  0.00
Modify  | 2.3036e-05 | 0.0029105  | 0.0062229  |   2.5 |  0.14
Other   |            | 0.2565     |            |       | 12.28

Nlocal:        2776.45 ave        3961 max           0 min
Histogram: 8 4 4 0 6 10 8 2 28 34
Nghost:        3879.01 ave        5427 max         232 min
Histogram: 8 0 8 0 16 0 8 8 16 40
Neighs:        79213.5 ave      115455 max           0 min
Histogram: 8 4 4 0 10 6 8 8 24 32

Total # of neighbors = 8238201
Ave neighs/atom = 28.530467
Neighbor list builds = 0
Dangerous builds = 0
The dot product: -4.95732050397147e-08
Setting atom values ...
  1 settings made for x
  1 settings made for y
  1 settings made for z
Setting up cg style minimization ...
  Unit style    : metal
  Current step  : 579
Per MPI rank memory allocation (min/avg/max) = 5.441 | 5.816 | 6.074 Mbytes
Step PotEng KinEng TotEng v_fx v_fy v_fz 
     579   -1152449.4            0   -1152449.4 -0.025602432  0.033933675 0.0040977999 
     685   -1152449.4            0   -1152449.4 2.9896862e-06 9.3589033e-06 8.2251338e-05 
Loop time of 1.23647 on 104 procs for 106 steps with 288751 atoms

99.9% CPU use with 104 MPI tasks x 1 OpenMP threads

Minimization stats:
  Stopping criterion = energy tolerance
  Energy initial, next-to-last, final = 
     -1152449.43890953  -1152449.44057856  -1152449.44057856
  Force two-norm initial, final = 0.19192431 0.00024584358
  Force max component initial, final = 0.073472229 8.2251338e-05
  Final line search alpha, max atom move = 1.0000000 8.2251338e-05
  Iterations, force evaluations = 106 212

MPI task timing breakdown:
Section |  min time  |  avg time  |  max time  |%varavg| %total
---------------------------------------------------------------
Pair    | 0.32018    | 0.89084    | 1.1585     |  25.5 | 72.05
Neigh   | 0          | 0          | 0          |   0.0 |  0.00
Comm    | 0.019694   | 0.20119    | 0.60477    |  37.4 | 16.27
Output  | 0          | 0          | 0          |   0.0 |  0.00
Modify  | 1.365e-05  | 0.0017575  | 0.0037486  |   2.0 |  0.14
Other   |            | 0.1427     |            |       | 11.54

Nlocal:        2776.45 ave        3961 max           0 min
Histogram: 8 4 4 0 6 10 8 2 28 34
Nghost:        3879.01 ave        5427 max         232 min
Histogram: 8 0 8 0 16 0 8 8 16 40
Neighs:        79213.5 ave      115455 max           0 min
Histogram: 8 4 4 0 10 6 8 8 24 32

Total # of neighbors = 8238202
Ave neighs/atom = 28.530471
Neighbor list builds = 0
Dangerous builds = 0
The dot product: -1.40937292504619e-07
Setting atom values ...
  1 settings made for x
  1 settings made for y
  1 settings made for z
Setting up cg style minimization ...
  Unit style    : metal
  Current step  : 685
Per MPI rank memory allocation (min/avg/max) = 5.441 | 5.816 | 6.074 Mbytes
Step PotEng KinEng TotEng v_fx v_fy v_fz 
     685   -1152449.4            0   -1152449.4 -0.025931987  0.039473133 0.0062974769 
     822   -1152449.4            0   -1152449.4 -1.5068785e-07 -8.1470913e-07 -8.2793863e-06 
Loop time of 1.60071 on 104 procs for 137 steps with 288751 atoms

99.9% CPU use with 104 MPI tasks x 1 OpenMP threads

Minimization stats:
  Stopping criterion = energy tolerance
  Energy initial, next-to-last, final = 
     -1152449.43275223  -1152449.43440631  -1152449.43440631
  Force two-norm initial, final = 0.19103976 5.9740230e-05
  Force max component initial, final = 0.073862654 1.0702792e-05
  Final line search alpha, max atom move = 1.0000000 1.0702792e-05
  Iterations, force evaluations = 137 274

MPI task timing breakdown:
Section |  min time  |  avg time  |  max time  |%varavg| %total
---------------------------------------------------------------
Pair    | 0.41413    | 1.1561     | 1.5022     |  29.0 | 72.22
Neigh   | 0          | 0          | 0          |   0.0 |  0.00
Comm    | 0.026778   | 0.26032    | 0.77653    |  42.7 | 16.26
Output  | 0          | 0          | 0          |   0.0 |  0.00
Modify  | 1.7209e-05 | 0.0022738  | 0.0048792  |   2.2 |  0.14
Other   |            | 0.1821     |            |       | 11.37

Nlocal:        2776.45 ave        3961 max           0 min
Histogram: 8 4 4 0 6 10 8 2 28 34
Nghost:        3879.01 ave        5427 max         232 min
Histogram: 8 0 8 0 16 0 8 8 16 40
Neighs:        79213.5 ave      115455 max           0 min
Histogram: 8 4 4 0 10 6 8 8 24 32

Total # of neighbors = 8238200
Ave neighs/atom = 28.530464
Neighbor list builds = 0
Dangerous builds = 0
The dot product: 1.25050318008622e-08
Setting atom values ...
  1 settings made for x
  1 settings made for y
  1 settings made for z
Setting up cg style minimization ...
  Unit style    : metal
  Current step  : 822
Per MPI rank memory allocation (min/avg/max) = 5.441 | 5.816 | 6.074 Mbytes
Step PotEng KinEng TotEng v_fx v_fy v_fz 
     822   -1152449.4            0   -1152449.4 -0.025537269  0.043955944  0.009136145 
    1000   -1152449.4            0   -1152449.4 -6.1845782e-07 1.8587269e-06 8.395975e-06 
    1019   -1152449.4            0   -1152449.4 5.4689171e-08 2.9017929e-07 3.9361329e-06 
Loop time of 2.31016 on 104 procs for 197 steps with 288751 atoms

99.9% CPU use with 104 MPI tasks x 1 OpenMP threads

Minimization stats:
  Stopping criterion = linesearch alpha is zero
  Energy initial, next-to-last, final = 
     -1152449.42504412  -1152449.42667965  -1152449.42667965
  Force two-norm initial, final = 0.18988672 3.1209309e-05
  Force max component initial, final = 0.073446838 3.9361329e-06
  Final line search alpha, max atom move = 0.5 1.9680665e-06
  Iterations, force evaluations = 197 395

MPI task timing breakdown:
Section |  min time  |  avg time  |  max time  |%varavg| %total
---------------------------------------------------------------
Pair    | 0.59398    | 1.6569     | 2.1549     |  34.8 | 71.72
Neigh   | 0          | 0          | 0          |   0.0 |  0.00
Comm    | 0.040193   | 0.37572    | 1.1175     |  50.8 | 16.26
Output  | 0.00049982 | 0.00050787 | 0.0006572  |   0.0 |  0.02
Modify  | 2.4355e-05 | 0.0032721  | 0.0069904  |   2.7 |  0.14
Other   |            | 0.2738     |            |       | 11.85

Nlocal:        2776.45 ave        3961 max           0 min
Histogram: 8 4 4 0 6 10 8 2 28 34
Nghost:        3879.01 ave        5427 max         232 min
Histogram: 8 0 8 0 16 0 8 8 16 40
Neighs:        79213.5 ave      115455 max           0 min
Histogram: 8 4 4 0 10 6 8 8 24 32

Total # of neighbors = 8238202
Ave neighs/atom = 28.530471
Neighbor list builds = 0
Dangerous builds = 0
The dot product: -5.00182809516634e-09
Setting atom values ...
  1 settings made for x
  1 settings made for y
  1 settings made for z
Setting up cg style minimization ...
  Unit style    : metal
  Current step  : 1019
Per MPI rank memory allocation (min/avg/max) = 5.441 | 5.816 | 6.074 Mbytes
Step PotEng KinEng TotEng v_fx v_fy v_fz 
    1019   -1152449.4            0   -1152449.4 -0.024909189  0.047959249  0.012612386 
    1158   -1152449.4            0   -1152449.4 -1.3209872e-06 1.8197861e-06 -8.8645492e-06 
Loop time of 1.62372 on 104 procs for 139 steps with 288751 atoms

99.9% CPU use with 104 MPI tasks x 1 OpenMP threads

Minimization stats:
  Stopping criterion = energy tolerance
  Energy initial, next-to-last, final = 
     -1152449.41575848  -1152449.41737548  -1152449.41737548
  Force two-norm initial, final = 0.18874123 6.7637155e-05
  Force max component initial, final = 0.072557524 1.1748780e-05
  Final line search alpha, max atom move = 1.0000000 1.1748780e-05
  Iterations, force evaluations = 139 278

MPI task timing breakdown:
Section |  min time  |  avg time  |  max time  |%varavg| %total
---------------------------------------------------------------
Pair    | 0.41823    | 1.172      | 1.524      |  29.3 | 72.18
Neigh   | 0          | 0          | 0          |   0.0 |  0.00
Comm    | 0.02463    | 0.26423    | 0.78733    |  42.7 | 16.27
Output  | 0          | 0          | 0          |   0.0 |  0.00
Modify  | 1.7665e-05 | 0.0023045  | 0.0049728  |   2.3 |  0.14
Other   |            | 0.1852     |            |       | 11.41

Nlocal:        2776.45 ave        3961 max           0 min
Histogram: 8 4 4 0 6 10 8 2 28 34
Nghost:        3879.01 ave        5426 max         232 min
Histogram: 8 0 8 0 16 0 8 8 16 40
Neighs:        79213.5 ave      115455 max           0 min
Histogram: 8 4 4 0 10 6 8 8 24 32

Total # of neighbors = 8238201
Ave neighs/atom = 28.530467
Neighbor list builds = 0
Dangerous builds = 0
The dot product: 2.27760151761763e-08
Setting atom values ...
  1 settings made for x
  1 settings made for y
  1 settings made for z
Setting up cg style minimization ...
  Unit style    : metal
  Current step  : 1158
Per MPI rank memory allocation (min/avg/max) = 5.441 | 5.816 | 6.074 Mbytes
Step PotEng KinEng TotEng v_fx v_fy v_fz 
    1158   -1152449.4            0   -1152449.4  -0.02430067  0.052061534  0.016687181 
    1271   -1152449.4            0   -1152449.4 -5.6184868e-06 7.833154e-06 -6.3242408e-05 
Loop time of 1.31761 on 104 procs for 113 steps with 288751 atoms

99.9% CPU use with 104 MPI tasks x 1 OpenMP threads

Minimization stats:
  Stopping criterion = energy tolerance
  Energy initial, next-to-last, final = 
      -1152449.4048819  -1152449.40648271  -1152449.40648271
  Force two-norm initial, final = 0.18774955 0.0002295409
  Force max component initial, final = 0.071117849 6.3242408e-05
  Final line search alpha, max atom move = 1.0000000 6.3242408e-05
  Iterations, force evaluations = 113 226

MPI task timing breakdown:
Section |  min time  |  avg time  |  max time  |%varavg| %total
---------------------------------------------------------------
Pair    | 0.33932    | 0.94884    | 1.2351     |  26.4 | 72.01
Neigh   | 0          | 0          | 0          |   0.0 |  0.00
Comm    | 0.022057   | 0.21355    | 0.64021    |  38.8 | 16.21
Output  | 0          | 0          | 0          |   0.0 |  0.00
Modify  | 1.4422e-05 | 0.0018754  | 0.0039877  |   2.0 |  0.14
Other   |            | 0.1533     |            |       | 11.64

Nlocal:        2776.45 ave        3961 max           0 min
Histogram: 8 4 4 0 6 10 8 2 28 34
Nghost:        3879.01 ave        5424 max         232 min
Histogram: 8 0 8 0 16 0 8 8 16 40
Neighs:        79213.5 ave      115455 max           0 min
Histogram: 8 4 4 0 10 6 8 8 24 32

Total # of neighbors = 8238200
Ave neighs/atom = 28.530464
Neighbor list builds = 0
Dangerous builds = 0
The dot product: 9.36472361892354e-08
Setting atom values ...
  1 settings made for x
  1 settings made for y
  1 settings made for z
Setting up cg style minimization ...
  Unit style    : metal
  Current step  : 1271
Per MPI rank memory allocation (min/avg/max) = 5.441 | 5.816 | 6.074 Mbytes
Step PotEng KinEng TotEng v_fx v_fy v_fz 
    1271   -1152449.4            0   -1152449.4 -0.023823052  0.056919086  0.021498938 
    1432   -1152449.4            0   -1152449.4 -9.2829875e-07 1.8397102e-06 -5.5619751e-06 
Loop time of 1.89504 on 104 procs for 161 steps with 288751 atoms

99.9% CPU use with 104 MPI tasks x 1 OpenMP threads

Minimization stats:
  Stopping criterion = energy tolerance
  Energy initial, next-to-last, final = 
     -1152449.39241413  -1152449.39400828  -1152449.39400828
  Force two-norm initial, final = 0.18715406 2.4197611e-05
  Force max component initial, final = 0.069069356 5.5619751e-06
  Final line search alpha, max atom move = 1.0000000 5.5619751e-06
  Iterations, force evaluations = 161 322

MPI task timing breakdown:
Section |  min time  |  avg time  |  max time  |%varavg| %total
---------------------------------------------------------------
Pair    | 0.48632    | 1.3625     | 1.7813     |  31.6 | 71.90
Neigh   | 0          | 0          | 0          |   0.0 |  0.00
Comm    | 0.028528   | 0.31281    | 0.9253     |  45.5 | 16.51
Output  | 0          | 0          | 0          |   0.0 |  0.00
Modify  | 2.0137e-05 | 0.0026694  | 0.0057513  |   2.4 |  0.14
Other   |            | 0.2171     |            |       | 11.46

Nlocal:        2776.45 ave        3961 max           0 min
Histogram: 8 4 4 0 6 10 8 2 28 34
Nghost:        3879.05 ave        5424 max         232 min
Histogram: 8 0 8 0 16 0 8 8 16 40
Neighs:        79213.4 ave      115455 max           0 min
Histogram: 8 4 4 0 10 6 8 8 24 32

Total # of neighbors = 8238198
Ave neighs/atom = 28.530457
Neighbor list builds = 0
Dangerous builds = 0
The dot product: 1.29786973977839e-08
Setting atom values ...
  1 settings made for x
  1 settings made for y
  1 settings made for z
Setting up cg style minimization ...
  Unit style    : metal
  Current step  : 1432
Per MPI rank memory allocation (min/avg/max) = 5.441 | 5.816 | 6.074 Mbytes
Step PotEng KinEng TotEng v_fx v_fy v_fz 
    1432   -1152449.4            0   -1152449.4 -0.023450084  0.063308339  0.027514626 
    1549   -1152449.4            0   -1152449.4 -5.5823525e-06 1.2507542e-05 -3.0798794e-05 
Loop time of 1.40361 on 104 procs for 117 steps with 288751 atoms

99.9% CPU use with 104 MPI tasks x 1 OpenMP threads

Minimization stats:
  Stopping criterion = energy tolerance
  Energy initial, next-to-last, final = 
      -1152449.3783812  -1152449.37999045  -1152449.37999045
  Force two-norm initial, final = 0.1873824 0.00018854011
  Force max component initial, final = 0.066313669 3.2412016e-05
  Final line search alpha, max atom move = 1.0000000 3.2412016e-05
  Iterations, force evaluations = 117 234

MPI task timing breakdown:
Section |  min time  |  avg time  |  max time  |%varavg| %total
---------------------------------------------------------------
Pair    | 0.35172    | 0.98712    | 1.2859     |  27.0 | 70.33
Neigh   | 0          | 0          | 0          |   0.0 |  0.00
Comm    | 0.021805   | 0.22776    | 0.67519    |  38.6 | 16.23
Output  | 0          | 0          | 0          |   0.0 |  0.00
Modify  | 1.5059e-05 | 0.0019475  | 0.0041828  |   2.1 |  0.14
Other   |            | 0.1868     |            |       | 13.31

Nlocal:        2776.45 ave        3961 max           0 min
Histogram: 8 4 4 0 6 10 8 2 28 34
Nghost:        3879.05 ave        5424 max         232 min
Histogram: 8 0 8 0 16 0 8 8 16 40
Neighs:        79213.4 ave      115455 max           0 min
Histogram: 8 4 4 0 10 6 8 8 24 32

Total # of neighbors = 8238198
Ave neighs/atom = 28.530457
Neighbor list builds = 0
Dangerous builds = 0
The dot product: 6.87500338258975e-08
Setting atom values ...
  1 settings made for x
  1 settings made for y
  1 settings made for z
Setting up cg style minimization ...
  Unit style    : metal
  Current step  : 1549
Per MPI rank memory allocation (min/avg/max) = 5.441 | 5.816 | 6.074 Mbytes
Step PotEng KinEng TotEng v_fx v_fy v_fz 
    1549   -1152449.4            0   -1152449.4 -0.023607921  0.074669772   0.03801869 
    1716   -1152449.4            0   -1152449.4 -4.7471585e-06 1.2081243e-05 -2.1354724e-05 
Loop time of 1.95244 on 104 procs for 167 steps with 288751 atoms

99.9% CPU use with 104 MPI tasks x 1 OpenMP threads

Minimization stats:
  Stopping criterion = energy tolerance
  Energy initial, next-to-last, final = 
     -1152449.36286913  -1152449.36461518  -1152449.36461518
  Force two-norm initial, final = 0.19052321 0.00010863495
  Force max component initial, final = 0.074669772 2.3199993e-05
  Final line search alpha, max atom move = 1.0000000 2.3199993e-05
  Iterations, force evaluations = 167 334

MPI task timing breakdown:
Section |  min time  |  avg time  |  max time  |%varavg| %total
---------------------------------------------------------------
Pair    | 0.50183    | 1.4095     | 1.8342     |  32.1 | 72.19
Neigh   | 0          | 0          | 0          |   0.0 |  0.00
Comm    | 0.029028   | 0.3216     | 0.95749    |  46.7 | 16.47
Output  | 0          | 0          | 0          |   0.0 |  0.00
Modify  | 2.0733e-05 | 0.0027701  | 0.0059123  |   2.5 |  0.14
Other   |            | 0.2186     |            |       | 11.20

Nlocal:        2776.45 ave        3961 max           0 min
Histogram: 8 4 4 0 6 10 8 2 28 34
Nghost:        3879.05 ave        5424 max         232 min
Histogram: 8 0 8 0 16 0 8 8 16 40
Neighs:        79213.4 ave      115455 max           0 min
Histogram: 8 4 4 0 10 6 8 8 24 32

Total # of neighbors = 8238197
Ave neighs/atom = 28.530454
Neighbor list builds = 0
Dangerous builds = 0
The dot product: 5.23148758049582e-08
Setting atom values ...
  1 settings made for x
  1 settings made for y
  1 settings made for z
Setting up cg style minimization ...
  Unit style    : metal
  Current step  : 1716
Per MPI rank memory allocation (min/avg/max) = 5.441 | 5.816 | 6.074 Mbytes
Step PotEng KinEng TotEng v_fx v_fy v_fz 
    1716   -1152449.3            0   -1152449.3 -0.023558721   0.10245446  0.062638188 
    1861   -1152449.4            0   -1152449.4 1.0400996e-06 5.8896538e-06 4.370959e-05 
Loop time of 1.6888 on 104 procs for 145 steps with 288751 atoms

99.9% CPU use with 104 MPI tasks x 1 OpenMP threads

Minimization stats:
  Stopping criterion = energy tolerance
  Energy initial, next-to-last, final = 
     -1152449.34635834  -1152449.35088433  -1152449.35088433
  Force two-norm initial, final = 0.20592658 0.00018842558
  Force max component initial, final = 0.10245446 4.3709590e-05
  Final line search alpha, max atom move = 1.0000000 4.3709590e-05
  Iterations, force evaluations = 145 290

MPI task timing breakdown:
Section |  min time  |  avg time  |  max time  |%varavg| %total
---------------------------------------------------------------
Pair    | 0.43564    | 1.2163     | 1.5818     |  29.8 | 72.02
Neigh   | 0          | 0          | 0          |   0.0 |  0.00
Comm    | 0.030529   | 0.27537    | 0.82153    |  43.5 | 16.31
Output  | 0          | 0          | 0          |   0.0 |  0.00
Modify  | 2.0141e-05 | 0.0024079  | 0.0051216  |   2.3 |  0.14
Other   |            | 0.1947     |            |       | 11.53

Nlocal:        2776.45 ave        3961 max           0 min
Histogram: 8 4 4 0 6 10 8 2 28 34
Nghost:        3879.05 ave        5427 max         232 min
Histogram: 8 0 8 0 16 0 8 8 16 40
Neighs:        79213.4 ave      115455 max           0 min
Histogram: 8 4 4 0 10 6 8 8 24 32

Total # of neighbors = 8238192
Ave neighs/atom = 28.530436
Neighbor list builds = 0
Dangerous builds = 0
The dot product: 2.00267290179798e-06
Setting atom values ...
  1 settings made for x
  1 settings made for y
  1 settings made for z
Setting up cg style minimization ...
  Unit style    : metal
  Current step  : 1861
Per MPI rank memory allocation (min/avg/max) = 5.441 | 5.816 | 6.074 Mbytes
Step PotEng KinEng TotEng v_fx v_fy v_fz 
    1861   -1152449.3            0   -1152449.3  0.023715191   0.21794926   0.13890464 
    2000   -1152449.3            0   -1152449.3 -3.4701695e-05 -0.0001683111 -0.00018138315 
    2112   -1152449.3            0   -1152449.3 -1.533311e-07 -7.456877e-06 -1.7763597e-06 
Loop time of 2.95187 on 104 procs for 251 steps with 288751 atoms

99.9% CPU use with 104 MPI tasks x 1 OpenMP threads

Minimization stats:
  Stopping criterion = energy tolerance
  Energy initial, next-to-last, final = 
     -1152449.33554271  -1152449.34591509  -1152449.34591509
  Force two-norm initial, final = 0.29931893 3.0982882e-05
  Force max component initial, final = 0.21794926 7.4568770e-06
  Final line search alpha, max atom move = 1.0000000 7.4568770e-06
  Iterations, force evaluations = 251 502

MPI task timing breakdown:
Section |  min time  |  avg time  |  max time  |%varavg| %total
---------------------------------------------------------------
Pair    | 0.75731    | 2.1154     | 2.7583     |  39.2 | 71.66
Neigh   | 1.0178e-05 | 0.0029361  | 0.0042632  |   2.2 |  0.10
Comm    | 0.053923   | 0.4814     | 1.4321     |  57.3 | 16.31
Output  | 0.00024856 | 0.00025519 | 0.00038568 |   0.0 |  0.01
Modify  | 3.1096e-05 | 0.004158   | 0.0089353  |   3.0 |  0.14
Other   |            | 0.3478     |            |       | 11.78

Nlocal:        2776.45 ave        3961 max           0 min
Histogram: 8 4 4 0 6 10 8 2 28 34
Nghost:        3879.05 ave        5428 max         232 min
Histogram: 8 0 8 0 16 0 8 8 16 40
Neighs:        79213.4 ave      115457 max           0 min
Histogram: 8 4 4 0 10 6 8 8 24 32

Total # of neighbors = 8238196
Ave neighs/atom = 28.530450
Neighbor list builds = 1
Dangerous builds = 0
The dot product: -5.62316897905052e-07
Setting atom values ...
  1 settings made for x
  1 settings made for y
  1 settings made for z
Setting up cg style minimization ...
  Unit style    : metal
  Current step  : 2112
Per MPI rank memory allocation (min/avg/max) = 5.441 | 5.816 | 6.074 Mbytes
Step PotEng KinEng TotEng v_fx v_fy v_fz 
    2112   -1152449.3            0   -1152449.3  0.070501327    0.1756028  0.080169158 
    2396   -1152449.3            0   -1152449.3 -1.9844612e-06 -3.8798815e-06 -2.9268024e-06 
Loop time of 3.2961 on 104 procs for 284 steps with 288751 atoms

99.9% CPU use with 104 MPI tasks x 1 OpenMP threads

Minimization stats:
  Stopping criterion = energy tolerance
  Energy initial, next-to-last, final = 
     -1152449.33327595  -1152449.34468588  -1152449.34468588
  Force two-norm initial, final = 0.24761729 3.4775550e-05
  Force max component initial, final = 0.1756028 3.8798815e-06
  Final line search alpha, max atom move = 1.0000000 3.8798815e-06
  Iterations, force evaluations = 284 568

MPI task timing breakdown:
Section |  min time  |  avg time  |  max time  |%varavg| %total
---------------------------------------------------------------
Pair    | 0.856      | 2.3794     | 3.0939     |  41.7 | 72.19
Neigh   | 1.0437e-05 | 0.002936   | 0.0042653  |   2.2 |  0.09
Comm    | 0.052237   | 0.53523    | 1.6114     |  61.4 | 16.24
Output  | 0          | 0          | 0          |   0.0 |  0.00
Modify  | 3.4967e-05 | 0.0046999  | 0.01003    |   3.2 |  0.14
Other   |            | 0.3738     |            |       | 11.34

Nlocal:        2776.45 ave        3960 max           0 min
Histogram: 8 4 4 0 4 12 8 2 28 34
Nghost:        3879.03 ave        5424 max         232 min
Histogram: 8 0 8 0 16 0 8 8 16 40
Neighs:        79213.4 ave      115438 max           0 min
Histogram: 8 4 4 0 10 6 8 8 24 32

Total # of neighbors = 8238189
Ave neighs/atom = 28.530426
Neighbor list builds = 1
Dangerous builds = 0
The dot product: -5.0748532764465e-07
Setting atom values ...
  1 settings made for x
  1 settings made for y
  1 settings made for z
Setting up cg style minimization ...
  Unit style    : metal
  Current step  : 2396
Per MPI rank memory allocation (min/avg/max) = 5.441 | 5.816 | 6.074 Mbytes
Step PotEng KinEng TotEng v_fx v_fy v_fz 
    2396   -1152449.3            0   -1152449.3 -0.050001068 -0.030038801 -0.047967367 
    2512   -1152449.3            0   -1152449.3 -4.4405775e-05 -4.3399621e-05 -2.942387e-05 
Loop time of 1.37296 on 104 procs for 116 steps with 288751 atoms

99.9% CPU use with 104 MPI tasks x 1 OpenMP threads

Minimization stats:
  Stopping criterion = energy tolerance
  Energy initial, next-to-last, final = 
     -1152449.34688214  -1152449.34819099  -1152449.34819099
  Force two-norm initial, final = 0.146416 0.00021205862
  Force max component initial, final = 0.050001068 4.9537268e-05
  Final line search alpha, max atom move = 1.0000000 4.9537268e-05
  Iterations, force evaluations = 116 232

MPI task timing breakdown:
Section |  min time  |  avg time  |  max time  |%varavg| %total
---------------------------------------------------------------
Pair    | 0.36072    | 0.98265    | 1.2763     |  26.4 | 71.57
Neigh   | 0          | 0          | 0          |   0.0 |  0.00
Comm    | 0.025262   | 0.22405    | 0.66054    |  38.8 | 16.32
Output  | 0          | 0          | 0          |   0.0 |  0.00
Modify  | 1.512e-05  | 0.0019283  | 0.0041291  |   2.1 |  0.14
Other   |            | 0.1643     |            |       | 11.97

Nlocal:        2776.45 ave        3961 max           0 min
Histogram: 8 4 4 0 6 10 8 2 28 34
Nghost:        3879.09 ave        5425 max         232 min
Histogram: 8 0 8 0 16 0 8 8 16 40
Neighs:        79213.4 ave      115455 max           0 min
Histogram: 8 4 4 0 10 6 8 8 24 32

Total # of neighbors = 8238192
Ave neighs/atom = 28.530436
Neighbor list builds = 0
Dangerous builds = 0
The dot product: 7.71699276940905e-07
Setting atom values ...
  1 settings made for x
  1 settings made for y
  1 settings made for z
Setting up cg style minimization ...
  Unit style    : metal
  Current step  : 2512
Per MPI rank memory allocation (min/avg/max) = 5.441 | 5.816 | 6.074 Mbytes
Step PotEng KinEng TotEng v_fx v_fy v_fz 
    2512   -1152449.3            0   -1152449.3 -0.0067233536 0.0095836393 -0.017569752 
    2687   -1152449.4            0   -1152449.4 3.9152575e-06 3.8113577e-06 3.0129987e-06 
Loop time of 2.10047 on 104 procs for 175 steps with 288751 atoms

99.8% CPU use with 104 MPI tasks x 1 OpenMP threads

Minimization stats:
  Stopping criterion = energy tolerance
  Energy initial, next-to-last, final = 
     -1152449.34955216   -1152449.3504584   -1152449.3504584
  Force two-norm initial, final = 0.12496998 0.00014468994
  Force max component initial, final = 0.047690651 1.4314358e-05
  Final line search alpha, max atom move = 1.0000000 1.4314358e-05
  Iterations, force evaluations = 175 350

MPI task timing breakdown:
Section |  min time  |  avg time  |  max time  |%varavg| %total
---------------------------------------------------------------
Pair    | 0.52638    | 1.4744     | 1.9208     |  32.8 | 70.19
Neigh   | 0          | 0          | 0          |   0.0 |  0.00
Comm    | 0.03746    | 0.33987    | 1.0005     |  47.1 | 16.18
Output  | 0          | 0          | 0          |   0.0 |  0.00
Modify  | 2.4434e-05 | 0.0029011  | 0.0061951  |   2.5 |  0.14
Other   |            | 0.2833     |            |       | 13.49

Nlocal:        2776.45 ave        3961 max           0 min
Histogram: 8 4 4 0 6 10 8 2 28 34
Nghost:        3879.09 ave        5426 max         232 min
Histogram: 8 0 8 0 16 0 8 8 16 40
Neighs:        79213.4 ave      115445 max           0 min
Histogram: 8 4 4 0 10 6 8 8 24 32

Total # of neighbors = 8238193
Ave neighs/atom = 28.530440
Neighbor list builds = 0
Dangerous builds = 0
The dot product: 4.75310694882183e-09
Setting atom values ...
  1 settings made for x
  1 settings made for y
  1 settings made for z
Setting up cg style minimization ...
  Unit style    : metal
  Current step  : 2687
Per MPI rank memory allocation (min/avg/max) = 5.441 | 5.816 | 6.074 Mbytes
Step PotEng KinEng TotEng v_fx v_fy v_fz 
    2687   -1152449.4            0   -1152449.4 -0.010227743 0.0063164011 -0.020382395 
    2853   -1152449.4            0   -1152449.4 5.195166e-05 2.6199017e-05 5.8469159e-05 
Loop time of 1.96421 on 104 procs for 166 steps with 288751 atoms

99.9% CPU use with 104 MPI tasks x 1 OpenMP threads

Minimization stats:
  Stopping criterion = energy tolerance
  Energy initial, next-to-last, final = 
     -1152449.35060925  -1152449.35151138  -1152449.35151138
  Force two-norm initial, final = 0.12559131 0.00022933478
  Force max component initial, final = 0.047092289 5.8469159e-05
  Final line search alpha, max atom move = 1.0000000 5.8469159e-05
  Iterations, force evaluations = 166 332

MPI task timing breakdown:
Section |  min time  |  avg time  |  max time  |%varavg| %total
---------------------------------------------------------------
Pair    | 0.49805    | 1.4038     | 1.8414     |  32.1 | 71.47
Neigh   | 0          | 0          | 0          |   0.0 |  0.00
Comm    | 0.028959   | 0.32209    | 0.9505     |  46.3 | 16.40
Output  | 0          | 0          | 0          |   0.0 |  0.00
Modify  | 2.0492e-05 | 0.0027558  | 0.0059529  |   2.5 |  0.14
Other   |            | 0.2356     |            |       | 11.99

Nlocal:        2776.45 ave        3961 max           0 min
Histogram: 8 4 4 0 6 10 8 2 28 34
Nghost:        3879.09 ave        5424 max         232 min
Histogram: 8 0 8 0 16 0 8 8 16 40
Neighs:        79213.4 ave      115457 max           0 min
Histogram: 8 4 4 0 10 6 8 8 24 32

Total # of neighbors = 8238189
Ave neighs/atom = 28.530426
Neighbor list builds = 0
Dangerous builds = 0
The dot product: -2.93066164017436e-08
Setting atom values ...
  1 settings made for x
  1 settings made for y
  1 settings made for z
Setting up cg style minimization ...
  Unit style    : metal
  Current step  : 2853
Per MPI rank memory allocation (min/avg/max) = 5.441 | 5.816 | 6.074 Mbytes
Step PotEng KinEng TotEng v_fx v_fy v_fz 
    2853   -1152449.4            0   -1152449.4 -0.0094238157 0.0065906579 -0.019440886 
    3000   -1152449.4            0   -1152449.4 -2.0895719e-05 -3.1144529e-05 -7.5816377e-06 
    3047   -1152449.4            0   -1152449.4 2.0272554e-05 1.1364419e-05 2.1991095e-05 
Loop time of 2.2613 on 104 procs for 194 steps with 288751 atoms

99.9% CPU use with 104 MPI tasks x 1 OpenMP threads

Minimization stats:
  Stopping criterion = energy tolerance
  Energy initial, next-to-last, final = 
     -1152449.35035428  -1152449.35124961  -1152449.35124961
  Force two-norm initial, final = 0.12512642 9.2280952e-05
  Force max component initial, final = 0.046475236 2.1991095e-05
  Final line search alpha, max atom move = 1.0000000 2.1991095e-05
  Iterations, force evaluations = 194 388

MPI task timing breakdown:
Section |  min time  |  avg time  |  max time  |%varavg| %total
---------------------------------------------------------------
Pair    | 0.57962    | 1.629      | 2.1218     |  34.6 | 72.04
Neigh   | 0          | 0          | 0          |   0.0 |  0.00
Comm    | 0.034957   | 0.36976    | 1.1077     |  50.8 | 16.35
Output  | 0.00026183 | 0.00027363 | 0.00041679 |   0.0 |  0.01
Modify  | 2.3972e-05 | 0.0032171  | 0.0069081  |   2.7 |  0.14
Other   |            | 0.2591     |            |       | 11.46

Nlocal:        2776.45 ave        3961 max           0 min
Histogram: 8 4 4 0 6 10 8 2 28 34
Nghost:        3879.05 ave        5424 max         232 min
Histogram: 8 0 8 0 16 0 8 8 16 40
Neighs:        79213.4 ave      115465 max           0 min
Histogram: 8 4 4 0 10 6 8 8 24 32

Total # of neighbors = 8238191
Ave neighs/atom = 28.530433
Neighbor list builds = 0
Dangerous builds = 0
The dot product: -8.09408729027503e-09
Setting atom values ...
  1 settings made for x
  1 settings made for y
  1 settings made for z
Setting up cg style minimization ...
  Unit style    : metal
  Current step  : 3047
Per MPI rank memory allocation (min/avg/max) = 5.441 | 5.816 | 6.074 Mbytes
Step PotEng KinEng TotEng v_fx v_fy v_fz 
    3047   -1152449.3            0   -1152449.3 -0.008544553 0.0064661029 -0.018063292 
    3219   -1152449.3            0   -1152449.3 3.4093379e-05 3.6662199e-05 2.336781e-05 
Loop time of 2.04908 on 104 procs for 172 steps with 288751 atoms

99.9% CPU use with 104 MPI tasks x 1 OpenMP threads

Minimization stats:
  Stopping criterion = energy tolerance
  Energy initial, next-to-last, final = 
     -1152449.34875582   -1152449.3496391   -1152449.3496391
  Force two-norm initial, final = 0.12424859 0.00019743573
  Force max component initial, final = 0.045833896 3.9992729e-05
  Final line search alpha, max atom move = 1.0000000 3.9992729e-05
  Iterations, force evaluations = 172 344

MPI task timing breakdown:
Section |  min time  |  avg time  |  max time  |%varavg| %total
---------------------------------------------------------------
Pair    | 0.51846    | 1.4538     | 1.9102     |  32.6 | 70.95
Neigh   | 0          | 0          | 0          |   0.0 |  0.00
Comm    | 0.030284   | 0.3373     | 0.99321    |  46.8 | 16.46
Output  | 0          | 0          | 0          |   0.0 |  0.00
Modify  | 2.1553e-05 | 0.0028564  | 0.0061184  |   2.5 |  0.14
Other   |            | 0.2551     |            |       | 12.45

Nlocal:        2776.45 ave        3961 max           0 min
Histogram: 8 4 4 0 6 10 8 2 28 34
Nghost:        3879.01 ave        5424 max         232 min
Histogram: 8 0 8 0 16 0 8 8 16 40
Neighs:        79213.4 ave      115465 max           0 min
Histogram: 8 4 4 0 10 6 8 8 24 32

Total # of neighbors = 8238191
Ave neighs/atom = 28.530433
Neighbor list builds = 0
Dangerous builds = 0
The dot product: 2.00625668235786e-10
Setting atom values ...
  1 settings made for x
  1 settings made for y
  1 settings made for z
Setting up cg style minimization ...
  Unit style    : metal
  Current step  : 3219
Per MPI rank memory allocation (min/avg/max) = 5.441 | 5.816 | 6.074 Mbytes
Step PotEng KinEng TotEng v_fx v_fy v_fz 
    3219   -1152449.3            0   -1152449.3 -0.0075720426 0.0061309009 -0.016367152 
    3388   -1152449.3            0   -1152449.3 4.5705595e-05 5.6073271e-05 2.5903526e-05 
Loop time of 1.9648 on 104 procs for 169 steps with 288751 atoms

99.9% CPU use with 104 MPI tasks x 1 OpenMP threads

Minimization stats:
  Stopping criterion = energy tolerance
  Energy initial, next-to-last, final = 
     -1152449.34580267  -1152449.34667202  -1152449.34667202
  Force two-norm initial, final = 0.12323897 0.00022512066
  Force max component initial, final = 0.045139952 5.6073271e-05
  Final line search alpha, max atom move = 1.0000000 5.6073271e-05
  Iterations, force evaluations = 169 338

MPI task timing breakdown:
Section |  min time  |  avg time  |  max time  |%varavg| %total
---------------------------------------------------------------
Pair    | 0.5068     | 1.4233     | 1.85       |  32.4 | 72.44
Neigh   | 0          | 0          | 0          |   0.0 |  0.00
Comm    | 0.030448   | 0.32127    | 0.96659    |  47.6 | 16.35
Output  | 0          | 0          | 0          |   0.0 |  0.00
Modify  | 2.099e-05  | 0.0028026  | 0.0060157  |   2.5 |  0.14
Other   |            | 0.2175     |            |       | 11.07

Nlocal:        2776.45 ave        3960 max           0 min
Histogram: 8 4 4 0 4 12 8 2 28 34
Nghost:        3879.01 ave        5424 max         232 min
Histogram: 8 0 8 0 16 0 8 8 16 40
Neighs:        79213.4 ave      115434 max           0 min
Histogram: 8 4 4 0 10 6 8 8 24 32

Total # of neighbors = 8238190
Ave neighs/atom = 28.530429
Neighbor list builds = 0
Dangerous builds = 0
The dot product: 7.00891275000472e-09
Setting atom values ...
  1 settings made for x
  1 settings made for y
  1 settings made for z
Setting up cg style minimization ...
  Unit style    : metal
  Current step  : 3388
Per MPI rank memory allocation (min/avg/max) = 5.441 | 5.816 | 6.074 Mbytes
Step PotEng KinEng TotEng v_fx v_fy v_fz 
    3388   -1152449.3            0   -1152449.3 -0.0067344206 0.0055063416 -0.014634241 
    3589   -1152449.3            0   -1152449.3 5.2540511e-06 -5.6523212e-07 8.4848943e-06 
Loop time of 2.36307 on 104 procs for 201 steps with 288751 atoms

99.9% CPU use with 104 MPI tasks x 1 OpenMP threads

Minimization stats:
  Stopping criterion = energy tolerance
  Energy initial, next-to-last, final = 
     -1152449.34148641  -1152449.34234289  -1152449.34234289
  Force two-norm initial, final = 0.1224193 7.8144317e-05
  Force max component initial, final = 0.044417854 1.8132837e-05
  Final line search alpha, max atom move = 1.0000000 1.8132837e-05
  Iterations, force evaluations = 201 402

MPI task timing breakdown:
Section |  min time  |  avg time  |  max time  |%varavg| %total
---------------------------------------------------------------
Pair    | 0.60274    | 1.6908     | 2.1964     |  35.2 | 71.55
Neigh   | 0          | 0          | 0          |   0.0 |  0.00
Comm    | 0.035585   | 0.38259    | 1.1356     |  51.0 | 16.19
Output  | 0          | 0          | 0          |   0.0 |  0.00
Modify  | 2.489e-05  | 0.0033304  | 0.007197   |   2.7 |  0.14
Other   |            | 0.2863     |            |       | 12.12

Nlocal:        2776.45 ave        3960 max           0 min
Histogram: 8 4 4 0 4 12 8 2 28 34
Nghost:        3879.01 ave        5424 max         232 min
Histogram: 8 0 8 0 16 0 8 8 16 40
Neighs:        79213.4 ave      115434 max           0 min
Histogram: 8 4 4 0 10 6 8 8 24 32

Total # of neighbors = 8238191
Ave neighs/atom = 28.530433
Neighbor list builds = 0
Dangerous builds = 0
The dot product: -3.08235430492272e-09
Setting atom values ...
  1 settings made for x
  1 settings made for y
  1 settings made for z
Setting up cg style minimization ...
  Unit style    : metal
  Current step  : 3589
Per MPI rank memory allocation (min/avg/max) = 5.441 | 5.816 | 6.074 Mbytes
Step PotEng KinEng TotEng v_fx v_fy v_fz 
    3589   -1152449.3            0   -1152449.3 -0.0061650851 0.0045031068  -0.01299978 
    3811   -1152449.3            0   -1152449.3 -3.4473183e-06 5.0339069e-07 -5.6806094e-06 
Loop time of 2.57836 on 104 procs for 222 steps with 288751 atoms

99.9% CPU use with 104 MPI tasks x 1 OpenMP threads

Minimization stats:
  Stopping criterion = energy tolerance
  Energy initial, next-to-last, final = 
     -1152449.33579236  -1152449.33664125  -1152449.33664125
  Force two-norm initial, final = 0.12195308 2.9059148e-05
  Force max component initial, final = 0.044194668 6.8277822e-06
  Final line search alpha, max atom move = 1.0000000 6.8277822e-06
  Iterations, force evaluations = 222 444

MPI task timing breakdown:
Section |  min time  |  avg time  |  max time  |%varavg| %total
---------------------------------------------------------------
Pair    | 0.66504    | 1.8593     | 2.4232     |  37.0 | 72.11
Neigh   | 0          | 0          | 0          |   0.0 |  0.00
Comm    | 0.041214   | 0.41993    | 1.2644     |  54.1 | 16.29
Output  | 0          | 0          | 0          |   0.0 |  0.00
Modify  | 2.7057e-05 | 0.0036746  | 0.007872   |   2.9 |  0.14
Other   |            | 0.2955     |            |       | 11.46

Nlocal:        2776.45 ave        3960 max           0 min
Histogram: 8 4 4 0 4 12 8 2 28 34
Nghost:        3879.03 ave        5424 max         232 min
Histogram: 8 0 8 0 16 0 8 8 16 40
Neighs:        79213.4 ave      115434 max           0 min
Histogram: 8 4 4 0 10 6 8 8 24 32

Total # of neighbors = 8238192
Ave neighs/atom = 28.530436
Neighbor list builds = 0
Dangerous builds = 0
The dot product: 1.93380857469763e-09
Setting atom values ...
  1 settings made for x
  1 settings made for y
  1 settings made for z
Setting up cg style minimization ...
  Unit style    : metal
  Current step  : 3811
Per MPI rank memory allocation (min/avg/max) = 5.441 | 5.816 | 6.074 Mbytes
Step PotEng KinEng TotEng v_fx v_fy v_fz 
    3811   -1152449.3            0   -1152449.3 -0.0058159544  0.003250114 -0.011495274 
    4000   -1152449.3            0   -1152449.3 -3.9829988e-06 -1.2480891e-05 3.7521411e-06 
    4008   -1152449.3            0   -1152449.3 1.1516999e-05 4.9697045e-06 1.3748047e-05 
Loop time of 2.29624 on 104 procs for 197 steps with 288751 atoms

99.9% CPU use with 104 MPI tasks x 1 OpenMP threads

Minimization stats:
  Stopping criterion = energy tolerance
  Energy initial, next-to-last, final = 
     -1152449.32870174  -1152449.32954806  -1152449.32954806
  Force two-norm initial, final = 0.12186529 8.0064399e-05
  Force max component initial, final = 0.044029267 1.3748047e-05
  Final line search alpha, max atom move = 1.0000000 1.3748047e-05
  Iterations, force evaluations = 197 394

MPI task timing breakdown:
Section |  min time  |  avg time  |  max time  |%varavg| %total
---------------------------------------------------------------
Pair    | 0.59101    | 1.6607     | 2.1643     |  34.9 | 72.32
Neigh   | 0          | 0          | 0          |   0.0 |  0.00
Comm    | 0.034946   | 0.37608    | 1.1201     |  51.0 | 16.38
Output  | 0.00023188 | 0.00023947 | 0.00038408 |   0.0 |  0.01
Modify  | 2.478e-05  | 0.0032656  | 0.0069816  |   2.7 |  0.14
Other   |            | 0.256      |            |       | 11.15

Nlocal:        2776.45 ave        3960 max           0 min
Histogram: 8 4 4 0 4 12 8 2 28 34
Nghost:        3879.03 ave        5424 max         232 min
Histogram: 8 0 8 0 16 0 8 8 16 40
Neighs:        79213.4 ave      115434 max           0 min
Histogram: 8 4 4 0 10 6 8 8 24 32

Total # of neighbors = 8238190
Ave neighs/atom = 28.530429
Neighbor list builds = 0
Dangerous builds = 0
The dot product: -3.7618262508057e-09
Setting atom values ...
  1 settings made for x
  1 settings made for y
  1 settings made for z
Setting up cg style minimization ...
  Unit style    : metal
  Current step  : 4008
Per MPI rank memory allocation (min/avg/max) = 5.441 | 5.816 | 6.074 Mbytes
Step PotEng KinEng TotEng v_fx v_fy v_fz 
    4008   -1152449.3            0   -1152449.3 -0.0057312669 0.0017146582 -0.010165369 
    4215   -1152449.3            0   -1152449.3 -7.089825e-06 2.0649694e-06 -1.2530547e-05 
Loop time of 2.40354 on 104 procs for 207 steps with 288751 atoms

99.9% CPU use with 104 MPI tasks x 1 OpenMP threads

Minimization stats:
  Stopping criterion = energy tolerance
  Energy initial, next-to-last, final = 
     -1152449.32018529  -1152449.32103514  -1152449.32103514
  Force two-norm initial, final = 0.12212648 5.8427406e-05
  Force max component initial, final = 0.043880858 1.4365327e-05
  Final line search alpha, max atom move = 1.0000000 1.4365327e-05
  Iterations, force evaluations = 207 414

MPI task timing breakdown:
Section |  min time  |  avg time  |  max time  |%varavg| %total
---------------------------------------------------------------
Pair    | 0.62361    | 1.7345     | 2.2548     |  35.6 | 72.16
Neigh   | 0          | 0          | 0          |   0.0 |  0.00
Comm    | 0.039348   | 0.38992    | 1.1692     |  52.4 | 16.22
Output  | 0          | 0          | 0          |   0.0 |  0.00
Modify  | 2.4762e-05 | 0.0034277  | 0.0072976  |   2.7 |  0.14
Other   |            | 0.2757     |            |       | 11.47

Nlocal:        2776.45 ave        3960 max           0 min
Histogram: 8 4 4 0 4 12 8 2 28 34
Nghost:        3879.01 ave        5424 max         232 min
Histogram: 8 0 8 0 16 0 8 8 16 40
Neighs:        79213.3 ave      115434 max           0 min
Histogram: 8 4 4 0 10 6 8 8 24 32

Total # of neighbors = 8238188
Ave neighs/atom = 28.530422
Neighbor list builds = 0
Dangerous builds = 0
The dot product: 3.86891866854721e-09
Setting atom values ...
  1 settings made for x
  1 settings made for y
  1 settings made for z
Setting up cg style minimization ...
  Unit style    : metal
  Current step  : 4215
Per MPI rank memory allocation (min/avg/max) = 5.441 | 5.816 | 6.074 Mbytes
Step PotEng KinEng TotEng v_fx v_fy v_fz 
    4215   -1152449.3            0   -1152449.3 -0.0059498225 -9.2545324e-05 -0.0090812115 
    4464   -1152449.3            0   -1152449.3 1.0651591e-06 3.9193661e-07 1.3281625e-06 
Loop time of 2.94181 on 104 procs for 249 steps with 288751 atoms

99.9% CPU use with 104 MPI tasks x 1 OpenMP threads

Minimization stats:
  Stopping criterion = energy tolerance
  Energy initial, next-to-last, final = 
      -1152449.3102116  -1152449.31106823  -1152449.31106823
  Force two-norm initial, final = 0.12266477 7.5313735e-06
  Force max component initial, final = 0.043691185 1.3281625e-06
  Final line search alpha, max atom move = 1.0000000 1.3281625e-06
  Iterations, force evaluations = 249 498

MPI task timing breakdown:
Section |  min time  |  avg time  |  max time  |%varavg| %total
---------------------------------------------------------------
Pair    | 0.74496    | 2.105      | 2.7655     |  39.4 | 71.56
Neigh   | 0          | 0          | 0          |   0.0 |  0.00
Comm    | 0.046065   | 0.48678    | 1.4276     |  56.4 | 16.55
Output  | 0          | 0          | 0          |   0.0 |  0.00
Modify  | 3.0847e-05 | 0.0041217  | 0.0088795  |   3.0 |  0.14
Other   |            | 0.3459     |            |       | 11.76

Nlocal:        2776.45 ave        3960 max           0 min
Histogram: 8 4 4 0 4 12 8 2 28 34
Nghost:        3879.01 ave        5424 max         232 min
Histogram: 8 0 8 0 16 0 8 8 16 40
Neighs:        79213.4 ave      115439 max           0 min
Histogram: 8 4 4 0 10 6 8 8 24 32

Total # of neighbors = 8238189
Ave neighs/atom = 28.530426
Neighbor list builds = 0
Dangerous builds = 0
The dot product: -5.0678559978311e-10
Setting atom values ...
  1 settings made for x
  1 settings made for y
  1 settings made for z
Setting up cg style minimization ...
  Unit style    : metal
  Current step  : 4464
Per MPI rank memory allocation (min/avg/max) = 5.441 | 5.816 | 6.074 Mbytes
Step PotEng KinEng TotEng v_fx v_fy v_fz 
    4464   -1152449.3            0   -1152449.3 -0.0064571002 -0.0021005398 -0.0082815084 
    4681   -1152449.3            0   -1152449.3 -3.5147041e-06 -8.934737e-06 1.6722005e-06 
Loop time of 2.51947 on 104 procs for 217 steps with 288751 atoms

99.9% CPU use with 104 MPI tasks x 1 OpenMP threads

Minimization stats:
  Stopping criterion = energy tolerance
  Energy initial, next-to-last, final = 
     -1152449.29875224  -1152449.29961514  -1152449.29961514
  Force two-norm initial, final = 0.12332543 3.2569743e-05
  Force max component initial, final = 0.043526463 8.9347370e-06
  Final line search alpha, max atom move = 1.0000000 8.9347370e-06
  Iterations, force evaluations = 217 434

MPI task timing breakdown:
Section |  min time  |  avg time  |  max time  |%varavg| %total
---------------------------------------------------------------
Pair    | 0.64986    | 1.817      | 2.3685     |  36.5 | 72.12
Neigh   | 0          | 0          | 0          |   0.0 |  0.00
Comm    | 0.044696   | 0.41054    | 1.2237     |  53.6 | 16.29
Output  | 0          | 0          | 0          |   0.0 |  0.00
Modify  | 2.7327e-05 | 0.0035938  | 0.0076988  |   2.8 |  0.14
Other   |            | 0.2883     |            |       | 11.44

Nlocal:        2776.45 ave        3960 max           0 min
Histogram: 8 4 4 0 4 12 8 2 28 34
Nghost:        3879.07 ave        5424 max         232 min
Histogram: 8 0 8 0 16 0 8 8 16 40
Neighs:        79213.4 ave      115439 max           0 min
Histogram: 8 4 4 0 10 6 8 8 24 32

Total # of neighbors = 8238189
Ave neighs/atom = 28.530426
Neighbor list builds = 0
Dangerous builds = 0
The dot product: 2.27823721226063e-09
Setting atom values ...
  1 settings made for x
  1 settings made for y
  1 settings made for z
Setting up cg style minimization ...
  Unit style    : metal
  Current step  : 4681
Per MPI rank memory allocation (min/avg/max) = 5.441 | 5.816 | 6.074 Mbytes
Step PotEng KinEng TotEng v_fx v_fy v_fz 
    4681   -1152449.3            0   -1152449.3 -0.0073921589 -0.0042329027 -0.0080472788 
    4856   -1152449.3            0   -1152449.3 3.9408888e-06 7.2842465e-06 3.0264267e-07 
Loop time of 2.0647 on 104 procs for 175 steps with 288751 atoms

99.9% CPU use with 104 MPI tasks x 1 OpenMP threads

Minimization stats:
  Stopping criterion = energy tolerance
  Energy initial, next-to-last, final = 
     -1152449.28578652  -1152449.28665175  -1152449.28665175
  Force two-norm initial, final = 0.12398765 0.00014915842
  Force max component initial, final = 0.043337595 1.1278307e-05
  Final line search alpha, max atom move = 1.0000000 1.1278307e-05
  Iterations, force evaluations = 175 350

MPI task timing breakdown:
Section |  min time  |  avg time  |  max time  |%varavg| %total
---------------------------------------------------------------
Pair    | 0.52411    | 1.4774     | 1.9439     |  33.0 | 71.55
Neigh   | 0          | 0          | 0          |   0.0 |  0.00
Comm    | 0.030285   | 0.34317    | 1.0043     |  47.0 | 16.62
Output  | 0          | 0          | 0          |   0.0 |  0.00
Modify  | 2.1624e-05 | 0.0028976  | 0.0062754  |   2.5 |  0.14
Other   |            | 0.2412     |            |       | 11.68

Nlocal:        2776.45 ave        3960 max           0 min
Histogram: 8 4 4 0 4 12 8 2 28 34
Nghost:        3879.12 ave        5424 max         232 min
Histogram: 8 0 8 0 16 0 8 8 16 40
Neighs:        79213.3 ave      115439 max           0 min
Histogram: 8 4 4 0 10 6 8 8 24 32

Total # of neighbors = 8238187
Ave neighs/atom = 28.530419
Neighbor list builds = 0
Dangerous builds = 0
The dot product: -3.95378751449694e-09
Setting atom values ...
  1 settings made for x
  1 settings made for y
  1 settings made for z
Setting up cg style minimization ...
  Unit style    : metal
  Current step  : 4856
Per MPI rank memory allocation (min/avg/max) = 5.441 | 5.816 | 6.074 Mbytes
Step PotEng KinEng TotEng v_fx v_fy v_fz 
    4856   -1152449.3            0   -1152449.3 -0.0088562793 -0.0063060307 -0.0086893925 
    5000   -1152449.3            0   -1152449.3 -4.0602671e-06 4.6820577e-05 -4.339274e-05 
    5158   -1152449.3            0   -1152449.3 -1.1877948e-07 3.8944413e-08 -2.1446205e-07 
Loop time of 3.50796 on 104 procs for 302 steps with 288751 atoms

99.9% CPU use with 104 MPI tasks x 1 OpenMP threads

Minimization stats:
  Stopping criterion = energy tolerance
  Energy initial, next-to-last, final = 
     -1152449.27131085  -1152449.27217154  -1152449.27217154
  Force two-norm initial, final = 0.12455094 9.1937655e-07
  Force max component initial, final = 0.043134588 2.1446205e-07
  Final line search alpha, max atom move = 1.0000000 2.1446205e-07
  Iterations, force evaluations = 302 604

MPI task timing breakdown:
Section |  min time  |  avg time  |  max time  |%varavg| %total
---------------------------------------------------------------
Pair    | 0.90279    | 2.5362     | 3.3007     |  43.3 | 72.30
Neigh   | 0          | 0          | 0          |   0.0 |  0.00
Comm    | 0.054023   | 0.57304    | 1.7246     |  63.4 | 16.34
Output  | 0.00015371 | 0.00016403 | 0.00031021 |   0.0 |  0.00
Modify  | 3.7386e-05 | 0.0050023  | 0.01078    |   3.3 |  0.14
Other   |            | 0.3935     |            |       | 11.22

Nlocal:        2776.45 ave        3960 max           0 min
Histogram: 8 4 4 0 4 12 8 2 28 34
Nghost:        3879.11 ave        5424 max         232 min
Histogram: 8 0 8 0 16 0 8 8 16 40
Neighs:        79213.3 ave      115443 max           0 min
Histogram: 8 4 4 0 10 6 8 8 24 32

Total # of neighbors = 8238186
Ave neighs/atom = 28.530415
Neighbor list builds = 0
Dangerous builds = 0
The dot product: 1.32306247377086e-10
Setting atom values ...
  1 settings made for x
  1 settings made for y
  1 settings made for z
Setting up cg style minimization ...
  Unit style    : metal
  Current step  : 5158
Per MPI rank memory allocation (min/avg/max) = 5.441 | 5.816 | 6.074 Mbytes
Step PotEng KinEng TotEng v_fx v_fy v_fz 
    5158   -1152449.3            0   -1152449.3 -0.011014699 -0.008149822 -0.010611219 
    5344   -1152449.3            0   -1152449.3 -1.5895009e-05 -1.7454549e-05 -1.0801743e-05 
Loop time of 2.161 on 104 procs for 186 steps with 288751 atoms

99.9% CPU use with 104 MPI tasks x 1 OpenMP threads

Minimization stats:
  Stopping criterion = energy tolerance
  Energy initial, next-to-last, final = 
     -1152449.25535068   -1152449.2561984   -1152449.2561984
  Force two-norm initial, final = 0.12511835 0.00010604224
  Force max component initial, final = 0.044204232 2.4868981e-05
  Final line search alpha, max atom move = 1.0000000 2.4868981e-05
  Iterations, force evaluations = 186 372

MPI task timing breakdown:
Section |  min time  |  avg time  |  max time  |%varavg| %total
---------------------------------------------------------------
Pair    | 0.55674    | 1.5685     | 2.0384     |  33.9 | 72.58
Neigh   | 0          | 0          | 0          |   0.0 |  0.00
Comm    | 0.032022   | 0.35348    | 1.0622     |  49.7 | 16.36
Output  | 0          | 0          | 0          |   0.0 |  0.00
Modify  | 2.3616e-05 | 0.0030776  | 0.0066424  |   2.6 |  0.14
Other   |            | 0.236      |            |       | 10.92

Nlocal:        2776.45 ave        3960 max           0 min
Histogram: 8 4 4 0 4 12 8 2 28 34
Nghost:        3879.11 ave        5424 max         232 min
Histogram: 8 0 8 0 16 0 8 8 16 40
Neighs:        79213.3 ave      115442 max           0 min
Histogram: 8 4 4 0 10 6 8 8 24 32

Total # of neighbors = 8238187
Ave neighs/atom = 28.530419
Neighbor list builds = 0
Dangerous builds = 0
The dot product: 3.04816208473127e-08
Setting atom values ...
  1 settings made for x
  1 settings made for y
  1 settings made for z
Setting up cg style minimization ...
  Unit style    : metal
  Current step  : 5344
Per MPI rank memory allocation (min/avg/max) = 5.441 | 5.816 | 6.074 Mbytes
Step PotEng KinEng TotEng v_fx v_fy v_fz 
    5344   -1152449.2            0   -1152449.2 -0.014298219 -0.0096389969 -0.014610695 
    5504   -1152449.2            0   -1152449.2 -4.6821953e-05 -1.3555022e-05 -6.2115981e-05 
Loop time of 1.86669 on 104 procs for 160 steps with 288751 atoms

99.9% CPU use with 104 MPI tasks x 1 OpenMP threads

Minimization stats:
  Stopping criterion = energy tolerance
  Energy initial, next-to-last, final = 
     -1152449.23798776  -1152449.23882392  -1152449.23882392
  Force two-norm initial, final = 0.12633514 0.00024681848
  Force max component initial, final = 0.047462166 6.5482142e-05
  Final line search alpha, max atom move = 1.0000000 6.5482142e-05
  Iterations, force evaluations = 160 320

MPI task timing breakdown:
Section |  min time  |  avg time  |  max time  |%varavg| %total
---------------------------------------------------------------
Pair    | 0.4804     | 1.3445     | 1.7527     |  31.4 | 72.03
Neigh   | 0          | 0          | 0          |   0.0 |  0.00
Comm    | 0.035904   | 0.30482    | 0.91202    |  46.1 | 16.33
Output  | 0          | 0          | 0          |   0.0 |  0.00
Modify  | 2.109e-05  | 0.0026572  | 0.0056986  |   2.4 |  0.14
Other   |            | 0.2147     |            |       | 11.50

Nlocal:        2776.45 ave        3960 max           0 min
Histogram: 8 4 4 0 4 12 8 2 28 34
Nghost:        3879.12 ave        5424 max         232 min
Histogram: 8 0 8 0 16 0 8 8 16 40
Neighs:        79213.3 ave      115442 max           0 min
Histogram: 8 4 4 0 10 6 8 8 24 32

Total # of neighbors = 8238185
Ave neighs/atom = 28.530412
Neighbor list builds = 0
Dangerous builds = 0
The dot product: 1.65753120187638e-07
Setting atom values ...
  1 settings made for x
  1 settings made for y
  1 settings made for z
Setting up cg style minimization ...
  Unit style    : metal
  Current step  : 5504
Per MPI rank memory allocation (min/avg/max) = 5.441 | 5.816 | 6.074 Mbytes
Step PotEng KinEng TotEng v_fx v_fy v_fz 
    5504   -1152449.2            0   -1152449.2 -0.019375844 -0.010414188 -0.022107384 
    5760   -1152449.3            0   -1152449.3 1.9539333e-05 -1.4869669e-05 4.2452824e-05 
Loop time of 2.98735 on 104 procs for 256 steps with 288751 atoms

99.9% CPU use with 104 MPI tasks x 1 OpenMP threads

Minimization stats:
  Stopping criterion = energy tolerance
  Energy initial, next-to-last, final = 
     -1152449.21945029  -1152449.25004276  -1152449.25004276
  Force two-norm initial, final = 0.1303604 0.0001684001
  Force max component initial, final = 0.050719556 4.2452824e-05
  Final line search alpha, max atom move = 1.0000000 4.2452824e-05
  Iterations, force evaluations = 256 510

MPI task timing breakdown:
Section |  min time  |  avg time  |  max time  |%varavg| %total
---------------------------------------------------------------
Pair    | 0.77005    | 2.1474     | 2.7969     |  39.5 | 71.88
Neigh   | 1.0512e-05 | 0.0029581  | 0.0042773  |   2.2 |  0.10
Comm    | 0.046891   | 0.48386    | 1.4421     |  57.9 | 16.20
Output  | 0          | 0          | 0          |   0.0 |  0.00
Modify  | 3.257e-05  | 0.0042184  | 0.009078   |   3.1 |  0.14
Other   |            | 0.3489     |            |       | 11.68

Nlocal:        2776.45 ave        3960 max           0 min
Histogram: 8 4 4 0 4 12 8 2 28 34
Nghost:        3879.11 ave        5424 max         232 min
Histogram: 8 0 8 0 16 0 8 8 16 40
Neighs:        79213.2 ave      115442 max           0 min
Histogram: 8 4 4 0 10 6 8 8 24 32

Total # of neighbors = 8238172
Ave neighs/atom = 28.530367
Neighbor list builds = 1
Dangerous builds = 0
The dot product: -4.02235872374391e-06
Setting atom values ...
  1 settings made for x
  1 settings made for y
  1 settings made for z
Setting up cg style minimization ...
  Unit style    : metal
  Current step  : 5760
Per MPI rank memory allocation (min/avg/max) = 5.441 | 5.816 | 6.074 Mbytes
Step PotEng KinEng TotEng v_fx v_fy v_fz 
    5760   -1152449.2            0   -1152449.2 -0.027969781  -0.03390576 -0.023768724 
    5978   -1152449.2            0   -1152449.2 2.8029117e-06 -6.8155322e-06 1.3498299e-05 
Loop time of 2.51962 on 104 procs for 218 steps with 288751 atoms

99.9% CPU use with 104 MPI tasks x 1 OpenMP threads

Minimization stats:
  Stopping criterion = energy tolerance
  Energy initial, next-to-last, final = 
     -1152449.24563914  -1152449.24930803  -1152449.24930803
  Force two-norm initial, final = 0.15068729 0.00014463405
  Force max component initial, final = 0.055843448 2.2169679e-05
  Final line search alpha, max atom move = 1.0000000 2.2169679e-05
  Iterations, force evaluations = 218 436

MPI task timing breakdown:
Section |  min time  |  avg time  |  max time  |%varavg| %total
---------------------------------------------------------------
Pair    | 0.65721    | 1.8241     | 2.3737     |  36.5 | 72.40
Neigh   | 0          | 0          | 0          |   0.0 |  0.00
Comm    | 0.041474   | 0.4095     | 1.2291     |  53.6 | 16.25
Output  | 0          | 0          | 0          |   0.0 |  0.00
Modify  | 2.6546e-05 | 0.003602   | 0.0076489  |   2.8 |  0.14
Other   |            | 0.2824     |            |       | 11.21

Nlocal:        2776.45 ave        3960 max           0 min
Histogram: 8 4 4 0 4 12 8 2 28 34
Nghost:        3879.01 ave        5424 max         232 min
Histogram: 8 0 8 0 16 0 8 8 16 40
Neighs:        79213.3 ave      115434 max           0 min
Histogram: 8 4 4 0 10 6 8 8 24 32

Total # of neighbors = 8238183
Ave neighs/atom = 28.530405
Neighbor list builds = 0
Dangerous builds = 0
The dot product: -9.17683257346993e-08
Setting atom values ...
  1 settings made for x
  1 settings made for y
  1 settings made for z
Setting up cg style minimization ...
  Unit style    : metal
  Current step  : 5978
Per MPI rank memory allocation (min/avg/max) = 5.441 | 5.816 | 6.074 Mbytes
Step PotEng KinEng TotEng v_fx v_fy v_fz 
    5978   -1152449.3            0   -1152449.3 -0.014973835 -0.038239721 0.0010366248 
    6000   -1152449.3            0   -1152449.3 0.00046982717 2.7412614e-05 0.0011490147 
    6143   -1152449.3            0   -1152449.3 -2.0970444e-05 7.732592e-06 -6.0311382e-05 
Loop time of 1.93085 on 104 procs for 165 steps with 288751 atoms

99.9% CPU use with 104 MPI tasks x 1 OpenMP threads

Minimization stats:
  Stopping criterion = energy tolerance
  Energy initial, next-to-last, final = 
     -1152449.25028529  -1152449.25219131  -1152449.25219131
  Force two-norm initial, final = 0.15358635 0.00022630811
  Force max component initial, final = 0.055064479 6.0311382e-05
  Final line search alpha, max atom move = 1.0000000 6.0311382e-05
  Iterations, force evaluations = 165 330

MPI task timing breakdown:
Section |  min time  |  avg time  |  max time  |%varavg| %total
---------------------------------------------------------------
Pair    | 0.49466    | 1.3931     | 1.8222     |  32.0 | 72.15
Neigh   | 0          | 0          | 0          |   0.0 |  0.00
Comm    | 0.029299   | 0.31876    | 0.94775    |  46.4 | 16.51
Output  | 0.00014642 | 0.00015807 | 0.00023919 |   0.0 |  0.01
Modify  | 2.0695e-05 | 0.0027331  | 0.0058551  |   2.5 |  0.14
Other   |            | 0.2161     |            |       | 11.19

Nlocal:        2776.45 ave        3961 max           0 min
Histogram: 8 4 4 0 6 10 8 2 28 34
Nghost:        3879.09 ave        5424 max         232 min
Histogram: 8 0 8 0 16 0 8 8 16 40
Neighs:        79213.3 ave      115455 max           0 min
Histogram: 8 4 4 0 10 6 8 8 24 32

Total # of neighbors = 8238186
Ave neighs/atom = 28.530415
Neighbor list builds = 0
Dangerous builds = 0
The dot product: 4.97800385504448e-07
Setting atom values ...
  1 settings made for x
  1 settings made for y
  1 settings made for z
Setting up cg style minimization ...
  Unit style    : metal
  Current step  : 6143
Per MPI rank memory allocation (min/avg/max) = 5.441 | 5.816 | 6.074 Mbytes
Step PotEng KinEng TotEng v_fx v_fy v_fz 
    6143   -1152449.3            0   -1152449.3 -0.014299659 -0.049347479  0.012704236 
    6212   -1152449.3            0   -1152449.3 -4.1521506e-06 1.2879913e-05 -2.3845557e-05 
Loop time of 0.805913 on 104 procs for 69 steps with 288751 atoms

99.9% CPU use with 104 MPI tasks x 1 OpenMP threads

Minimization stats:
  Stopping criterion = energy tolerance
  Energy initial, next-to-last, final = 
     -1152449.25427314  -1152449.25547297  -1152449.25547297
  Force two-norm initial, final = 0.15223731 0.00027482369
  Force max component initial, final = 0.055436855 2.6556022e-05
  Final line search alpha, max atom move = 1.0000000 2.6556022e-05
  Iterations, force evaluations = 69 138

MPI task timing breakdown:
Section |  min time  |  avg time  |  max time  |%varavg| %total
---------------------------------------------------------------
Pair    | 0.20775    | 0.58087    | 0.75806    |  20.7 | 72.08
Neigh   | 0          | 0          | 0          |   0.0 |  0.00
Comm    | 0.013644   | 0.13105    | 0.39217    |  30.2 | 16.26
Output  | 0          | 0          | 0          |   0.0 |  0.00
Modify  | 8.8552e-06 | 0.0011485  | 0.0024684  |   1.6 |  0.14
Other   |            | 0.09284    |            |       | 11.52

Nlocal:        2776.45 ave        3961 max           0 min
Histogram: 8 4 4 0 6 10 8 2 28 34
Nghost:        3879.09 ave        5424 max         232 min
Histogram: 8 0 8 0 16 0 8 8 16 40
Neighs:        79213.3 ave      115455 max           0 min
Histogram: 8 4 4 0 10 6 8 8 24 32

Total # of neighbors = 8238182
Ave neighs/atom = 28.530402
Neighbor list builds = 0
Dangerous builds = 0
The dot product: -4.04868478871951e-08
Setting atom values ...
  1 settings made for x
  1 settings made for y
  1 settings made for z
Setting up cg style minimization ...
  Unit style    : metal
  Current step  : 6212
Per MPI rank memory allocation (min/avg/max) = 5.441 | 5.816 | 6.074 Mbytes
Step PotEng KinEng TotEng v_fx v_fy v_fz 
    6212   -1152449.3            0   -1152449.3 -0.013642649 -0.057466371  0.020562648 
    6455   -1152449.3            0   -1152449.3 2.9794136e-06 8.9404419e-06 -9.3274532e-07 
Loop time of 2.87648 on 104 procs for 243 steps with 288751 atoms

99.9% CPU use with 104 MPI tasks x 1 OpenMP threads

Minimization stats:
  Stopping criterion = energy tolerance
  Energy initial, next-to-last, final = 
     -1152449.25693238   -1152449.2975605   -1152449.2975605
  Force two-norm initial, final = 0.1574778 0.00011088046
  Force max component initial, final = 0.057466371 8.9404419e-06
  Final line search alpha, max atom move = 1.0000000 8.9404419e-06
  Iterations, force evaluations = 243 485

MPI task timing breakdown:
Section |  min time  |  avg time  |  max time  |%varavg| %total
---------------------------------------------------------------
Pair    | 0.73882    | 2.0574     | 2.6969     |  38.6 | 71.52
Neigh   | 1.0262e-05 | 0.0029389  | 0.0042727  |   2.2 |  0.10
Comm    | 0.049474   | 0.47281    | 1.3933     |  55.9 | 16.44
Output  | 0          | 0          | 0          |   0.0 |  0.00
Modify  | 2.9113e-05 | 0.0040211  | 0.0086632  |   3.0 |  0.14
Other   |            | 0.3393     |            |       | 11.80

Nlocal:        2776.45 ave        3961 max           0 min
Histogram: 8 4 4 0 6 10 8 2 28 34
Nghost:        3879.09 ave        5424 max         232 min
Histogram: 8 0 8 0 16 0 8 8 16 40
Neighs:        79213.4 ave      115455 max           0 min
Histogram: 8 4 4 0 10 6 8 8 24 32

Total # of neighbors = 8238197
Ave neighs/atom = 28.530454
Neighbor list builds = 1
Dangerous builds = 0
The dot product: -1.1920406291237e-06
Setting atom values ...
  1 settings made for x
  1 settings made for y
  1 settings made for z
Setting up cg style minimization ...
  Unit style    : metal
  Current step  : 6455
Per MPI rank memory allocation (min/avg/max) = 5.441 | 5.816 | 6.074 Mbytes
Step PotEng KinEng TotEng v_fx v_fy v_fz 
    6455   -1152449.3            0   -1152449.3   0.02876779  0.058991208  0.058750124 
    6675   -1152449.3            0   -1152449.3 6.5252204e-06 4.2016847e-06 1.8525982e-05 
Loop time of 2.60125 on 104 procs for 220 steps with 288751 atoms

99.9% CPU use with 104 MPI tasks x 1 OpenMP threads

Minimization stats:
  Stopping criterion = energy tolerance
  Energy initial, next-to-last, final = 
     -1152449.30887589  -1152449.31115717  -1152449.31115717
  Force two-norm initial, final = 0.16257896 5.8725011e-05
  Force max component initial, final = 0.058991208 1.8525982e-05
  Final line search alpha, max atom move = 1.0000000 1.8525982e-05
  Iterations, force evaluations = 220 440

MPI task timing breakdown:
Section |  min time  |  avg time  |  max time  |%varavg| %total
---------------------------------------------------------------
Pair    | 0.65903    | 1.8555     | 2.4166     |  37.2 | 71.33
Neigh   | 0          | 0          | 0          |   0.0 |  0.00
Comm    | 0.04283    | 0.42218    | 1.2511     |  53.4 | 16.23
Output  | 0          | 0          | 0          |   0.0 |  0.00
Modify  | 2.6808e-05 | 0.0036521  | 0.0077247  |   2.8 |  0.14
Other   |            | 0.3199     |            |       | 12.30

Nlocal:        2776.45 ave        3959 max           0 min
Histogram: 8 4 4 0 4 12 8 5 25 34
Nghost:        3879.07 ave        5426 max         232 min
Histogram: 8 0 8 0 16 0 8 8 16 40
Neighs:        79213.4 ave      115390 max           0 min
Histogram: 8 4 4 0 10 6 8 8 24 32

Total # of neighbors = 8238197
Ave neighs/atom = 28.530454
Neighbor list builds = 0
Dangerous builds = 0
The dot product: 2.47017394123049e-07
Setting atom values ...
  1 settings made for x
  1 settings made for y
  1 settings made for z
Setting up cg style minimization ...
  Unit style    : metal
  Current step  : 6675
Per MPI rank memory allocation (min/avg/max) = 5.441 | 5.816 | 6.074 Mbytes
Step PotEng KinEng TotEng v_fx v_fy v_fz 
    6675   -1152449.3            0   -1152449.3 -0.0060447479 -0.071113985  0.027074865 
    6897   -1152449.3            0   -1152449.3 2.2440679e-06 1.699456e-06 5.842066e-06 
Loop time of 2.60823 on 104 procs for 222 steps with 288751 atoms

99.9% CPU use with 104 MPI tasks x 1 OpenMP threads

Minimization stats:
  Stopping criterion = energy tolerance
  Energy initial, next-to-last, final = 
     -1152449.32050375   -1152449.3217481   -1152449.3217481
  Force two-norm initial, final = 0.16162749 2.8575428e-05
  Force max component initial, final = 0.071113985 5.8420660e-06
  Final line search alpha, max atom move = 1.0000000 5.8420660e-06
  Iterations, force evaluations = 222 444

MPI task timing breakdown:
Section |  min time  |  avg time  |  max time  |%varavg| %total
---------------------------------------------------------------
Pair    | 0.67111    | 1.8721     | 2.4432     |  36.9 | 71.78
Neigh   | 0          | 0          | 0          |   0.0 |  0.00
Comm    | 0.039927   | 0.4249     | 1.2669     |  53.8 | 16.29
Output  | 0          | 0          | 0          |   0.0 |  0.00
Modify  | 2.6457e-05 | 0.0036781  | 0.0079332  |   2.9 |  0.14
Other   |            | 0.3075     |            |       | 11.79

Nlocal:        2776.45 ave        3960 max           0 min
Histogram: 8 4 4 0 4 12 8 4 26 34
Nghost:        3879.01 ave        5428 max         232 min
Histogram: 8 0 8 0 16 0 8 8 16 40
Neighs:        79213.4 ave      115422 max           0 min
Histogram: 8 4 4 0 10 6 8 8 24 32

Total # of neighbors = 8238195
Ave neighs/atom = 28.530447
Neighbor list builds = 0
Dangerous builds = 0
The dot product: -7.81337319459446e-09
Setting atom values ...
  1 settings made for x
  1 settings made for y
  1 settings made for z
Setting up cg style minimization ...
  Unit style    : metal
  Current step  : 6897
Per MPI rank memory allocation (min/avg/max) = 5.441 | 5.816 | 6.074 Mbytes
Step PotEng KinEng TotEng v_fx v_fy v_fz 
    6897   -1152449.3            0   -1152449.3 -0.00050306711 -0.053804832  0.031384868 
    7000   -1152449.3            0   -1152449.3 -1.7467816e-05 2.8022032e-05 -7.0978809e-05 
    7097   -1152449.3            0   -1152449.3 -1.2055144e-06 -9.3493702e-06 2.0082255e-06 
Loop time of 2.33079 on 104 procs for 200 steps with 288751 atoms

99.9% CPU use with 104 MPI tasks x 1 OpenMP threads

Minimization stats:
  Stopping criterion = energy tolerance
  Energy initial, next-to-last, final = 
     -1152449.32952477  -1152449.33070903  -1152449.33070903
  Force two-norm initial, final = 0.15651181 6.8195076e-05
  Force max component initial, final = 0.054019144 9.3493702e-06
  Final line search alpha, max atom move = 1.0000000 9.3493702e-06
  Iterations, force evaluations = 200 400

MPI task timing breakdown:
Section |  min time  |  avg time  |  max time  |%varavg| %total
---------------------------------------------------------------
Pair    | 0.60095    | 1.6803     | 2.1874     |  35.1 | 72.09
Neigh   | 0          | 0          | 0          |   0.0 |  0.00
Comm    | 0.0384     | 0.37999    | 1.141      |  51.6 | 16.30
Output  | 0.00017536 | 0.00018072 | 0.00032952 |   0.0 |  0.01
Modify  | 2.4479e-05 | 0.0033128  | 0.0070945  |   2.7 |  0.14
Other   |            | 0.267      |            |       | 11.46

Nlocal:        2776.45 ave        3961 max           0 min
Histogram: 8 4 4 0 6 10 8 4 26 34
Nghost:        3879.07 ave        5429 max         232 min
Histogram: 8 0 8 0 16 0 8 8 16 40
Neighs:        79213.4 ave      115445 max           0 min
Histogram: 8 4 4 0 10 6 8 8 24 32

Total # of neighbors = 8238197
Ave neighs/atom = 28.530454
Neighbor list builds = 0
Dangerous builds = 0
The dot product: 2.80295661214425e-08
Setting atom values ...
  1 settings made for x
  1 settings made for y
  1 settings made for z
Setting up cg style minimization ...
  Unit style    : metal
  Current step  : 7097
Per MPI rank memory allocation (min/avg/max) = 5.441 | 5.816 | 6.074 Mbytes
Step PotEng KinEng TotEng v_fx v_fy v_fz 
    7097   -1152449.3            0   -1152449.3 -0.0012669969 -0.058252627   0.03090966 
    7333   -1152449.3            0   -1152449.3 9.617823e-07 -2.4962317e-06 4.4330687e-06 
Loop time of 2.74434 on 104 procs for 236 steps with 288751 atoms

99.9% CPU use with 104 MPI tasks x 1 OpenMP threads

Minimization stats:
  Stopping criterion = energy tolerance
  Energy initial, next-to-last, final = 
     -1152449.33685225   -1152449.3380685   -1152449.3380685
  Force two-norm initial, final = 0.15888621 1.6919896e-05
  Force max component initial, final = 0.058252627 4.4330687e-06
  Final line search alpha, max atom move = 1.0000000 4.4330687e-06
  Iterations, force evaluations = 236 472

MPI task timing breakdown:
Section |  min time  |  avg time  |  max time  |%varavg| %total
---------------------------------------------------------------
Pair    | 0.70803    | 1.9908     | 2.5856     |  38.2 | 72.54
Neigh   | 0          | 0          | 0          |   0.0 |  0.00
Comm    | 0.042185   | 0.45048    | 1.3465     |  56.0 | 16.41
Output  | 0          | 0          | 0          |   0.0 |  0.00
Modify  | 3.0122e-05 | 0.0039076  | 0.0083997  |   3.0 |  0.14
Other   |            | 0.2992     |            |       | 10.90

Nlocal:        2776.45 ave        3961 max           0 min
Histogram: 8 4 4 0 6 10 8 4 26 34
Nghost:        3879.07 ave        5429 max         232 min
Histogram: 8 0 8 0 16 0 8 8 16 40
Neighs:        79213.4 ave      115445 max           0 min
Histogram: 8 4 4 0 10 6 8 8 24 32

Total # of neighbors = 8238197
Ave neighs/atom = 28.530454
Neighbor list builds = 0
Dangerous builds = 0
The dot product: 1.63948469262677e-08
Setting atom values ...
  1 settings made for x
  1 settings made for y
  1 settings made for z
Setting up cg style minimization ...
  Unit style    : metal
  Current step  : 7333
Per MPI rank memory allocation (min/avg/max) = 5.441 | 5.816 | 6.074 Mbytes
Step PotEng KinEng TotEng v_fx v_fy v_fz 
    7333   -1152449.3            0   -1152449.3 -0.0013002709 -0.058789396  0.030120875 
    7479   -1152449.3            0   -1152449.3 1.7410265e-05 3.9870038e-06 5.0586457e-05 
[...]
Histogram: 8 0 8 0 16 0 8 8 16 40
Neighs:        79213.5 ave      115382 max           0 min
Histogram: 8 4 4 0 10 6 8 8 24 32

Total # of neighbors = 8238200
Ave neighs/atom = 28.530464
Neighbor list builds = 0
Dangerous builds = 0
The dot product: -9.89349005666964e-08
Setting atom values ...
  1 settings made for x
  1 settings made for y
  1 settings made for z
Setting up cg style minimization ...
  Unit style    : metal
  Current step  : 26767
Per MPI rank memory allocation (min/avg/max) = 5.441 | 5.816 | 6.074 Mbytes
Step PotEng KinEng TotEng v_fx v_fy v_fz 
   26767   -1152449.4            0   -1152449.4 -0.029745397  0.008219728 -0.042275692 
   26931   -1152449.4            0   -1152449.4 -1.9949661e-05 5.5124323e-05 -2.8282843e-05 
Loop time of 1.90926 on 104 procs for 164 steps with 288751 atoms

99.9% CPU use with 104 MPI tasks x 1 OpenMP threads

Minimization stats:
  Stopping criterion = energy tolerance
  Energy initial, next-to-last, final = 
     -1152449.43343163  -1152449.43488141  -1152449.43488141
  Force two-norm initial, final = 0.1736967 0.00028078025
  Force max component initial, final = 0.074359305 5.5124323e-05
  Final line search alpha, max atom move = 1.0000000 5.5124323e-05
  Iterations, force evaluations = 164 328

MPI task timing breakdown:
Section |  min time  |  avg time  |  max time  |%varavg| %total
---------------------------------------------------------------
Pair    | 0.49071    | 1.3811     | 1.7954     |  31.8 | 72.34
Neigh   | 0          | 0          | 0          |   0.0 |  0.00
Comm    | 0.027604   | 0.31656    | 0.96286    |  46.7 | 16.58
Output  | 0          | 0          | 0          |   0.0 |  0.00
Modify  | 2.1373e-05 | 0.0027188  | 0.0058241  |   2.5 |  0.14
Other   |            | 0.2089     |            |       | 10.94

Nlocal:        2776.45 ave        3961 max           0 min
Histogram: 8 4 4 0 6 10 8 4 26 34
Nghost:        3879.09 ave        5424 max         232 min
Histogram: 8 0 8 0 16 0 8 8 16 40
Neighs:        79213.5 ave      115382 max           0 min
Histogram: 8 4 4 0 10 6 8 8 24 32

Total # of neighbors = 8238200
Ave neighs/atom = 28.530464
Neighbor list builds = 0
Dangerous builds = 0
The dot product: 6.68369592417151e-08
Setting atom values ...
  1 settings made for x
  1 settings made for y
  1 settings made for z
Setting up cg style minimization ...
  Unit style    : metal
  Current step  : 26931
Per MPI rank memory allocation (min/avg/max) = 5.441 | 5.816 | 6.074 Mbytes
Step PotEng KinEng TotEng v_fx v_fy v_fz 
   26931   -1152449.4            0   -1152449.4 -0.028448365  0.012049992 -0.040522227 
   27000   -1152449.4            0   -1152449.4  4.29132e-05 -8.0900525e-05 6.1000125e-05 
   27154   -1152449.4            0   -1152449.4 2.9769556e-07 -5.7743823e-06 4.126947e-07 
Loop time of 2.58559 on 104 procs for 223 steps with 288751 atoms

99.9% CPU use with 104 MPI tasks x 1 OpenMP threads

Minimization stats:
  Stopping criterion = energy tolerance
  Energy initial, next-to-last, final = 
     -1152449.42793961  -1152449.42934201  -1152449.42934201
  Force two-norm initial, final = 0.17106516 3.0997245e-05
  Force max component initial, final = 0.07361853 5.7743823e-06
  Final line search alpha, max atom move = 1.0000000 5.7743823e-06
  Iterations, force evaluations = 223 446

MPI task timing breakdown:
Section |  min time  |  avg time  |  max time  |%varavg| %total
---------------------------------------------------------------
Pair    | 0.66993    | 1.8733     | 2.4375     |  37.0 | 72.45
Neigh   | 0          | 0          | 0          |   0.0 |  0.00
Comm    | 0.03985    | 0.42469    | 1.2809     |  54.3 | 16.43
Output  | 0.00015099 | 0.0001604  | 0.0002849  |   0.0 |  0.01
Modify  | 2.6736e-05 | 0.0036959  | 0.00796    |   2.9 |  0.14
Other   |            | 0.2838     |            |       | 10.97

Nlocal:        2776.45 ave        3960 max           0 min
Histogram: 8 4 4 0 4 12 8 4 26 34
Nghost:        3879.12 ave        5425 max         232 min
Histogram: 8 0 8 0 16 0 8 8 16 40
Neighs:        79213.5 ave      115353 max           0 min
Histogram: 8 4 4 0 10 6 8 8 24 32

Total # of neighbors = 8238205
Ave neighs/atom = 28.530481
Neighbor list builds = 0
Dangerous builds = 0
The dot product: 1.6324120191465e-09
Setting atom values ...
  1 settings made for x
  1 settings made for y
  1 settings made for z
Setting up cg style minimization ...
  Unit style    : metal
  Current step  : 27154
Per MPI rank memory allocation (min/avg/max) = 5.441 | 5.816 | 6.074 Mbytes
Step PotEng KinEng TotEng v_fx v_fy v_fz 
   27154   -1152449.4            0   -1152449.4 -0.026843998  0.016670603   -0.0383109 
   27403   -1152449.4            0   -1152449.4 1.9562167e-06 2.3915353e-07 2.7952678e-06 
Loop time of 2.89677 on 104 procs for 249 steps with 288751 atoms

99.9% CPU use with 104 MPI tasks x 1 OpenMP threads

Minimization stats:
  Stopping criterion = energy tolerance
  Energy initial, next-to-last, final = 
     -1152449.42084665  -1152449.42219438  -1152449.42219438
  Force two-norm initial, final = 0.16831865 9.4520022e-06
  Force max component initial, final = 0.072750869 2.7952678e-06
  Final line search alpha, max atom move = 1.0000000 2.7952678e-06
  Iterations, force evaluations = 249 498

MPI task timing breakdown:
Section |  min time  |  avg time  |  max time  |%varavg| %total
---------------------------------------------------------------
Pair    | 0.74855    | 2.0929     | 2.7308     |  39.2 | 72.25
Neigh   | 0          | 0          | 0          |   0.0 |  0.00
Comm    | 0.045586   | 0.48068    | 1.4526     |  57.0 | 16.59
Output  | 0          | 0          | 0          |   0.0 |  0.00
Modify  | 3.08e-05   | 0.0041213  | 0.0088335  |   3.0 |  0.14
Other   |            | 0.3191     |            |       | 11.01

Nlocal:        2776.45 ave        3960 max           0 min
Histogram: 8 4 4 0 4 12 8 4 26 34
Nghost:        3879.16 ave        5426 max         232 min
Histogram: 8 0 8 0 16 0 8 8 16 40
Neighs:        79213.5 ave      115356 max           0 min
Histogram: 8 4 4 0 10 6 8 8 24 32

Total # of neighbors = 8238206
Ave neighs/atom = 28.530485
Neighbor list builds = 0
Dangerous builds = 0
The dot product: -1.04056794471342e-08
Setting atom values ...
  1 settings made for x
  1 settings made for y
  1 settings made for z
Setting up cg style minimization ...
  Unit style    : metal
  Current step  : 27403
Per MPI rank memory allocation (min/avg/max) = 5.441 | 5.816 | 6.074 Mbytes
Step PotEng KinEng TotEng v_fx v_fy v_fz 
   27403   -1152449.4            0   -1152449.4 -0.024857288  0.022678243 -0.035536232 
   27574   -1152449.4            0   -1152449.4 5.2449564e-06 1.6441541e-05 7.5485385e-06 
Loop time of 1.99998 on 104 procs for 171 steps with 288751 atoms

99.9% CPU use with 104 MPI tasks x 1 OpenMP threads

Minimization stats:
  Stopping criterion = energy tolerance
  Energy initial, next-to-last, final = 
     -1152449.41221993  -1152449.41351209  -1152449.41351209
  Force two-norm initial, final = 0.1659336 0.00021600994
  Force max component initial, final = 0.071931706 4.2505964e-05
  Final line search alpha, max atom move = 1.0000000 4.2505964e-05
  Iterations, force evaluations = 171 342

MPI task timing breakdown:
Section |  min time  |  avg time  |  max time  |%varavg| %total
---------------------------------------------------------------
Pair    | 0.51298    | 1.4362     | 1.8809     |  32.5 | 71.81
Neigh   | 0          | 0          | 0          |   0.0 |  0.00
Comm    | 0.028716   | 0.32998    | 0.99612    |  47.2 | 16.50
Output  | 0          | 0          | 0          |   0.0 |  0.00
Modify  | 2.0188e-05 | 0.0028348  | 0.006102   |   2.5 |  0.14
Other   |            | 0.231      |            |       | 11.55

Nlocal:        2776.45 ave        3960 max           0 min
Histogram: 8 4 4 0 4 12 8 4 26 34
Nghost:        3879.20 ave        5426 max         232 min
Histogram: 8 0 8 0 16 0 8 8 16 40
Neighs:        79213.5 ave      115361 max           0 min
Histogram: 8 4 4 0 10 6 8 8 24 32

Total # of neighbors = 8238207
Ave neighs/atom = 28.530488
Neighbor list builds = 0
Dangerous builds = 0
The dot product: -1.27518423967144e-08
Setting atom values ...
  1 settings made for x
  1 settings made for y
  1 settings made for z
Setting up cg style minimization ...
  Unit style    : metal
  Current step  : 27574
Per MPI rank memory allocation (min/avg/max) = 5.441 | 5.816 | 6.074 Mbytes
Step PotEng KinEng TotEng v_fx v_fy v_fz 
   27574   -1152449.4            0   -1152449.4 -0.021841227  0.031794888 -0.031274214 
   27734   -1152449.4            0   -1152449.4 -2.4883792e-05 2.007597e-05 -3.5661577e-05 
Loop time of 1.87383 on 104 procs for 160 steps with 288751 atoms

99.9% CPU use with 104 MPI tasks x 1 OpenMP threads

Minimization stats:
  Stopping criterion = energy tolerance
  Energy initial, next-to-last, final = 
     -1152449.40223578  -1152449.40349614  -1152449.40349614
  Force two-norm initial, final = 0.1648824 0.00022226366
  Force max component initial, final = 0.071657643 5.5061439e-05
  Final line search alpha, max atom move = 1.0000000 5.5061439e-05
  Iterations, force evaluations = 160 320

MPI task timing breakdown:
Section |  min time  |  avg time  |  max time  |%varavg| %total
---------------------------------------------------------------
Pair    | 0.48195    | 1.3473     | 1.7556     |  31.4 | 71.90
Neigh   | 0          | 0          | 0          |   0.0 |  0.00
Comm    | 0.028382   | 0.30832    | 0.94039    |  45.8 | 16.45
Output  | 0          | 0          | 0          |   0.0 |  0.00
Modify  | 1.9628e-05 | 0.00266    | 0.0057413  |   2.4 |  0.14
Other   |            | 0.2155     |            |       | 11.50

Nlocal:        2776.45 ave        3960 max           0 min
Histogram: 8 4 4 0 4 12 8 4 26 34
Nghost:        3879.20 ave        5426 max         232 min
Histogram: 8 0 8 0 16 0 8 8 16 40
Neighs:        79213.5 ave      115361 max           0 min
Histogram: 8 4 4 0 10 6 8 8 24 32

Total # of neighbors = 8238204
Ave neighs/atom = 28.530478
Neighbor list builds = 0
Dangerous builds = 0
The dot product: 1.58905844759209e-07
Setting atom values ...
  1 settings made for x
  1 settings made for y
  1 settings made for z
Setting up cg style minimization ...
  Unit style    : metal
  Current step  : 27734
Per MPI rank memory allocation (min/avg/max) = 5.441 | 5.816 | 6.074 Mbytes
Step PotEng KinEng TotEng v_fx v_fy v_fz 
   27734   -1152449.4            0   -1152449.4 -0.018259944  0.042843151 -0.026232725 
   27784   -1152449.4            0   -1152449.4 -2.3354412e-05 1.3461236e-05 -3.3557852e-05 
Loop time of 0.596042 on 104 procs for 50 steps with 288751 atoms

99.9% CPU use with 104 MPI tasks x 1 OpenMP threads

Minimization stats:
  Stopping criterion = energy tolerance
  Energy initial, next-to-last, final = 
     -1152449.39132312  -1152449.39281541  -1152449.39281541
  Force two-norm initial, final = 0.16748317 0.00019889032
  Force max component initial, final = 0.071365868 4.8858192e-05
  Final line search alpha, max atom move = 1.0000000 4.8858192e-05
  Iterations, force evaluations = 50 100

MPI task timing breakdown:
Section |  min time  |  avg time  |  max time  |%varavg| %total
---------------------------------------------------------------
Pair    | 0.15119    | 0.42395    | 0.55528    |  17.6 | 71.13
Neigh   | 0          | 0          | 0          |   0.0 |  0.00
Comm    | 0.0086215  | 0.098496   | 0.29231    |  25.4 | 16.53
Output  | 0          | 0          | 0          |   0.0 |  0.00
Modify  | 6.4154e-06 | 0.00083493 | 0.0017769  |   0.0 |  0.14
Other   |            | 0.07276    |            |       | 12.21

Nlocal:        2776.45 ave        3960 max           0 min
Histogram: 8 4 4 0 4 12 8 4 26 34
Nghost:        3879.18 ave        5425 max         232 min
Histogram: 8 0 8 0 16 0 8 8 16 40
Neighs:        79213.5 ave      115361 max           0 min
Histogram: 8 4 4 0 10 6 8 8 24 32

Total # of neighbors = 8238204
Ave neighs/atom = 28.530478
Neighbor list builds = 0
Dangerous builds = 0
The dot product: 1.72186806120009e-07
Setting atom values ...
  1 settings made for x
  1 settings made for y
  1 settings made for z
Setting up cg style minimization ...
  Unit style    : metal
  Current step  : 27784
Per MPI rank memory allocation (min/avg/max) = 5.441 | 5.816 | 6.074 Mbytes
Step PotEng KinEng TotEng v_fx v_fy v_fz 
   27784   -1152449.4            0   -1152449.4 -0.015184007  0.053147417 -0.022135023 
   27972   -1152449.4            0   -1152449.4 -4.8216705e-07 -1.5205137e-05 -6.0696886e-07 
Loop time of 2.19049 on 104 procs for 188 steps with 288751 atoms

99.9% CPU use with 104 MPI tasks x 1 OpenMP threads

Minimization stats:
  Stopping criterion = energy tolerance
  Energy initial, next-to-last, final = 
     -1152449.38080921  -1152449.38279753  -1152449.38279753
  Force two-norm initial, final = 0.17132174 8.7104876e-05
  Force max component initial, final = 0.070076793 1.5729946e-05
  Final line search alpha, max atom move = 1.0000000 1.5729946e-05
  Iterations, force evaluations = 188 376

MPI task timing breakdown:
Section |  min time  |  avg time  |  max time  |%varavg| %total
---------------------------------------------------------------
Pair    | 0.56452    | 1.5824     | 2.0623     |  34.1 | 72.24
Neigh   | 0          | 0          | 0          |   0.0 |  0.00
Comm    | 0.031585   | 0.36273    | 1.0972     |  49.8 | 16.56
Output  | 0          | 0          | 0          |   0.0 |  0.00
Modify  | 2.218e-05  | 0.003112   | 0.0066669  |   2.6 |  0.14
Other   |            | 0.2422     |            |       | 11.06

Nlocal:        2776.45 ave        3960 max           0 min
Histogram: 8 4 4 0 4 12 8 4 26 34
Nghost:        3879.18 ave        5425 max         232 min
Histogram: 8 0 8 0 16 0 8 8 16 40
Neighs:        79213.5 ave      115361 max           0 min
Histogram: 8 4 4 0 10 6 8 8 24 32

Total # of neighbors = 8238206
Ave neighs/atom = 28.530485
Neighbor list builds = 0
Dangerous builds = 0
The dot product: -2.6396272256628e-07
Setting atom values ...
  1 settings made for x
  1 settings made for y
  1 settings made for z
Setting up cg style minimization ...
  Unit style    : metal
  Current step  : 27972
Per MPI rank memory allocation (min/avg/max) = 5.441 | 5.816 | 6.074 Mbytes
Step PotEng KinEng TotEng v_fx v_fy v_fz 
   27972   -1152449.4            0   -1152449.4 -0.014774345  0.052418711  -0.02206486 
   28000   -1152449.4            0   -1152449.4 -2.6480575e-05 -0.00012701437 -3.6078516e-05 
   28030   -1152449.4            0   -1152449.4 -2.7759076e-05 -1.3071092e-06 -3.9890255e-05 
Loop time of 0.677613 on 104 procs for 58 steps with 288751 atoms

99.9% CPU use with 104 MPI tasks x 1 OpenMP threads

Minimization stats:
  Stopping criterion = energy tolerance
  Energy initial, next-to-last, final = 
     -1152449.37165416   -1152449.3732887   -1152449.3732887
  Force two-norm initial, final = 0.16717685 0.0002149939
  Force max component initial, final = 0.070093585 3.9890255e-05
  Final line search alpha, max atom move = 1.0000000 3.9890255e-05
  Iterations, force evaluations = 58 116

MPI task timing breakdown:
Section |  min time  |  avg time  |  max time  |%varavg| %total
---------------------------------------------------------------
Pair    | 0.17506    | 0.49008    | 0.63765    |  19.0 | 72.33
Neigh   | 0          | 0          | 0          |   0.0 |  0.00
Comm    | 0.009971   | 0.11254    | 0.33548    |  27.5 | 16.61
Output  | 0.00016311 | 0.00016584 | 0.00025987 |   0.0 |  0.02
Modify  | 7.3137e-06 | 0.00096535 | 0.0020674  |   0.0 |  0.14
Other   |            | 0.07386    |            |       | 10.90

Nlocal:        2776.45 ave        3960 max           0 min
Histogram: 8 4 4 0 4 12 8 4 26 34
Nghost:        3879.20 ave        5426 max         232 min
Histogram: 8 0 8 0 16 0 8 8 16 40
Neighs:        79213.5 ave      115361 max           0 min
Histogram: 8 4 4 0 10 6 8 8 24 32

Total # of neighbors = 8238205
Ave neighs/atom = 28.530481
Neighbor list builds = 0
Dangerous builds = 0
The dot product: 1.88703652181964e-09
Setting atom values ...
  1 settings made for x
  1 settings made for y
  1 settings made for z
Setting up cg style minimization ...
  Unit style    : metal
  Current step  : 28030
Per MPI rank memory allocation (min/avg/max) = 5.441 | 5.816 | 6.074 Mbytes
Step PotEng KinEng TotEng v_fx v_fy v_fz 
   28030   -1152449.4            0   -1152449.4 -0.014751609  0.049277207 -0.022330254 
   28110   -1152449.4            0   -1152449.4 -1.5071341e-05 -1.442383e-05 -2.1347865e-05 
Loop time of 0.933869 on 104 procs for 80 steps with 288751 atoms

99.9% CPU use with 104 MPI tasks x 1 OpenMP threads

Minimization stats:
  Stopping criterion = energy tolerance
  Energy initial, next-to-last, final = 
      -1152449.3622319   -1152449.3636702   -1152449.3636702
  Force two-norm initial, final = 0.16289087 0.00017896947
  Force max component initial, final = 0.069780732 2.7366402e-05
  Final line search alpha, max atom move = 1.0000000 2.7366402e-05
  Iterations, force evaluations = 80 160

MPI task timing breakdown:
Section |  min time  |  avg time  |  max time  |%varavg| %total
---------------------------------------------------------------
Pair    | 0.24111    | 0.67604    | 0.88002    |  22.3 | 72.39
Neigh   | 0          | 0          | 0          |   0.0 |  0.00
Comm    | 0.015699   | 0.15569    | 0.47467    |  32.5 | 16.67
Output  | 0          | 0          | 0          |   0.0 |  0.00
Modify  | 1.0184e-05 | 0.0013279  | 0.0028412  |   1.7 |  0.14
Other   |            | 0.1008     |            |       | 10.80

Nlocal:        2776.45 ave        3960 max           0 min
Histogram: 8 4 4 0 4 12 8 4 26 34
Nghost:        3879.20 ave        5426 max         232 min
Histogram: 8 0 8 0 16 0 8 8 16 40
Neighs:        79213.5 ave      115361 max           0 min
Histogram: 8 4 4 0 10 6 8 8 24 32

Total # of neighbors = 8238206
Ave neighs/atom = 28.530485
Neighbor list builds = 0
Dangerous builds = 0
The dot product: -1.09849319820041e-07
Setting atom values ...
  1 settings made for x
  1 settings made for y
  1 settings made for z
Setting up cg style minimization ...
  Unit style    : metal
  Current step  : 28110
Per MPI rank memory allocation (min/avg/max) = 5.441 | 5.816 | 6.074 Mbytes
Step PotEng KinEng TotEng v_fx v_fy v_fz 
   28110   -1152449.4            0   -1152449.4 -0.014188592  0.048055369 -0.021749074 
   28214   -1152449.4            0   -1152449.4 -2.805236e-05 -5.4733286e-05 -3.8844335e-05 
Loop time of 1.20838 on 104 procs for 104 steps with 288751 atoms

99.9% CPU use with 104 MPI tasks x 1 OpenMP threads

Minimization stats:
  Stopping criterion = energy tolerance
  Energy initial, next-to-last, final = 
      -1152449.3522789  -1152449.35365375  -1152449.35365375
  Force two-norm initial, final = 0.16004232 0.00024852152
  Force max component initial, final = 0.069204658 6.2236539e-05
  Final line search alpha, max atom move = 1.0000000 6.2236539e-05
  Iterations, force evaluations = 104 208

MPI task timing breakdown:
Section |  min time  |  avg time  |  max time  |%varavg| %total
---------------------------------------------------------------
Pair    | 0.31283    | 0.87444    | 1.1384     |  25.3 | 72.36
Neigh   | 0          | 0          | 0          |   0.0 |  0.00
Comm    | 0.019101   | 0.20034    | 0.61487    |  37.0 | 16.58
Output  | 0          | 0          | 0          |   0.0 |  0.00
Modify  | 1.2486e-05 | 0.0017241  | 0.0036894  |   2.0 |  0.14
Other   |            | 0.1319     |            |       | 10.91

Nlocal:        2776.45 ave        3960 max           0 min
Histogram: 8 4 4 0 4 12 8 4 26 34
Nghost:        3879.20 ave        5426 max         232 min
Histogram: 8 0 8 0 16 0 8 8 16 40
Neighs:        79213.5 ave      115361 max           0 min
Histogram: 8 4 4 0 10 6 8 8 24 32

Total # of neighbors = 8238203
Ave neighs/atom = 28.530474
Neighbor list builds = 0
Dangerous builds = 0
The dot product: -3.90971225385016e-07
