LAMMPS (29 Oct 2020)
OMP_NUM_THREADS environment is not set. Defaulting to 1 thread. (../comm.cpp:94)
  using 1 OpenMP thread(s) per MPI task
OMP_NUM_THREADS environment is not set. Defaulting to 1 thread. (../comm.cpp:94)
  using 1 OpenMP thread(s) per MPI task
Reading data file ...
  orthogonal box = (-122.39241 -121.13707 -37.090501) to (122.39241 121.13707 37.090501)
  13 by 4 by 2 MPI processor grid
  reading atoms ...
  288751 atoms
  read_data CPU = 0.470 seconds
199981 atoms in group inner
88770 atoms in group outer
1 atoms in group carbon
Neighbor list info ...
  update every 1 steps, delay 0 steps, check yes
  max neighbors/atom: 2000, page size: 100000
  master list distance cutoff = 5.6
  ghost atom cutoff = 5.6
  binsize = 2.8, bins = 88 87 27
  1 neighbor lists, perpetual/occasional/extra = 1 0 0
  (1) pair eam/alloy, perpetual
      attributes: half, newton on
      pair build: half/bin/atomonly/newton
      stencil: half/bin/3d/newton
      bin: standard
Setting up cg style minimization ...
  Unit style    : metal
  Current step  : 0
Per MPI rank memory allocation (min/avg/max) = 5.441 | 5.816 | 6.074 Mbytes
Step v_fx v_fy v_fz PotEng KinEng TotEng 
       0   0.30871083   -0.4853005  -0.47003349   -1152447.8            0   -1152447.8 
     157 1.7960916e-05 5.2887153e-07 8.7652428e-06   -1152449.5            0   -1152449.5 
Loop time of 1.87717 on 104 procs for 157 steps with 288751 atoms

99.8% CPU use with 104 MPI tasks x 1 OpenMP threads

Minimization stats:
  Stopping criterion = energy tolerance
  Energy initial, next-to-last, final = 
      -1152447.8473686  -1152449.45035285  -1152449.45035285
  Force two-norm initial, final = 9.7826820 0.00013582275
  Force max component initial, final = 5.2327294 1.9039595e-05
  Final line search alpha, max atom move = 1.0000000 1.9039595e-05
  Iterations, force evaluations = 157 313

MPI task timing breakdown:
Section |  min time  |  avg time  |  max time  |%varavg| %total
---------------------------------------------------------------
Pair    | 0.4903     | 1.3261     | 1.7216     |  30.8 | 70.64
Neigh   | 2.1449e-05 | 0.0059168  | 0.0089353  |   3.2 |  0.32
Comm    | 0.040292   | 0.30445    | 0.89412    |  44.4 | 16.22
Output  | 0          | 0          | 0          |   0.0 |  0.00
Modify  | 1.7527e-05 | 0.0016965  | 0.0043192  |   2.6 |  0.09
Other   |            | 0.239      |            |       | 12.73

Nlocal:        2776.45 ave        3959 max           0 min
Histogram: 8 4 4 0 4 12 8 2 28 34
Nghost:        3879.01 ave        5424 max         232 min
Histogram: 8 0 8 0 16 0 8 8 16 40
Neighs:        79213.7 ave      115394 max           0 min
Histogram: 8 4 4 0 10 6 8 8 24 32

Total # of neighbors = 8238223
Ave neighs/atom = 28.530544
Neighbor list builds = 2
Dangerous builds = 0
Setting atom values ...
  1 settings made for x
  1 settings made for y
  1 settings made for z
Setting up cg style minimization ...
  Unit style    : metal
  Current step  : 157
Per MPI rank memory allocation (min/avg/max) = 5.441 | 5.816 | 6.074 Mbytes
Step PotEng KinEng TotEng v_fx v_fy v_fz 
     157   -1152449.4            0   -1152449.4 0.00026569092 -0.009701649 -0.0087174137 
     338   -1152449.5            0   -1152449.5 -1.3323703e-05 2.3154487e-06 2.2947743e-05 
Loop time of 2.17248 on 104 procs for 181 steps with 288751 atoms

99.8% CPU use with 104 MPI tasks x 1 OpenMP threads

Minimization stats:
  Stopping criterion = energy tolerance
  Energy initial, next-to-last, final = 
     -1152449.44959034  -1152449.45008255  -1152449.45008255
  Force two-norm initial, final = 0.10178854 8.4753021e-05
  Force max component initial, final = 0.051602861 2.2947743e-05
  Final line search alpha, max atom move = 1.0000000 2.2947743e-05
  Iterations, force evaluations = 181 362

MPI task timing breakdown:
Section |  min time  |  avg time  |  max time  |%varavg| %total
---------------------------------------------------------------
Pair    | 0.55604    | 1.5397     | 2.0079     |  33.5 | 70.87
Neigh   | 0          | 0          | 0          |   0.0 |  0.00
Comm    | 0.043154   | 0.35216    | 1.0382     |  48.1 | 16.21
Output  | 0          | 0          | 0          |   0.0 |  0.00
Modify  | 2.3199e-05 | 0.0029997  | 0.00646    |   2.6 |  0.14
Other   |            | 0.2776     |            |       | 12.78

Nlocal:        2776.45 ave        3960 max           0 min
Histogram: 8 4 4 0 4 12 8 2 28 34
Nghost:        3879.01 ave        5424 max         232 min
Histogram: 8 0 8 0 16 0 8 8 16 40
Neighs:        79213.4 ave      115432 max           0 min
Histogram: 8 4 4 0 10 6 8 8 24 32

Total # of neighbors = 8238197
Ave neighs/atom = 28.530454
Neighbor list builds = 0
Dangerous builds = 0
Setting atom values ...
  1 settings made for x
  1 settings made for y
  1 settings made for z
Setting up cg style minimization ...
  Unit style    : metal
  Current step  : 338
Per MPI rank memory allocation (min/avg/max) = 5.441 | 5.816 | 6.074 Mbytes
Step PotEng KinEng TotEng v_fx v_fy v_fz 
     338   -1152449.4            0   -1152449.4 -0.00048809359  -0.02042198 -0.018552193 
     506   -1152449.4            0   -1152449.4 2.0341365e-05 -2.9339352e-07 -3.7398667e-05 
Loop time of 1.99464 on 104 procs for 168 steps with 288751 atoms

99.9% CPU use with 104 MPI tasks x 1 OpenMP threads

Minimization stats:
  Stopping criterion = energy tolerance
  Energy initial, next-to-last, final = 
     -1152449.44665105  -1152449.44825739  -1152449.44825739
  Force two-norm initial, final = 0.18518096 0.00026023505
  Force max component initial, final = 0.093911768 4.0486162e-05
  Final line search alpha, max atom move = 1.0000000 4.0486162e-05
  Iterations, force evaluations = 168 336

MPI task timing breakdown:
Section |  min time  |  avg time  |  max time  |%varavg| %total
---------------------------------------------------------------
Pair    | 0.51437    | 1.4177     | 1.8417     |  32.2 | 71.07
Neigh   | 0          | 0          | 0          |   0.0 |  0.00
Comm    | 0.034206   | 0.32308    | 0.95238    |  46.5 | 16.20
Output  | 0          | 0          | 0          |   0.0 |  0.00
Modify  | 2.0193e-05 | 0.0027784  | 0.0059094  |   2.5 |  0.14
Other   |            | 0.2511     |            |       | 12.59

Nlocal:        2776.45 ave        3961 max           0 min
Histogram: 8 4 4 0 6 10 8 2 28 34
Nghost:        3879.01 ave        5424 max         232 min
Histogram: 8 0 8 0 16 0 8 8 16 40
Neighs:        79213.4 ave      115455 max           0 min
Histogram: 8 4 4 0 10 6 8 8 24 32

Total # of neighbors = 8238198
Ave neighs/atom = 28.530457
Neighbor list builds = 0
Dangerous builds = 0
The dot product: 7.90970218181089e-08
Setting atom values ...
  1 settings made for x
  1 settings made for y
  1 settings made for z
Setting up cg style minimization ...
  Unit style    : metal
  Current step  : 506
Per MPI rank memory allocation (min/avg/max) = 5.441 | 5.816 | 6.074 Mbytes
Step PotEng KinEng TotEng v_fx v_fy v_fz 
     506   -1152449.4            0   -1152449.4 -0.0022078158 -0.026620367 -0.024986052 
     755   -1152449.4            0   -1152449.4 -6.6839747e-07 5.3338931e-09 1.4431539e-06 
Loop time of 2.92296 on 104 procs for 249 steps with 288751 atoms

99.9% CPU use with 104 MPI tasks x 1 OpenMP threads

Minimization stats:
  Stopping criterion = energy tolerance
  Energy initial, next-to-last, final = 
     -1152449.44328075  -1152449.44489455  -1152449.44489455
  Force two-norm initial, final = 0.18668285 9.8711437e-06
  Force max component initial, final = 0.092458138 2.1939834e-06
  Final line search alpha, max atom move = 1.0000000 2.1939834e-06
  Iterations, force evaluations = 249 498

MPI task timing breakdown:
Section |  min time  |  avg time  |  max time  |%varavg| %total
---------------------------------------------------------------
Pair    | 0.75828    | 2.108      | 2.73       |  39.2 | 72.12
Neigh   | 0          | 0          | 0          |   0.0 |  0.00
Comm    | 0.050175   | 0.47683    | 1.4325     |  57.8 | 16.31
Output  | 0          | 0          | 0          |   0.0 |  0.00
Modify  | 2.9659e-05 | 0.0041144  | 0.0087937  |   3.0 |  0.14
Other   |            | 0.3341     |            |       | 11.43

Nlocal:        2776.45 ave        3961 max           0 min
Histogram: 8 4 4 0 6 10 8 2 28 34
Nghost:        3879.01 ave        5424 max         232 min
Histogram: 8 0 8 0 16 0 8 8 16 40
Neighs:        79213.4 ave      115456 max           0 min
Histogram: 8 4 4 0 10 6 8 8 24 32

Total # of neighbors = 8238196
Ave neighs/atom = 28.530450
Neighbor list builds = 0
Dangerous builds = 0
The dot product: -5.05234504668707e-09
Setting atom values ...
  1 settings made for x
  1 settings made for y
  1 settings made for z
Setting up cg style minimization ...
  Unit style    : metal
  Current step  : 755
Per MPI rank memory allocation (min/avg/max) = 5.441 | 5.816 | 6.074 Mbytes
Step PotEng KinEng TotEng v_fx v_fy v_fz 
     755   -1152449.4            0   -1152449.4 -0.0068627216 -0.031571739 -0.026859422 
     880   -1152449.4            0   -1152449.4 -1.8117977e-05 -3.5614921e-06 4.2244508e-05 
Loop time of 1.46558 on 104 procs for 125 steps with 288751 atoms

99.9% CPU use with 104 MPI tasks x 1 OpenMP threads

Minimization stats:
  Stopping criterion = energy tolerance
  Energy initial, next-to-last, final = 
     -1152449.43858254  -1152449.44020504  -1152449.44020504
  Force two-norm initial, final = 0.18712196 0.00014260796
  Force max component initial, final = 0.089031582 4.2244508e-05
  Final line search alpha, max atom move = 1.0000000 4.2244508e-05
  Iterations, force evaluations = 125 250

MPI task timing breakdown:
Section |  min time  |  avg time  |  max time  |%varavg| %total
---------------------------------------------------------------
Pair    | 0.38389    | 1.0535     | 1.3649     |  27.6 | 71.88
Neigh   | 0          | 0          | 0          |   0.0 |  0.00
Comm    | 0.026032   | 0.23742    | 0.707      |  40.4 | 16.20
Output  | 0          | 0          | 0          |   0.0 |  0.00
Modify  | 1.5562e-05 | 0.0020702  | 0.0044313  |   2.1 |  0.14
Other   |            | 0.1726     |            |       | 11.78

Nlocal:        2776.45 ave        3961 max           0 min
Histogram: 8 4 4 0 6 10 8 2 28 34
Nghost:        3879.01 ave        5428 max         232 min
Histogram: 8 0 8 0 16 0 8 8 16 40
Neighs:        79213.4 ave      115456 max           0 min
Histogram: 8 4 4 0 10 6 8 8 24 32

Total # of neighbors = 8238195
Ave neighs/atom = 28.530447
Neighbor list builds = 0
Dangerous builds = 0
The dot product: -1.62462430880986e-07
Setting atom values ...
  1 settings made for x
  1 settings made for y
  1 settings made for z
Setting up cg style minimization ...
  Unit style    : metal
  Current step  : 880
Per MPI rank memory allocation (min/avg/max) = 5.441 | 5.816 | 6.074 Mbytes
Step PotEng KinEng TotEng v_fx v_fy v_fz 
     880   -1152449.4            0   -1152449.4 -0.011229494 -0.032428549 -0.023813125 
    1000   -1152449.4            0   -1152449.4 1.5935476e-05 5.5773232e-06 -4.027459e-05 
    1047   -1152449.4            0   -1152449.4 -1.9394284e-06 2.397611e-06 1.0535984e-05 
Loop time of 1.97357 on 104 procs for 167 steps with 288751 atoms

99.9% CPU use with 104 MPI tasks x 1 OpenMP threads

Minimization stats:
  Stopping criterion = energy tolerance
  Energy initial, next-to-last, final = 
     -1152449.43257896  -1152449.43418059  -1152449.43418059
  Force two-norm initial, final = 0.18573719 7.4140306e-05
  Force max component initial, final = 0.084942558 1.0535984e-05
  Final line search alpha, max atom move = 1.0000000 1.0535984e-05
  Iterations, force evaluations = 167 334

MPI task timing breakdown:
Section |  min time  |  avg time  |  max time  |%varavg| %total
---------------------------------------------------------------
Pair    | 0.50884    | 1.4138     | 1.8346     |  32.1 | 71.64
Neigh   | 0          | 0          | 0          |   0.0 |  0.00
Comm    | 0.03135    | 0.31847    | 0.95378    |  46.9 | 16.14
Output  | 0.00029108 | 0.00029515 | 0.00042299 |   0.0 |  0.01
Modify  | 2.005e-05  | 0.0027694  | 0.0058608  |   2.5 |  0.14
Other   |            | 0.2382     |            |       | 12.07

Nlocal:        2776.45 ave        3960 max           0 min
Histogram: 8 4 4 0 4 12 8 2 28 34
Nghost:        3879.01 ave        5429 max         232 min
Histogram: 8 0 8 0 16 0 8 8 16 40
Neighs:        79213.4 ave      115433 max           0 min
Histogram: 8 4 4 0 10 6 8 8 24 32

Total # of neighbors = 8238197
Ave neighs/atom = 28.530454
Neighbor list builds = 0
Dangerous builds = 0
The dot product: -4.38721254095447e-08
Setting atom values ...
  1 settings made for x
  1 settings made for y
  1 settings made for z
Setting up cg style minimization ...
  Unit style    : metal
  Current step  : 1047
Per MPI rank memory allocation (min/avg/max) = 5.441 | 5.816 | 6.074 Mbytes
Step PotEng KinEng TotEng v_fx v_fy v_fz 
    1047   -1152449.4            0   -1152449.4 -0.013765976 -0.030701308 -0.018499663 
    1190   -1152449.4            0   -1152449.4 -3.2175033e-06 7.6589771e-08 1.2171788e-05 
Loop time of 1.67177 on 104 procs for 143 steps with 288751 atoms

99.9% CPU use with 104 MPI tasks x 1 OpenMP threads

Minimization stats:
  Stopping criterion = energy tolerance
  Energy initial, next-to-last, final = 
     -1152449.42520708  -1152449.42677573  -1152449.42677573
  Force two-norm initial, final = 0.18367902 4.9143290e-05
  Force max component initial, final = 0.081484273 1.2171788e-05
  Final line search alpha, max atom move = 1.0000000 1.2171788e-05
  Iterations, force evaluations = 143 286

MPI task timing breakdown:
Section |  min time  |  avg time  |  max time  |%varavg| %total
---------------------------------------------------------------
Pair    | 0.4343     | 1.2023     | 1.5616     |  29.7 | 71.92
Neigh   | 0          | 0          | 0          |   0.0 |  0.00
Comm    | 0.030687   | 0.27108    | 0.80869    |  43.4 | 16.22
Output  | 0          | 0          | 0          |   0.0 |  0.00
Modify  | 1.717e-05  | 0.0023712  | 0.0050604  |   2.3 |  0.14
Other   |            | 0.196      |            |       | 11.72

Nlocal:        2776.45 ave        3960 max           0 min
Histogram: 8 4 4 0 4 12 8 2 28 34
Nghost:        3879.01 ave        5429 max         232 min
Histogram: 8 0 8 0 16 0 8 8 16 40
Neighs:        79213.4 ave      115433 max           0 min
Histogram: 8 4 4 0 10 6 8 8 24 32

Total # of neighbors = 8238198
Ave neighs/atom = 28.530457
Neighbor list builds = 0
Dangerous builds = 0
The dot product: -3.45297536390838e-08
Setting atom values ...
  1 settings made for x
  1 settings made for y
  1 settings made for z
Setting up cg style minimization ...
  Unit style    : metal
  Current step  : 1190
Per MPI rank memory allocation (min/avg/max) = 5.441 | 5.816 | 6.074 Mbytes
Step PotEng KinEng TotEng v_fx v_fy v_fz 
    1190   -1152449.4            0   -1152449.4 -0.014457086 -0.027671772 -0.012896038 
    1301   -1152449.4            0   -1152449.4 9.7478185e-07 2.6377566e-06 2.9266134e-06 
Loop time of 1.29895 on 104 procs for 111 steps with 288751 atoms

99.9% CPU use with 104 MPI tasks x 1 OpenMP threads

Minimization stats:
  Stopping criterion = energy tolerance
  Energy initial, next-to-last, final = 
      -1152449.4164146   -1152449.4179519   -1152449.4179519
  Force two-norm initial, final = 0.18160297 0.00019921301
  Force max component initial, final = 0.079072609 1.5892688e-05
  Final line search alpha, max atom move = 1.0000000 1.5892688e-05
  Iterations, force evaluations = 111 222

MPI task timing breakdown:
Section |  min time  |  avg time  |  max time  |%varavg| %total
---------------------------------------------------------------
Pair    | 0.33914    | 0.94035    | 1.2152     |  25.9 | 72.39
Neigh   | 0          | 0          | 0          |   0.0 |  0.00
Comm    | 0.021342   | 0.21111    | 0.63953    |  38.6 | 16.25
Output  | 0          | 0          | 0          |   0.0 |  0.00
Modify  | 1.3188e-05 | 0.0018404  | 0.0039437  |   2.0 |  0.14
Other   |            | 0.1456     |            |       | 11.21

Nlocal:        2776.45 ave        3959 max           0 min
Histogram: 8 4 4 0 4 12 8 2 28 34
Nghost:        3879.01 ave        5429 max         232 min
Histogram: 8 0 8 0 16 0 8 8 16 40
Neighs:        79213.5 ave      115393 max           0 min
Histogram: 8 4 4 0 10 6 8 8 24 32

Total # of neighbors = 8238199
Ave neighs/atom = 28.530461
Neighbor list builds = 0
Dangerous builds = 0
The dot product: -9.17183100305664e-09
Setting atom values ...
  1 settings made for x
  1 settings made for y
  1 settings made for z
Setting up cg style minimization ...
  Unit style    : metal
  Current step  : 1301
Per MPI rank memory allocation (min/avg/max) = 5.441 | 5.816 | 6.074 Mbytes
Step PotEng KinEng TotEng v_fx v_fy v_fz 
    1301   -1152449.4            0   -1152449.4 -0.013527937  -0.02360529 -0.0077801615 
    1425   -1152449.4            0   -1152449.4 9.5601792e-06 5.2307661e-06 -2.8112068e-05 
Loop time of 1.44773 on 104 procs for 124 steps with 288751 atoms

99.9% CPU use with 104 MPI tasks x 1 OpenMP threads

Minimization stats:
  Stopping criterion = energy tolerance
  Energy initial, next-to-last, final = 
     -1152449.40616809  -1152449.40768778  -1152449.40768778
  Force two-norm initial, final = 0.1797055 0.00013541492
  Force max component initial, final = 0.077759199 2.8112068e-05
  Final line search alpha, max atom move = 1.0000000 2.8112068e-05
  Iterations, force evaluations = 124 248

MPI task timing breakdown:
Section |  min time  |  avg time  |  max time  |%varavg| %total
---------------------------------------------------------------
Pair    | 0.37778    | 1.0446     | 1.3517     |  27.6 | 72.15
Neigh   | 0          | 0          | 0          |   0.0 |  0.00
Comm    | 0.023768   | 0.23492    | 0.70374    |  40.6 | 16.23
Output  | 0          | 0          | 0          |   0.0 |  0.00
Modify  | 1.4769e-05 | 0.0020522  | 0.0043681  |   2.1 |  0.14
Other   |            | 0.1662     |            |       | 11.48

Nlocal:        2776.45 ave        3959 max           0 min
Histogram: 8 4 4 0 4 12 8 2 28 34
Nghost:        3879.01 ave        5429 max         232 min
Histogram: 8 0 8 0 16 0 8 8 16 40
Neighs:        79213.5 ave      115393 max           0 min
Histogram: 8 4 4 0 10 6 8 8 24 32

Total # of neighbors = 8238202
Ave neighs/atom = 28.530471
Neighbor list builds = 0
Dangerous builds = 0
The dot product: 2.89835608179236e-08
Setting atom values ...
  1 settings made for x
  1 settings made for y
  1 settings made for z
Setting up cg style minimization ...
  Unit style    : metal
  Current step  : 1425
Per MPI rank memory allocation (min/avg/max) = 5.441 | 5.816 | 6.074 Mbytes
Step PotEng KinEng TotEng v_fx v_fy v_fz 
    1425   -1152449.4            0   -1152449.4 -0.010677846 -0.017578236  -0.00306917 
    1573   -1152449.4            0   -1152449.4 4.672356e-06 2.3717257e-06 -1.4833839e-05 
Loop time of 1.73776 on 104 procs for 148 steps with 288751 atoms

99.9% CPU use with 104 MPI tasks x 1 OpenMP threads

Minimization stats:
  Stopping criterion = energy tolerance
  Energy initial, next-to-last, final = 
     -1152449.39446822   -1152449.3959991   -1152449.3959991
  Force two-norm initial, final = 0.17803321 0.00012873634
  Force max component initial, final = 0.077642131 1.4833839e-05
  Final line search alpha, max atom move = 1.0000000 1.4833839e-05
  Iterations, force evaluations = 148 296

MPI task timing breakdown:
Section |  min time  |  avg time  |  max time  |%varavg| %total
---------------------------------------------------------------
Pair    | 0.45018    | 1.256      | 1.6177     |  30.1 | 72.28
Neigh   | 0          | 0          | 0          |   0.0 |  0.00
Comm    | 0.027661   | 0.28338    | 0.85173    |  45.0 | 16.31
Output  | 0          | 0          | 0          |   0.0 |  0.00
Modify  | 1.8083e-05 | 0.0024488  | 0.0052381  |   2.3 |  0.14
Other   |            | 0.1959     |            |       | 11.28

Nlocal:        2776.45 ave        3957 max           0 min
Histogram: 8 4 4 0 4 12 8 2 28 34
Nghost:        3879.01 ave        5429 max         232 min
Histogram: 8 0 8 0 16 0 8 8 16 40
Neighs:        79213.5 ave      115332 max           0 min
Histogram: 8 4 4 0 10 6 8 8 24 32

Total # of neighbors = 8238203
Ave neighs/atom = 28.530474
Neighbor list builds = 0
Dangerous builds = 0
The dot product: 6.62304076918713e-09
Setting atom values ...
  1 settings made for x
  1 settings made for y
  1 settings made for z
Setting up cg style minimization ...
  Unit style    : metal
  Current step  : 1573
Per MPI rank memory allocation (min/avg/max) = 5.441 | 5.816 | 6.074 Mbytes
Step PotEng KinEng TotEng v_fx v_fy v_fz 
    1573   -1152449.4            0   -1152449.4 -0.0061322683 -0.0091464381 0.0020007687 
    1731   -1152449.4            0   -1152449.4 1.5273038e-05 9.1796173e-07 -6.9313014e-05 
Loop time of 1.85809 on 104 procs for 158 steps with 288751 atoms

99.9% CPU use with 104 MPI tasks x 1 OpenMP threads

Minimization stats:
  Stopping criterion = energy tolerance
  Energy initial, next-to-last, final = 
      -1152449.3813627  -1152449.38295871  -1152449.38295871
  Force two-norm initial, final = 0.17689121 0.00020481951
  Force max component initial, final = 0.078896399 6.9313014e-05
  Final line search alpha, max atom move = 1.0000000 6.9313014e-05
  Iterations, force evaluations = 158 316

MPI task timing breakdown:
Section |  min time  |  avg time  |  max time  |%varavg| %total
---------------------------------------------------------------
Pair    | 0.48172    | 1.3346     | 1.7337     |  31.3 | 71.83
Neigh   | 0          | 0          | 0          |   0.0 |  0.00
Comm    | 0.03301    | 0.30184    | 0.90056    |  45.5 | 16.24
Output  | 0          | 0          | 0          |   0.0 |  0.00
Modify  | 1.8752e-05 | 0.0026093  | 0.0055552  |   2.4 |  0.14
Other   |            | 0.219      |            |       | 11.79

Nlocal:        2776.45 ave        3954 max           0 min
Histogram: 8 4 4 0 4 12 8 0 30 34
Nghost:        3878.99 ave        5429 max         232 min
Histogram: 8 0 8 0 16 0 8 8 16 40
Neighs:        79213.5 ave      115243 max           0 min
Histogram: 8 4 4 0 10 6 8 8 24 32

Total # of neighbors = 8238203
Ave neighs/atom = 28.530474
Neighbor list builds = 0
Dangerous builds = 0
The dot product: -1.15940318880226e-07
Setting atom values ...
  1 settings made for x
  1 settings made for y
  1 settings made for z
Setting up cg style minimization ...
  Unit style    : metal
  Current step  : 1731
Per MPI rank memory allocation (min/avg/max) = 5.441 | 5.816 | 6.074 Mbytes
Step PotEng KinEng TotEng v_fx v_fy v_fz 
    1731   -1152449.4            0   -1152449.4 -0.00031136277 0.0030475691  0.009362309 
    1925   -1152449.4            0   -1152449.4 3.2053702e-06 -6.3468208e-07 -1.6037993e-05 
Loop time of 2.28508 on 104 procs for 194 steps with 288751 atoms

99.9% CPU use with 104 MPI tasks x 1 OpenMP threads

Minimization stats:
  Stopping criterion = energy tolerance
  Energy initial, next-to-last, final = 
     -1152449.36698044  -1152449.36886191  -1152449.36886191
  Force two-norm initial, final = 0.1767905 8.4399690e-05
  Force max component initial, final = 0.081829871 1.6088768e-05
  Final line search alpha, max atom move = 1.0000000 1.6088768e-05
  Iterations, force evaluations = 194 388

MPI task timing breakdown:
Section |  min time  |  avg time  |  max time  |%varavg| %total
---------------------------------------------------------------
Pair    | 0.59024    | 1.6437     | 2.1424     |  34.5 | 71.93
Neigh   | 0          | 0          | 0          |   0.0 |  0.00
Comm    | 0.043562   | 0.37108    | 1.1012     |  50.4 | 16.24
Output  | 0          | 0          | 0          |   0.0 |  0.00
Modify  | 2.3034e-05 | 0.0031997  | 0.006798   |   2.7 |  0.14
Other   |            | 0.2671     |            |       | 11.69

Nlocal:        2776.45 ave        3952 max           0 min
Histogram: 8 4 4 0 4 12 8 0 30 34
Nghost:        3878.97 ave        5429 max         232 min
Histogram: 8 0 8 0 16 0 8 8 16 40
Neighs:        79213.5 ave      115171 max           0 min
Histogram: 8 4 4 0 10 6 8 8 24 32

Total # of neighbors = 8238205
Ave neighs/atom = 28.530481
Neighbor list builds = 0
Dangerous builds = 0
The dot product: -1.00898820724144e-07
Setting atom values ...
  1 settings made for x
  1 settings made for y
  1 settings made for z
Setting up cg style minimization ...
  Unit style    : metal
  Current step  : 1925
Per MPI rank memory allocation (min/avg/max) = 5.441 | 5.816 | 6.074 Mbytes
Step PotEng KinEng TotEng v_fx v_fy v_fz 
    1925   -1152449.4            0   -1152449.4  0.005639701  0.022554429  0.023568513 
    2000   -1152449.4            0   -1152449.4 -5.8342446e-05 -1.2482651e-05 0.00020392483 
    2127   -1152449.4            0   -1152449.4 4.6899156e-06 3.4267372e-07 -1.7732333e-05 
Loop time of 2.35057 on 104 procs for 202 steps with 288751 atoms

99.9% CPU use with 104 MPI tasks x 1 OpenMP threads

Minimization stats:
  Stopping criterion = energy tolerance
  Energy initial, next-to-last, final = 
     -1152449.35179016  -1152449.35391496  -1152449.35391496
  Force two-norm initial, final = 0.17934596 9.5705370e-05
  Force max component initial, final = 0.086954908 2.1068080e-05
  Final line search alpha, max atom move = 1.0000000 2.1068080e-05
  Iterations, force evaluations = 202 404

MPI task timing breakdown:
Section |  min time  |  avg time  |  max time  |%varavg| %total
---------------------------------------------------------------
Pair    | 0.61153    | 1.6956     | 2.1983     |  35.2 | 72.13
Neigh   | 0          | 0          | 0          |   0.0 |  0.00
Comm    | 0.03819    | 0.3804     | 1.1401     |  51.6 | 16.18
Output  | 0.00016113 | 0.00017025 | 0.0002795  |   0.0 |  0.01
Modify  | 2.3867e-05 | 0.0033322  | 0.0071239  |   2.7 |  0.14
Other   |            | 0.2711     |            |       | 11.53

Nlocal:        2776.45 ave        3951 max           0 min
Histogram: 8 4 4 0 4 12 8 0 30 34
Nghost:        3878.99 ave        5428 max         232 min
Histogram: 8 0 8 0 16 0 8 8 16 40
Neighs:        79213.5 ave      115143 max           0 min
Histogram: 8 4 4 0 10 6 8 8 24 32

Total # of neighbors = 8238204
Ave neighs/atom = 28.530478
Neighbor list builds = 0
Dangerous builds = 0
The dot product: -1.49116946269239e-07
Setting atom values ...
  1 settings made for x
  1 settings made for y
  1 settings made for z
Setting up cg style minimization ...
  Unit style    : metal
  Current step  : 2127
Per MPI rank memory allocation (min/avg/max) = 5.441 | 5.816 | 6.074 Mbytes
Step PotEng KinEng TotEng v_fx v_fy v_fz 
    2127   -1152449.3            0   -1152449.3 0.0072860755  0.037681908  0.031095861 
    2303   -1152449.3            0   -1152449.3 -2.5344001e-05 -9.352849e-07 8.3979802e-05 
Loop time of 2.08467 on 104 procs for 176 steps with 288751 atoms

99.9% CPU use with 104 MPI tasks x 1 OpenMP threads

Minimization stats:
  Stopping criterion = energy tolerance
  Energy initial, next-to-last, final = 
     -1152449.33585423  -1152449.33815412  -1152449.33815412
  Force two-norm initial, final = 0.18284108 0.00028090571
  Force max component initial, final = 0.093542951 8.3979802e-05
  Final line search alpha, max atom move = 1.0000000 8.3979802e-05
  Iterations, force evaluations = 176 352

MPI task timing breakdown:
Section |  min time  |  avg time  |  max time  |%varavg| %total
---------------------------------------------------------------
Pair    | 0.5337     | 1.4879     | 1.9349     |  33.1 | 71.38
Neigh   | 0          | 0          | 0          |   0.0 |  0.00
Comm    | 0.032465   | 0.33955    | 1.0037     |  47.6 | 16.29
Output  | 0          | 0          | 0          |   0.0 |  0.00
Modify  | 2.0829e-05 | 0.0029078  | 0.0062187  |   2.5 |  0.14
Other   |            | 0.2543     |            |       | 12.20

Nlocal:        2776.45 ave        3952 max           0 min
Histogram: 8 4 4 0 4 12 8 0 30 34
Nghost:        3879.07 ave        5424 max         232 min
Histogram: 8 0 8 0 16 0 8 8 16 40
Neighs:        79213.5 ave      115187 max           0 min
Histogram: 8 4 4 0 10 6 8 8 24 32

Total # of neighbors = 8238205
Ave neighs/atom = 28.530481
Neighbor list builds = 0
Dangerous builds = 0
The dot product: 7.44500035904372e-07
Setting atom values ...
  1 settings made for x
  1 settings made for y
  1 settings made for z
Setting up cg style minimization ...
  Unit style    : metal
  Current step  : 2303
Per MPI rank memory allocation (min/avg/max) = 5.441 | 5.816 | 6.074 Mbytes
Step PotEng KinEng TotEng v_fx v_fy v_fz 
    2303   -1152449.3            0   -1152449.3 0.0058105033  0.042150098  0.028565612 
    2498   -1152449.3            0   -1152449.3 9.3373566e-06 -2.7775038e-06 -3.0743635e-05 
Loop time of 2.27567 on 104 procs for 195 steps with 288751 atoms

99.9% CPU use with 104 MPI tasks x 1 OpenMP threads

Minimization stats:
  Stopping criterion = energy tolerance
  Energy initial, next-to-last, final = 
     -1152449.31902334  -1152449.32121034  -1152449.32121034
  Force two-norm initial, final = 0.18308157 0.00013150611
  Force max component initial, final = 0.099823607 3.0743635e-05
  Final line search alpha, max atom move = 1.0000000 3.0743635e-05
  Iterations, force evaluations = 195 390

MPI task timing breakdown:
Section |  min time  |  avg time  |  max time  |%varavg| %total
---------------------------------------------------------------
Pair    | 0.59163    | 1.6384     | 2.1265     |  34.6 | 72.00
Neigh   | 0          | 0          | 0          |   0.0 |  0.00
Comm    | 0.036249   | 0.36988    | 1.1003     |  50.6 | 16.25
Output  | 0          | 0          | 0          |   0.0 |  0.00
Modify  | 2.3344e-05 | 0.0032241  | 0.0068536  |   2.7 |  0.14
Other   |            | 0.2641     |            |       | 11.61

Nlocal:        2776.45 ave        3954 max           0 min
Histogram: 8 4 4 0 4 12 8 0 30 34
Nghost:        3879.11 ave        5424 max         232 min
Histogram: 8 0 8 0 16 0 8 8 16 40
Neighs:        79213.5 ave      115266 max           0 min
Histogram: 8 4 4 0 10 6 8 8 24 32

Total # of neighbors = 8238204
Ave neighs/atom = 28.530478
Neighbor list builds = 0
Dangerous builds = 0
The dot product: -2.90356658408675e-07
Setting atom values ...
  1 settings made for x
  1 settings made for y
  1 settings made for z
Setting up cg style minimization ...
  Unit style    : metal
  Current step  : 2498
Per MPI rank memory allocation (min/avg/max) = 5.441 | 5.816 | 6.074 Mbytes
Step PotEng KinEng TotEng v_fx v_fy v_fz 
    2498   -1152449.3            0   -1152449.3 0.0038913998  0.039022111  0.021831408 
    2688   -1152449.3            0   -1152449.3 -5.8678283e-06 3.1158082e-06 1.8456951e-05 
Loop time of 2.23968 on 104 procs for 190 steps with 288751 atoms

99.9% CPU use with 104 MPI tasks x 1 OpenMP threads

Minimization stats:
  Stopping criterion = energy tolerance
  Energy initial, next-to-last, final = 
     -1152449.30089129  -1152449.30295188  -1152449.30295188
  Force two-norm initial, final = 0.18108718 0.00014205933
  Force max component initial, final = 0.10521929 2.1427787e-05
  Final line search alpha, max atom move = 1.0000000 2.1427787e-05
  Iterations, force evaluations = 190 380

MPI task timing breakdown:
Section |  min time  |  avg time  |  max time  |%varavg| %total
---------------------------------------------------------------
Pair    | 0.58908    | 1.6088     | 2.0753     |  34.2 | 71.83
Neigh   | 0          | 0          | 0          |   0.0 |  0.00
Comm    | 0.040221   | 0.36575    | 1.0895     |  49.7 | 16.33
Output  | 0          | 0          | 0          |   0.0 |  0.00
Modify  | 2.2517e-05 | 0.0031434  | 0.0067242  |   2.6 |  0.14
Other   |            | 0.262      |            |       | 11.70

Nlocal:        2776.45 ave        3955 max           0 min
Histogram: 8 4 4 0 4 12 8 0 30 34
Nghost:        3879.12 ave        5424 max         232 min
Histogram: 8 0 8 0 16 0 8 8 16 40
Neighs:        79213.5 ave      115290 max           0 min
Histogram: 8 4 4 0 10 6 8 8 24 32

Total # of neighbors = 8238209
Ave neighs/atom = 28.530495
Neighbor list builds = 0
Dangerous builds = 0
The dot product: 1.77413268110613e-07
Setting atom values ...
  1 settings made for x
  1 settings made for y
  1 settings made for z
Setting up cg style minimization ...
  Unit style    : metal
  Current step  : 2688
Per MPI rank memory allocation (min/avg/max) = 5.441 | 5.816 | 6.074 Mbytes
Step PotEng KinEng TotEng v_fx v_fy v_fz 
    2688   -1152449.3            0   -1152449.3 0.0019725748  0.033482889  0.016887385 
    2875   -1152449.3            0   -1152449.3 6.6491205e-06 3.4048619e-06 -1.44885e-05 
Loop time of 2.1774 on 104 procs for 187 steps with 288751 atoms

99.9% CPU use with 104 MPI tasks x 1 OpenMP threads

Minimization stats:
  Stopping criterion = energy tolerance
  Energy initial, next-to-last, final = 
     -1152449.28142697   -1152449.2834269   -1152449.2834269
  Force two-norm initial, final = 0.17884557 0.00015079331
  Force max component initial, final = 0.10943183 2.0879603e-05
  Final line search alpha, max atom move = 1.0000000 2.0879603e-05
  Iterations, force evaluations = 187 374

MPI task timing breakdown:
Section |  min time  |  avg time  |  max time  |%varavg| %total
---------------------------------------------------------------
Pair    | 0.565      | 1.5692     | 2.0355     |  33.8 | 72.07
Neigh   | 0          | 0          | 0          |   0.0 |  0.00
Comm    | 0.037637   | 0.35251    | 1.0672     |  49.9 | 16.19
Output  | 0          | 0          | 0          |   0.0 |  0.00
Modify  | 2.1913e-05 | 0.0030886  | 0.0065575  |   2.6 |  0.14
Other   |            | 0.2526     |            |       | 11.60

Nlocal:        2776.45 ave        3955 max           0 min
Histogram: 8 4 4 0 4 12 8 0 30 34
Nghost:        3879.13 ave        5424 max         232 min
Histogram: 8 0 8 0 16 0 8 8 16 40
Neighs:        79213.6 ave      115292 max           0 min
Histogram: 8 4 4 0 10 6 8 8 24 32

Total # of neighbors = 8238212
Ave neighs/atom = 28.530506
Neighbor list builds = 0
Dangerous builds = 0
The dot product: -7.79490098677159e-08
Setting atom values ...
  1 settings made for x
  1 settings made for y
  1 settings made for z
Setting up cg style minimization ...
  Unit style    : metal
  Current step  : 2875
Per MPI rank memory allocation (min/avg/max) = 5.441 | 5.816 | 6.074 Mbytes
Step PotEng KinEng TotEng v_fx v_fy v_fz 
    2875   -1152449.3            0   -1152449.3 -0.00020968559  0.027823395  0.015088468 
    3000   -1152449.3            0   -1152449.3 -0.00010491609 -1.5123863e-06 0.00024580449 
    3072   -1152449.3            0   -1152449.3 -1.119969e-05 8.4867191e-07 2.6769276e-05 
Loop time of 2.31253 on 104 procs for 197 steps with 288751 atoms

99.9% CPU use with 104 MPI tasks x 1 OpenMP threads

Minimization stats:
  Stopping criterion = energy tolerance
  Energy initial, next-to-last, final = 
     -1152449.26076674  -1152449.26268408  -1152449.26268408
  Force two-norm initial, final = 0.17684145 0.00011814052
  Force max component initial, final = 0.11284436 2.6769276e-05
  Final line search alpha, max atom move = 1.0000000 2.6769276e-05
  Iterations, force evaluations = 197 394

MPI task timing breakdown:
Section |  min time  |  avg time  |  max time  |%varavg| %total
---------------------------------------------------------------
Pair    | 0.59823    | 1.6696     | 2.1619     |  34.9 | 72.20
Neigh   | 0          | 0          | 0          |   0.0 |  0.00
Comm    | 0.038758   | 0.37526    | 1.1289     |  51.5 | 16.23
Output  | 0.00024272 | 0.0002464  | 0.00037453 |   0.0 |  0.01
Modify  | 2.3569e-05 | 0.003259   | 0.0069643  |   2.7 |  0.14
Other   |            | 0.2642     |            |       | 11.42

Nlocal:        2776.45 ave        3955 max           0 min
Histogram: 8 4 4 0 4 12 8 0 30 34
Nghost:        3879.13 ave        5424 max         232 min
Histogram: 8 0 8 0 16 0 8 8 16 40
Neighs:        79213.6 ave      115292 max           0 min
Histogram: 8 4 4 0 10 6 8 8 24 32

Total # of neighbors = 8238217
Ave neighs/atom = 28.530523
Neighbor list builds = 0
Dangerous builds = 0
The dot product: 2.21782077418268e-07
Setting atom values ...
  1 settings made for x
  1 settings made for y
  1 settings made for z
Setting up cg style minimization ...
  Unit style    : metal
  Current step  : 3072
Per MPI rank memory allocation (min/avg/max) = 5.441 | 5.816 | 6.074 Mbytes
Step PotEng KinEng TotEng v_fx v_fy v_fz 
    3072   -1152449.2            0   -1152449.2 -0.0019575523  0.022697621  0.014141532 
    3304   -1152449.2            0   -1152449.2 -6.2532814e-07 3.7621009e-07 1.545583e-06 
Loop time of 2.69275 on 104 procs for 232 steps with 288751 atoms

99.9% CPU use with 104 MPI tasks x 1 OpenMP threads

Minimization stats:
  Stopping criterion = energy tolerance
  Energy initial, next-to-last, final = 
      -1152449.2388591  -1152449.24073899  -1152449.24073899
  Force two-norm initial, final = 0.17521321 2.9221060e-05
  Force max component initial, final = 0.11584094 6.3011660e-06
  Final line search alpha, max atom move = 1.0000000 6.3011660e-06
  Iterations, force evaluations = 232 464

MPI task timing breakdown:
Section |  min time  |  avg time  |  max time  |%varavg| %total
---------------------------------------------------------------
Pair    | 0.69996    | 1.9497     | 2.5313     |  37.8 | 72.40
Neigh   | 0          | 0          | 0          |   0.0 |  0.00
Comm    | 0.044923   | 0.43927    | 1.3234     |  55.6 | 16.31
Output  | 0          | 0          | 0          |   0.0 |  0.00
Modify  | 2.823e-05  | 0.0038284  | 0.0081553  |   2.9 |  0.14
Other   |            | 0.3        |            |       | 11.14

Nlocal:        2776.45 ave        3955 max           0 min
Histogram: 8 4 4 0 4 12 8 0 30 34
Nghost:        3879.13 ave        5424 max         232 min
Histogram: 8 0 8 0 16 0 8 8 16 40
Neighs:        79213.6 ave      115296 max           0 min
Histogram: 8 4 4 0 10 6 8 8 24 32

Total # of neighbors = 8238212
Ave neighs/atom = 28.530506
Neighbor list builds = 0
Dangerous builds = 0
The dot product: 1.63973287215445e-08
Setting atom values ...
  1 settings made for x
  1 settings made for y
  1 settings made for z
Setting up cg style minimization ...
  Unit style    : metal
  Current step  : 3304
Per MPI rank memory allocation (min/avg/max) = 5.441 | 5.816 | 6.074 Mbytes
Step PotEng KinEng TotEng v_fx v_fy v_fz 
    3304   -1152449.2            0   -1152449.2 -0.0040802531  0.019863459  0.015664204 
    3482   -1152449.2            0   -1152449.2 -2.3902613e-05 -7.4541863e-07 4.9489813e-05 
Loop time of 2.0966 on 104 procs for 178 steps with 288751 atoms

99.9% CPU use with 104 MPI tasks x 1 OpenMP threads

Minimization stats:
  Stopping criterion = energy tolerance
  Energy initial, next-to-last, final = 
      -1152449.2157989  -1152449.21781906  -1152449.21781906
  Force two-norm initial, final = 0.1742382 0.00021235674
  Force max component initial, final = 0.11864183 5.1709903e-05
  Final line search alpha, max atom move = 1.0000000 5.1709903e-05
  Iterations, force evaluations = 178 356

MPI task timing breakdown:
Section |  min time  |  avg time  |  max time  |%varavg| %total
---------------------------------------------------------------
Pair    | 0.54201    | 1.5086     | 1.9645     |  33.1 | 71.95
Neigh   | 0          | 0          | 0          |   0.0 |  0.00
Comm    | 0.037519   | 0.34191    | 1.021      |  48.6 | 16.31
Output  | 0          | 0          | 0          |   0.0 |  0.00
Modify  | 2.1259e-05 | 0.0029467  | 0.006317   |   2.6 |  0.14
Other   |            | 0.2432     |            |       | 11.60

Nlocal:        2776.45 ave        3955 max           0 min
Histogram: 8 4 4 0 4 12 8 0 30 34
Nghost:        3879.12 ave        5424 max         232 min
Histogram: 8 0 8 0 16 0 8 8 16 40
Neighs:        79213.6 ave      115292 max           0 min
Histogram: 8 4 4 0 10 6 8 8 24 32

Total # of neighbors = 8238211
Ave neighs/atom = 28.530502
Neighbor list builds = 0
Dangerous builds = 0
The dot product: 5.85255242991609e-07
Setting atom values ...
  1 settings made for x
  1 settings made for y
  1 settings made for z
Setting up cg style minimization ...
  Unit style    : metal
  Current step  : 3482
Per MPI rank memory allocation (min/avg/max) = 5.441 | 5.816 | 6.074 Mbytes
Step PotEng KinEng TotEng v_fx v_fy v_fz 
    3482   -1152449.2            0   -1152449.2 -0.0086007772  0.021700633  0.023059995 
    3664   -1152449.2            0   -1152449.2 -1.633431e-05 -3.1097448e-06 3.0707177e-05 
Loop time of 2.12229 on 104 procs for 182 steps with 288751 atoms

99.9% CPU use with 104 MPI tasks x 1 OpenMP threads

Minimization stats:
  Stopping criterion = energy tolerance
  Energy initial, next-to-last, final = 
     -1152449.19206292   -1152449.1942826   -1152449.1942826
  Force two-norm initial, final = 0.17437216 0.00015486179
  Force max component initial, final = 0.12118224 3.0707177e-05
  Final line search alpha, max atom move = 1.0000000 3.0707177e-05
  Iterations, force evaluations = 182 364

MPI task timing breakdown:
Section |  min time  |  avg time  |  max time  |%varavg| %total
---------------------------------------------------------------
Pair    | 0.54893    | 1.537      | 1.9938     |  33.6 | 72.42
Neigh   | 0          | 0          | 0          |   0.0 |  0.00
Comm    | 0.03382    | 0.34566    | 1.0347     |  49.4 | 16.29
Output  | 0          | 0          | 0          |   0.0 |  0.00
Modify  | 2.1587e-05 | 0.0030027  | 0.0064031  |   2.6 |  0.14
Other   |            | 0.2367     |            |       | 11.15

Nlocal:        2776.45 ave        3955 max           0 min
Histogram: 8 4 4 0 4 12 8 0 30 34
Nghost:        3879.10 ave        5424 max         232 min
Histogram: 8 0 8 0 16 0 8 8 16 40
Neighs:        79213.6 ave      115295 max           0 min
Histogram: 8 4 4 0 10 6 8 8 24 32

Total # of neighbors = 8238212
Ave neighs/atom = 28.530506
Neighbor list builds = 0
Dangerous builds = 0
The dot product: 4.53083107113548e-07
Setting atom values ...
  1 settings made for x
  1 settings made for y
  1 settings made for z
Setting up cg style minimization ...
  Unit style    : metal
  Current step  : 3664
Per MPI rank memory allocation (min/avg/max) = 5.441 | 5.816 | 6.074 Mbytes
Step PotEng KinEng TotEng v_fx v_fy v_fz 
    3664   -1152449.2            0   -1152449.2 -0.013466387  0.024940139  0.029738513 
    3887   -1152449.2            0   -1152449.2 1.2454993e-06 1.0287778e-06 -1.9787577e-06 
Loop time of 2.57941 on 104 procs for 223 steps with 288751 atoms

99.9% CPU use with 104 MPI tasks x 1 OpenMP threads

Minimization stats:
  Stopping criterion = energy tolerance
  Energy initial, next-to-last, final = 
     -1152449.16788538  -1152449.17007078  -1152449.17007078
  Force two-norm initial, final = 0.17517503 4.1649738e-05
  Force max component initial, final = 0.12386792 5.0472673e-06
  Final line search alpha, max atom move = 1.0000000 5.0472673e-06
  Iterations, force evaluations = 223 446

MPI task timing breakdown:
Section |  min time  |  avg time  |  max time  |%varavg| %total
---------------------------------------------------------------
Pair    | 0.67332    | 1.8764     | 2.427      |  37.0 | 72.74
Neigh   | 0          | 0          | 0          |   0.0 |  0.00
Comm    | 0.043503   | 0.41978    | 1.265      |  54.7 | 16.27
Output  | 0          | 0          | 0          |   0.0 |  0.00
Modify  | 2.6435e-05 | 0.0036788  | 0.0079327  |   2.9 |  0.14
Other   |            | 0.2796     |            |       | 10.84

Nlocal:        2776.45 ave        3955 max           0 min
Histogram: 8 4 4 0 4 12 8 0 30 34
Nghost:        3879.06 ave        5424 max         232 min
Histogram: 8 0 8 0 16 0 8 8 16 40
Neighs:        79213.6 ave      115289 max           0 min
Histogram: 8 4 4 0 10 6 8 8 24 32

Total # of neighbors = 8238215
Ave neighs/atom = 28.530516
Neighbor list builds = 0
Dangerous builds = 0
The dot product: -2.40825888811104e-08
Setting atom values ...
  1 settings made for x
  1 settings made for y
  1 settings made for z
Setting up cg style minimization ...
  Unit style    : metal
  Current step  : 3887
Per MPI rank memory allocation (min/avg/max) = 5.441 | 5.816 | 6.074 Mbytes
Step PotEng KinEng TotEng v_fx v_fy v_fz 
    3887   -1152449.1            0   -1152449.1 -0.014509403  0.023750152   0.02816969 
    4000   -1152449.1            0   -1152449.1 9.4107637e-05 -3.4979652e-06 -0.00015564362 
    4061   -1152449.1            0   -1152449.1 -4.0026357e-05 -9.1320642e-06 6.4289981e-05 
Loop time of 2.02554 on 104 procs for 174 steps with 288751 atoms

99.9% CPU use with 104 MPI tasks x 1 OpenMP threads

Minimization stats:
  Stopping criterion = energy tolerance
  Energy initial, next-to-last, final = 
     -1152449.14281784    -1152449.144875    -1152449.144875
  Force two-norm initial, final = 0.17468545 0.00021610881
  Force max component initial, final = 0.12696147 6.4289981e-05
  Final line search alpha, max atom move = 1.0000000 6.4289981e-05
  Iterations, force evaluations = 174 348

MPI task timing breakdown:
Section |  min time  |  avg time  |  max time  |%varavg| %total
---------------------------------------------------------------
Pair    | 0.52616    | 1.4626     | 1.9023     |  32.8 | 72.21
Neigh   | 0          | 0          | 0          |   0.0 |  0.00
Comm    | 0.032218   | 0.32888    | 0.98059    |  48.0 | 16.24
Output  | 0.00023405 | 0.00024253 | 0.0003741  |   0.0 |  0.01
Modify  | 2.0556e-05 | 0.0028706  | 0.0061099  |   2.5 |  0.14
Other   |            | 0.2309     |            |       | 11.40

Nlocal:        2776.45 ave        3954 max           0 min
Histogram: 8 4 4 0 4 12 8 0 30 34
Nghost:        3879.03 ave        5424 max         232 min
Histogram: 8 0 8 0 16 0 8 8 16 40
Neighs:        79213.6 ave      115257 max           0 min
Histogram: 8 4 4 0 10 6 8 8 24 32

Total # of neighbors = 8238215
Ave neighs/atom = 28.530516
Neighbor list builds = 0
Dangerous builds = 0
The dot product: 9.1012235351439e-07
Setting atom values ...
  1 settings made for x
  1 settings made for y
  1 settings made for z
Setting up cg style minimization ...
  Unit style    : metal
  Current step  : 4061
Per MPI rank memory allocation (min/avg/max) = 5.441 | 5.816 | 6.074 Mbytes
Step PotEng KinEng TotEng v_fx v_fy v_fz 
    4061   -1152449.1            0   -1152449.1  -0.01355506  0.020298372  0.023774624 
    4259   -1152449.1            0   -1152449.1 1.4936491e-07 2.0042968e-07 -2.020367e-07 
Loop time of 2.33132 on 104 procs for 198 steps with 288751 atoms

99.9% CPU use with 104 MPI tasks x 1 OpenMP threads

Minimization stats:
  Stopping criterion = energy tolerance
  Energy initial, next-to-last, final = 
     -1152449.11663696  -1152449.11850342  -1152449.11850342
  Force two-norm initial, final = 0.17382267 9.4924957e-05
  Force max component initial, final = 0.12988403 8.0456225e-06
  Final line search alpha, max atom move = 1.0000000 8.0456225e-06
  Iterations, force evaluations = 198 396

MPI task timing breakdown:
Section |  min time  |  avg time  |  max time  |%varavg| %total
---------------------------------------------------------------
Pair    | 0.61003    | 1.6763     | 2.1756     |  34.7 | 71.90
Neigh   | 0          | 0          | 0          |   0.0 |  0.00
Comm    | 0.044174   | 0.37922    | 1.13       |  51.2 | 16.27
Output  | 0          | 0          | 0          |   0.0 |  0.00
Modify  | 2.3473e-05 | 0.0032677  | 0.0069558  |   2.7 |  0.14
Other   |            | 0.2726     |            |       | 11.69

Nlocal:        2776.45 ave        3955 max           0 min
Histogram: 8 4 4 0 4 12 8 0 30 34
Nghost:        3879.03 ave        5424 max         232 min
Histogram: 8 0 8 0 16 0 8 8 16 40
Neighs:        79213.6 ave      115288 max           0 min
Histogram: 8 4 4 0 10 6 8 8 24 32

Total # of neighbors = 8238213
Ave neighs/atom = 28.530509
Neighbor list builds = 0
Dangerous builds = 0
The dot product: -1.63988149862853e-09
Setting atom values ...
  1 settings made for x
  1 settings made for y
  1 settings made for z
Setting up cg style minimization ...
  Unit style    : metal
  Current step  : 4259
Per MPI rank memory allocation (min/avg/max) = 5.441 | 5.816 | 6.074 Mbytes
Step PotEng KinEng TotEng v_fx v_fy v_fz 
    4259   -1152449.1            0   -1152449.1 -0.010940513  0.015850488  0.017824101 
    4430   -1152449.1            0   -1152449.1 -2.1201149e-06 -3.051958e-06 2.7534275e-06 
Loop time of 2.00765 on 104 procs for 171 steps with 288751 atoms

99.9% CPU use with 104 MPI tasks x 1 OpenMP threads

Minimization stats:
  Stopping criterion = energy tolerance
  Energy initial, next-to-last, final = 
       -1152449.089115  -1152449.09085034  -1152449.09085034
  Force two-norm initial, final = 0.17328331 0.00018930598
  Force max component initial, final = 0.13281686 3.2480217e-05
  Final line search alpha, max atom move = 1.0000000 3.2480217e-05
  Iterations, force evaluations = 171 342

MPI task timing breakdown:
Section |  min time  |  avg time  |  max time  |%varavg| %total
---------------------------------------------------------------
Pair    | 0.52069    | 1.4419     | 1.871      |  32.3 | 71.82
Neigh   | 0          | 0          | 0          |   0.0 |  0.00
Comm    | 0.030224   | 0.32525    | 0.96599    |  47.3 | 16.20
Output  | 0          | 0          | 0          |   0.0 |  0.00
Modify  | 2.0001e-05 | 0.0028275  | 0.0060356  |   2.5 |  0.14
Other   |            | 0.2376     |            |       | 11.84

Nlocal:        2776.45 ave        3955 max           0 min
Histogram: 8 4 4 0 4 12 8 0 30 34
Nghost:        3879.06 ave        5425 max         232 min
Histogram: 8 0 8 0 16 0 8 8 16 40
Neighs:        79213.6 ave      115291 max           0 min
Histogram: 8 4 4 0 10 6 8 8 24 32

Total # of neighbors = 8238213
Ave neighs/atom = 28.530509
Neighbor list builds = 0
Dangerous builds = 0
The dot product: 1.94018122675116e-08
Setting atom values ...
  1 settings made for x
  1 settings made for y
  1 settings made for z
Setting up cg style minimization ...
  Unit style    : metal
  Current step  : 4430
Per MPI rank memory allocation (min/avg/max) = 5.441 | 5.816 | 6.074 Mbytes
Step PotEng KinEng TotEng v_fx v_fy v_fz 
    4430   -1152449.1            0   -1152449.1 -0.0080789862  0.011368612   0.01244102 
    4643   -1152449.1            0   -1152449.1 -5.9736707e-06 -9.7264948e-07 8.2950128e-06 
Loop time of 2.502 on 104 procs for 213 steps with 288751 atoms

99.9% CPU use with 104 MPI tasks x 1 OpenMP threads

Minimization stats:
  Stopping criterion = energy tolerance
  Energy initial, next-to-last, final = 
     -1152449.06025168  -1152449.06190968  -1152449.06190968
  Force two-norm initial, final = 0.17330099 5.7380786e-05
  Force max component initial, final = 0.13544409 8.2950128e-06
  Final line search alpha, max atom move = 1.0000000 8.2950128e-06
  Iterations, force evaluations = 213 426

MPI task timing breakdown:
Section |  min time  |  avg time  |  max time  |%varavg| %total
---------------------------------------------------------------
Pair    | 0.64631    | 1.8074     | 2.3448     |  36.4 | 72.24
Neigh   | 0          | 0          | 0          |   0.0 |  0.00
Comm    | 0.038984   | 0.40605    | 1.2254     |  53.8 | 16.23
Output  | 0          | 0          | 0          |   0.0 |  0.00
Modify  | 2.5011e-05 | 0.003518   | 0.0075284  |   2.8 |  0.14
Other   |            | 0.285      |            |       | 11.39

Nlocal:        2776.45 ave        3956 max           0 min
Histogram: 8 4 4 0 4 12 8 0 30 34
Nghost:        3879.02 ave        5425 max         232 min
Histogram: 8 0 8 0 16 0 8 8 16 40
Neighs:        79213.6 ave      115330 max           0 min
Histogram: 8 4 4 0 10 6 8 8 24 32

Total # of neighbors = 8238214
Ave neighs/atom = 28.530512
Neighbor list builds = 0
Dangerous builds = 0
The dot product: 7.64106627065476e-08
Setting atom values ...
  1 settings made for x
  1 settings made for y
  1 settings made for z
Setting up cg style minimization ...
  Unit style    : metal
  Current step  : 4643
Per MPI rank memory allocation (min/avg/max) = 5.441 | 5.816 | 6.074 Mbytes
Step PotEng KinEng TotEng v_fx v_fy v_fz 
    4643     -1152449            0     -1152449 -0.0055537276 0.0074675616 0.0081796927 
    4827     -1152449            0     -1152449 -6.5143211e-06 -2.1635931e-06 8.668665e-06 
Loop time of 2.15601 on 104 procs for 184 steps with 288751 atoms

99.9% CPU use with 104 MPI tasks x 1 OpenMP threads

Minimization stats:
  Stopping criterion = linesearch alpha is zero
  Energy initial, next-to-last, final = 
     -1152449.03009597  -1152449.03173723  -1152449.03173723
  Force two-norm initial, final = 0.17385958 0.00014701644
  Force max component initial, final = 0.13790228 9.6798746e-06
  Final line search alpha, max atom move = 0.5 4.8399373e-06
  Iterations, force evaluations = 184 369

MPI task timing breakdown:
Section |  min time  |  avg time  |  max time  |%varavg| %total
---------------------------------------------------------------
Pair    | 0.55807    | 1.5501     | 2.0168     |  33.7 | 71.90
Neigh   | 0          | 0          | 0          |   0.0 |  0.00
Comm    | 0.035603   | 0.35038    | 1.042      |  49.2 | 16.25
Output  | 0          | 0          | 0          |   0.0 |  0.00
Modify  | 2.1746e-05 | 0.0030544  | 0.0064919  |   2.6 |  0.14
Other   |            | 0.2525     |            |       | 11.71

Nlocal:        2776.45 ave        3957 max           0 min
Histogram: 8 4 4 0 4 12 8 2 28 34
Nghost:        3878.98 ave        5425 max         232 min
Histogram: 8 0 8 0 16 0 8 8 16 40
Neighs:        79213.6 ave      115374 max           0 min
Histogram: 8 4 4 0 10 6 8 8 24 32

Total # of neighbors = 8238218
Ave neighs/atom = 28.530526
Neighbor list builds = 0
Dangerous builds = 0
The dot product: 6.9620395254492e-08
Setting atom values ...
  1 settings made for x
  1 settings made for y
  1 settings made for z
Setting up cg style minimization ...
  Unit style    : metal
  Current step  : 4827
Per MPI rank memory allocation (min/avg/max) = 5.441 | 5.816 | 6.074 Mbytes
Step PotEng KinEng TotEng v_fx v_fy v_fz 
    4827     -1152449            0     -1152449 -0.0036393157 0.0045691289 0.0051648568 
    5000     -1152449            0     -1152449 -2.9367443e-05 -4.3924819e-06 3.8485627e-05 
    5002     -1152449            0     -1152449 -1.1870872e-05 -3.8429602e-06 1.5396673e-05 
Loop time of 2.03101 on 104 procs for 175 steps with 288751 atoms

99.9% CPU use with 104 MPI tasks x 1 OpenMP threads

Minimization stats:
  Stopping criterion = energy tolerance
  Energy initial, next-to-last, final = 
     -1152448.99879914  -1152449.00044789  -1152449.00044789
  Force two-norm initial, final = 0.17459638 0.00018620968
  Force max component initial, final = 0.14001749 2.0560019e-05
  Final line search alpha, max atom move = 1.0000000 2.0560019e-05
  Iterations, force evaluations = 175 350

MPI task timing breakdown:
Section |  min time  |  avg time  |  max time  |%varavg| %total
---------------------------------------------------------------
Pair    | 0.5316     | 1.4786     | 1.9141     |  32.8 | 72.80
Neigh   | 0          | 0          | 0          |   0.0 |  0.00
Comm    | 0.033798   | 0.33217    | 0.99965    |  48.5 | 16.35
Output  | 0.00014812 | 0.00015768 | 0.00030079 |   0.0 |  0.01
Modify  | 2.0982e-05 | 0.0028936  | 0.0061614  |   2.5 |  0.14
Other   |            | 0.2172     |            |       | 10.69

Nlocal:        2776.45 ave        3957 max           0 min
Histogram: 8 4 4 0 4 12 8 2 28 34
Nghost:        3878.94 ave        5425 max         232 min
Histogram: 8 0 8 0 16 0 8 8 16 40
Neighs:        79213.6 ave      115373 max           0 min
Histogram: 8 4 4 0 10 6 8 8 24 32

Total # of neighbors = 8238216
Ave neighs/atom = 28.530519
Neighbor list builds = 0
Dangerous builds = 0
The dot product: 1.13332324559289e-07
Setting atom values ...
  1 settings made for x
  1 settings made for y
  1 settings made for z
Setting up cg style minimization ...
  Unit style    : metal
  Current step  : 5002
Per MPI rank memory allocation (min/avg/max) = 5.441 | 5.816 | 6.074 Mbytes
Step PotEng KinEng TotEng v_fx v_fy v_fz 
    5002     -1152449            0     -1152449 -0.0018703094 0.0025527967 0.0026013502 
    5183     -1152449            0     -1152449 -1.1440363e-05 -2.1450282e-06 1.4618863e-05 
Loop time of 2.10939 on 104 procs for 181 steps with 288751 atoms

99.9% CPU use with 104 MPI tasks x 1 OpenMP threads

Minimization stats:
  Stopping criterion = energy tolerance
  Energy initial, next-to-last, final = 
       -1152448.966442  -1152448.96810043  -1152448.96810043
  Force two-norm initial, final = 0.17545196 0.0001668723
  Force max component initial, final = 0.14193382 2.2273861e-05
  Final line search alpha, max atom move = 1.0000000 2.2273861e-05
  Iterations, force evaluations = 181 362

MPI task timing breakdown:
Section |  min time  |  avg time  |  max time  |%varavg| %total
---------------------------------------------------------------
Pair    | 0.54673    | 1.5252     | 1.9881     |  33.6 | 72.30
Neigh   | 0          | 0          | 0          |   0.0 |  0.00
Comm    | 0.03288    | 0.34363    | 1.0288     |  49.1 | 16.29
Output  | 0          | 0          | 0          |   0.0 |  0.00
Modify  | 2.135e-05  | 0.0029895  | 0.006382   |   2.6 |  0.14
Other   |            | 0.2376     |            |       | 11.26

Nlocal:        2776.45 ave        3957 max           0 min
Histogram: 8 4 4 0 4 12 8 2 28 34
Nghost:        3878.92 ave        5425 max         232 min
Histogram: 8 0 8 0 16 0 8 8 16 40
Neighs:        79213.6 ave      115375 max           0 min
Histogram: 8 4 4 0 10 6 8 8 24 32

Total # of neighbors = 8238218
Ave neighs/atom = 28.530526
Neighbor list builds = 0
Dangerous builds = 0
The dot product: 1.01872019695015e-07
Setting atom values ...
  1 settings made for x
  1 settings made for y
  1 settings made for z
Setting up cg style minimization ...
  Unit style    : metal
  Current step  : 5183
Per MPI rank memory allocation (min/avg/max) = 5.441 | 5.816 | 6.074 Mbytes
Step PotEng KinEng TotEng v_fx v_fy v_fz 
    5183   -1152448.9            0   -1152448.9 -0.00035619967 0.0013263987 0.00054361069 
    5350   -1152448.9            0   -1152448.9 -2.6443236e-06 -4.3856224e-06 3.0380575e-06 
Loop time of 1.96733 on 104 procs for 167 steps with 288751 atoms

99.9% CPU use with 104 MPI tasks x 1 OpenMP threads

Minimization stats:
  Stopping criterion = energy tolerance
  Energy initial, next-to-last, final = 
     -1152448.93312064  -1152448.93483537  -1152448.93483537
  Force two-norm initial, final = 0.17629721 0.00027947838
  Force max component initial, final = 0.14362618 3.0705905e-05
  Final line search alpha, max atom move = 1.0000000 3.0705905e-05
  Iterations, force evaluations = 167 334

MPI task timing breakdown:
Section |  min time  |  avg time  |  max time  |%varavg| %total
---------------------------------------------------------------
Pair    | 0.50659    | 1.4142     | 1.8434     |  32.1 | 71.89
Neigh   | 0          | 0          | 0          |   0.0 |  0.00
Comm    | 0.033069   | 0.31983    | 0.94707    |  46.5 | 16.26
Output  | 0          | 0          | 0          |   0.0 |  0.00
Modify  | 1.9864e-05 | 0.0027588  | 0.0058924  |   2.5 |  0.14
Other   |            | 0.2305     |            |       | 11.72

Nlocal:        2776.45 ave        3956 max           0 min
Histogram: 8 4 4 0 4 12 8 0 30 34
Nghost:        3878.91 ave        5425 max         232 min
Histogram: 8 0 8 0 16 0 8 8 16 40
Neighs:        79213.6 ave      115348 max           0 min
Histogram: 8 4 4 0 10 6 8 8 24 32

Total # of neighbors = 8238215
Ave neighs/atom = 28.530516
Neighbor list builds = 0
Dangerous builds = 0
The dot product: 1.98223059822937e-08
Setting atom values ...
  1 settings made for x
  1 settings made for y
  1 settings made for z
Setting up cg style minimization ...
  Unit style    : metal
  Current step  : 5350
Per MPI rank memory allocation (min/avg/max) = 5.441 | 5.816 | 6.074 Mbytes
Step PotEng KinEng TotEng v_fx v_fy v_fz 
    5350   -1152448.9            0   -1152448.9 0.0010551411 0.00066372012 -0.0012647937 
    5524   -1152448.9            0   -1152448.9 3.5098314e-05 2.7228502e-06 -4.3398651e-05 
Loop time of 2.03064 on 104 procs for 174 steps with 288751 atoms

99.9% CPU use with 104 MPI tasks x 1 OpenMP threads

Minimization stats:
  Stopping criterion = energy tolerance
  Energy initial, next-to-last, final = 
     -1152448.89898373  -1152448.90062179  -1152448.90062179
  Force two-norm initial, final = 0.17701691 0.00020482506
  Force max component initial, final = 0.14504232 4.6607259e-05
  Final line search alpha, max atom move = 1.0000000 4.6607259e-05
  Iterations, force evaluations = 174 348

MPI task timing breakdown:
Section |  min time  |  avg time  |  max time  |%varavg| %total
---------------------------------------------------------------
Pair    | 0.52507    | 1.4645     | 1.9037     |  32.8 | 72.12
Neigh   | 0          | 0          | 0          |   0.0 |  0.00
Comm    | 0.034825   | 0.32912    | 0.99144    |  48.1 | 16.21
Output  | 0          | 0          | 0          |   0.0 |  0.00
Modify  | 2.0692e-05 | 0.0028731  | 0.0061121  |   2.5 |  0.14
Other   |            | 0.2341     |            |       | 11.53

Nlocal:        2776.45 ave        3956 max           0 min
Histogram: 8 4 4 0 4 12 8 0 30 34
Nghost:        3878.88 ave        5425 max         232 min
Histogram: 8 0 8 0 16 0 8 8 16 40
Neighs:        79213.6 ave      115348 max           0 min
Histogram: 8 4 4 0 10 6 8 8 24 32

Total # of neighbors = 8238214
Ave neighs/atom = 28.530512
Neighbor list builds = 0
Dangerous builds = 0
The dot product: -2.44417620474033e-07
Setting atom values ...
  1 settings made for x
  1 settings made for y
  1 settings made for z
Setting up cg style minimization ...
  Unit style    : metal
  Current step  : 5524
Per MPI rank memory allocation (min/avg/max) = 5.441 | 5.816 | 6.074 Mbytes
Step PotEng KinEng TotEng v_fx v_fy v_fz 
    5524   -1152448.9            0   -1152448.9 0.0035379943 0.00028255744 -0.0043088149 
    5711   -1152448.9            0   -1152448.9 -1.0987443e-05 5.4460472e-07 1.3477837e-05 
Loop time of 2.17682 on 104 procs for 187 steps with 288751 atoms

99.9% CPU use with 104 MPI tasks x 1 OpenMP threads

Minimization stats:
  Stopping criterion = energy tolerance
  Energy initial, next-to-last, final = 
     -1152448.86374413  -1152448.86535405  -1152448.86535405
  Force two-norm initial, final = 0.17827701 0.00013439398
  Force max component initial, final = 0.14676656 3.1655384e-05
  Final line search alpha, max atom move = 1.0000000 3.1655384e-05
  Iterations, force evaluations = 187 374

MPI task timing breakdown:
Section |  min time  |  avg time  |  max time  |%varavg| %total
---------------------------------------------------------------
Pair    | 0.56697    | 1.5776     | 2.0513     |  33.9 | 72.47
Neigh   | 0          | 0          | 0          |   0.0 |  0.00
Comm    | 0.034987   | 0.35355    | 1.0653     |  49.9 | 16.24
Output  | 0          | 0          | 0          |   0.0 |  0.00
Modify  | 2.2294e-05 | 0.0030852  | 0.0065695  |   2.6 |  0.14
Other   |            | 0.2426     |            |       | 11.14

Nlocal:        2776.45 ave        3956 max           0 min
Histogram: 8 4 4 0 4 12 8 0 30 34
Nghost:        3878.88 ave        5425 max         232 min
Histogram: 8 0 8 0 16 0 8 8 16 40
Neighs:        79213.6 ave      115313 max           0 min
Histogram: 8 4 4 0 10 6 8 8 24 32

Total # of neighbors = 8238214
Ave neighs/atom = 28.530512
Neighbor list builds = 0
Dangerous builds = 0
The dot product: 6.16089305102175e-08
Setting atom values ...
  1 settings made for x
  1 settings made for y
  1 settings made for z
Setting up cg style minimization ...
  Unit style    : metal
  Current step  : 5711
Per MPI rank memory allocation (min/avg/max) = 5.441 | 5.816 | 6.074 Mbytes
Step PotEng KinEng TotEng v_fx v_fy v_fz 
    5711   -1152448.8            0   -1152448.8 0.0060300836 0.00022623044 -0.007275046 
    5941   -1152448.8            0   -1152448.8 4.5102433e-06 9.4516696e-07 -5.3887092e-06 
Loop time of 2.67272 on 104 procs for 230 steps with 288751 atoms

99.9% CPU use with 104 MPI tasks x 1 OpenMP threads

Minimization stats:
  Stopping criterion = energy tolerance
  Energy initial, next-to-last, final = 
     -1152448.82743125  -1152448.82914416  -1152448.82914416
  Force two-norm initial, final = 0.1795863 4.5815969e-05
  Force max component initial, final = 0.14839421 5.9227651e-06
  Final line search alpha, max atom move = 1.0000000 5.9227651e-06
  Iterations, force evaluations = 230 460

MPI task timing breakdown:
Section |  min time  |  avg time  |  max time  |%varavg| %total
---------------------------------------------------------------
Pair    | 0.69434    | 1.9272     | 2.5059     |  37.5 | 72.11
Neigh   | 0          | 0          | 0          |   0.0 |  0.00
Comm    | 0.045892   | 0.4328     | 1.2916     |  55.0 | 16.19
Output  | 0          | 0          | 0          |   0.0 |  0.00
Modify  | 2.8117e-05 | 0.0037979  | 0.0080844  |   2.9 |  0.14
Other   |            | 0.3089     |            |       | 11.56

Nlocal:        2776.45 ave        3955 max           0 min
Histogram: 8 4 4 0 4 12 8 0 30 34
Nghost:        3878.84 ave        5425 max         232 min
Histogram: 8 0 8 0 16 0 8 8 16 40
Neighs:        79213.6 ave      115316 max           0 min
Histogram: 8 4 4 0 10 6 8 8 24 32

Total # of neighbors = 8238216
Ave neighs/atom = 28.530519
Neighbor list builds = 0
Dangerous builds = 0
The dot product: -2.31333654062049e-08
Setting atom values ...
  1 settings made for x
  1 settings made for y
  1 settings made for z
Setting up cg style minimization ...
  Unit style    : metal
  Current step  : 5941
Per MPI rank memory allocation (min/avg/max) = 5.441 | 5.816 | 6.074 Mbytes
Step PotEng KinEng TotEng v_fx v_fy v_fz 
    5941   -1152448.8            0   -1152448.8 0.0077942029 0.00047745674 -0.0092933102 
    6000   -1152448.8            0   -1152448.8 -0.00028979608 -4.3344787e-05 0.00034378397 
    6206   -1152448.8            0   -1152448.8 -1.3153914e-06 -2.5682179e-07 1.5563347e-06 
Loop time of 3.10762 on 104 procs for 265 steps with 288751 atoms

99.9% CPU use with 104 MPI tasks x 1 OpenMP threads

Minimization stats:
  Stopping criterion = energy tolerance
  Energy initial, next-to-last, final = 
     -1152448.79040528  -1152448.79202919  -1152448.79202919
  Force two-norm initial, final = 0.18014972 8.4782332e-06
  Force max component initial, final = 0.14942125 1.8031863e-06
  Final line search alpha, max atom move = 1.0000000 1.8031863e-06
  Iterations, force evaluations = 265 530

MPI task timing breakdown:
Section |  min time  |  avg time  |  max time  |%varavg| %total
---------------------------------------------------------------
Pair    | 0.80413    | 2.2464     | 2.9205     |  40.4 | 72.29
Neigh   | 0          | 0          | 0          |   0.0 |  0.00
Comm    | 0.054312   | 0.5049     | 1.5135     |  59.5 | 16.25
Output  | 0.00023422 | 0.000237   | 0.00034443 |   0.0 |  0.01
Modify  | 3.1466e-05 | 0.0043778  | 0.0093849  |   3.1 |  0.14
Other   |            | 0.3517     |            |       | 11.32

Nlocal:        2776.45 ave        3955 max           0 min
Histogram: 8 4 4 0 4 12 8 0 30 34
Nghost:        3878.85 ave        5425 max         232 min
Histogram: 8 0 8 0 16 0 8 8 16 40
Neighs:        79213.6 ave      115293 max           0 min
Histogram: 8 4 4 0 10 6 8 8 24 32

Total # of neighbors = 8238213
Ave neighs/atom = 28.530509
Neighbor list builds = 0
Dangerous builds = 0
The dot product: 4.65511645851202e-09
Setting atom values ...
  1 settings made for x
  1 settings made for y
  1 settings made for z
Setting up cg style minimization ...
  Unit style    : metal
  Current step  : 6206
Per MPI rank memory allocation (min/avg/max) = 5.441 | 5.816 | 6.074 Mbytes
Step PotEng KinEng TotEng v_fx v_fy v_fz 
    6206   -1152448.8            0   -1152448.8  0.010817557 0.0010317595 -0.012783147 
    6418   -1152448.8            0   -1152448.8 1.1824464e-05 2.8479221e-06 -1.385396e-05 
Loop time of 2.46663 on 104 procs for 212 steps with 288751 atoms

99.9% CPU use with 104 MPI tasks x 1 OpenMP threads

Minimization stats:
  Stopping criterion = energy tolerance
  Energy initial, next-to-last, final = 
     -1152448.75227347  -1152448.75390248  -1152448.75390248
  Force two-norm initial, final = 0.18117848 7.2966805e-05
  Force max component initial, final = 0.15078087 1.6471852e-05
  Final line search alpha, max atom move = 1.0000000 1.6471852e-05
  Iterations, force evaluations = 212 424

MPI task timing breakdown:
Section |  min time  |  avg time  |  max time  |%varavg| %total
---------------------------------------------------------------
Pair    | 0.64001    | 1.7802     | 2.3147     |  36.1 | 72.17
Neigh   | 0          | 0          | 0          |   0.0 |  0.00
Comm    | 0.038618   | 0.40044    | 1.1988     |  53.0 | 16.23
Output  | 0          | 0          | 0          |   0.0 |  0.00
Modify  | 2.5103e-05 | 0.0035013  | 0.0074362  |   2.8 |  0.14
Other   |            | 0.2825     |            |       | 11.45

Nlocal:        2776.45 ave        3955 max           0 min
Histogram: 8 4 4 0 4 12 8 0 30 34
Nghost:        3878.85 ave        5425 max         232 min
Histogram: 8 0 8 0 16 0 8 8 16 40
Neighs:        79213.6 ave      115295 max           0 min
Histogram: 8 4 4 0 10 6 8 8 24 32

Total # of neighbors = 8238212
Ave neighs/atom = 28.530506
Neighbor list builds = 0
Dangerous builds = 0
The dot product: -2.53400231786634e-08
Setting atom values ...
  1 settings made for x
  1 settings made for y
  1 settings made for z
Setting up cg style minimization ...
  Unit style    : metal
  Current step  : 6418
Per MPI rank memory allocation (min/avg/max) = 5.441 | 5.816 | 6.074 Mbytes
Step PotEng KinEng TotEng v_fx v_fy v_fz 
    6418   -1152448.7            0   -1152448.7  0.013641029 0.0018897936 -0.016013438 
    6587   -1152448.7            0   -1152448.7 -1.9912906e-05 -4.944882e-07 2.353534e-05 
Loop time of 1.99503 on 104 procs for 169 steps with 288751 atoms

99.9% CPU use with 104 MPI tasks x 1 OpenMP threads

Minimization stats:
  Stopping criterion = energy tolerance
  Energy initial, next-to-last, final = 
       -1152448.713209  -1152448.71499858  -1152448.71499858
  Force two-norm initial, final = 0.18170136 0.00013521839
  Force max component initial, final = 0.15190027 2.9758484e-05
  Final line search alpha, max atom move = 1.0000000 2.9758484e-05
  Iterations, force evaluations = 169 338

MPI task timing breakdown:
Section |  min time  |  avg time  |  max time  |%varavg| %total
---------------------------------------------------------------
Pair    | 0.51301    | 1.4313     | 1.8626     |  32.4 | 71.74
Neigh   | 0          | 0          | 0          |   0.0 |  0.00
Comm    | 0.031508   | 0.32336    | 0.96385    |  47.5 | 16.21
Output  | 0          | 0          | 0          |   0.0 |  0.00
Modify  | 2.0211e-05 | 0.0027946  | 0.0059709  |   2.5 |  0.14
Other   |            | 0.2376     |            |       | 11.91

Nlocal:        2776.45 ave        3954 max           0 min
Histogram: 8 4 4 0 4 12 8 0 30 34
Nghost:        3878.83 ave        5425 max         232 min
Histogram: 8 0 8 0 16 0 8 8 16 40
Neighs:        79213.6 ave      115271 max           0 min
Histogram: 8 4 4 0 10 6 8 8 24 32

Total # of neighbors = 8238212
Ave neighs/atom = 28.530506
Neighbor list builds = 0
Dangerous builds = 0
The dot product: 2.53209218922666e-08
Setting atom values ...
  1 settings made for x
  1 settings made for y
  1 settings made for z
Setting up cg style minimization ...
  Unit style    : metal
  Current step  : 6587
Per MPI rank memory allocation (min/avg/max) = 5.441 | 5.816 | 6.074 Mbytes
Step PotEng KinEng TotEng v_fx v_fy v_fz 
    6587   -1152448.7            0   -1152448.7  0.015575991 0.0025533795 -0.018209197 
    6766   -1152448.7            0   -1152448.7 1.5235484e-05 -1.049064e-06 -1.8066871e-05 
Loop time of 2.0943 on 104 procs for 179 steps with 288751 atoms

99.9% CPU use with 104 MPI tasks x 1 OpenMP threads

Minimization stats:
  Stopping criterion = energy tolerance
  Energy initial, next-to-last, final = 
     -1152448.67383424  -1152448.67557843  -1152448.67557843
  Force two-norm initial, final = 0.18057965 0.0001696004
  Force max component initial, final = 0.15190515 2.9817852e-05
  Final line search alpha, max atom move = 1.0000000 2.9817852e-05
  Iterations, force evaluations = 179 358

MPI task timing breakdown:
Section |  min time  |  avg time  |  max time  |%varavg| %total
---------------------------------------------------------------
Pair    | 0.54059    | 1.5052     | 1.9593     |  33.3 | 71.87
Neigh   | 0          | 0          | 0          |   0.0 |  0.00
Comm    | 0.034232   | 0.33925    | 1.0217     |  48.7 | 16.20
Output  | 0          | 0          | 0          |   0.0 |  0.00
Modify  | 2.1316e-05 | 0.0029571  | 0.0063148  |   2.6 |  0.14
Other   |            | 0.2469     |            |       | 11.79

Nlocal:        2776.45 ave        3955 max           0 min
Histogram: 8 4 4 0 4 12 8 0 30 34
Nghost:        3878.77 ave        5425 max         232 min
Histogram: 8 0 8 0 16 0 8 8 16 40
Neighs:        79213.5 ave      115316 max           0 min
Histogram: 8 4 4 0 10 6 8 8 24 32

Total # of neighbors = 8238205
Ave neighs/atom = 28.530481
Neighbor list builds = 0
Dangerous builds = 0
The dot product: 8.14325697750077e-09
Setting atom values ...
  1 settings made for x
  1 settings made for y
  1 settings made for z
Setting up cg style minimization ...
  Unit style    : metal
  Current step  : 6766
Per MPI rank memory allocation (min/avg/max) = 5.441 | 5.816 | 6.074 Mbytes
Step PotEng KinEng TotEng v_fx v_fy v_fz 
    6766   -1152448.6            0   -1152448.6  0.018301383 0.0037691738 -0.021349147 
    6960   -1152448.6            0   -1152448.6 -3.9276584e-05 -8.5816627e-06  4.57807e-05 
Loop time of 2.27597 on 104 procs for 194 steps with 288751 atoms

99.9% CPU use with 104 MPI tasks x 1 OpenMP threads

Minimization stats:
  Stopping criterion = energy tolerance
  Energy initial, next-to-last, final = 
     -1152448.63408272  -1152448.63606966  -1152448.63606966
  Force two-norm initial, final = 0.17966619 0.00021385064
  Force max component initial, final = 0.15170361 5.5361759e-05
  Final line search alpha, max atom move = 1.0000000 5.5361759e-05
  Iterations, force evaluations = 194 388

MPI task timing breakdown:
Section |  min time  |  avg time  |  max time  |%varavg| %total
---------------------------------------------------------------
Pair    | 0.58719    | 1.6414     | 2.1273     |  34.6 | 72.12
Neigh   | 0          | 0          | 0          |   0.0 |  0.00
Comm    | 0.038932   | 0.37047    | 1.1043     |  50.5 | 16.28
Output  | 0          | 0          | 0          |   0.0 |  0.00
Modify  | 2.3315e-05 | 0.00321    | 0.0068357  |   2.7 |  0.14
Other   |            | 0.2609     |            |       | 11.46

Nlocal:        2776.45 ave        3954 max           0 min
Histogram: 8 4 4 0 4 12 8 0 30 34
Nghost:        3878.73 ave        5425 max         232 min
Histogram: 8 0 8 0 16 0 8 8 16 40
Neighs:        79213.5 ave      115273 max           0 min
Histogram: 8 4 4 0 10 6 8 8 24 32

Total # of neighbors = 8238200
Ave neighs/atom = 28.530464
Neighbor list builds = 0
Dangerous builds = 0
The dot product: -2.98656583394401e-08
Setting atom values ...
  1 settings made for x
  1 settings made for y
  1 settings made for z
Setting up cg style minimization ...
  Unit style    : metal
  Current step  : 6960
Per MPI rank memory allocation (min/avg/max) = 5.441 | 5.816 | 6.074 Mbytes
Step PotEng KinEng TotEng v_fx v_fy v_fz 
    6960   -1152448.6            0   -1152448.6  0.020913089 0.0014043115 -0.024656025 
    7000   -1152448.6            0   -1152448.6 0.00072778708 0.00015519683 -0.00084977031 
    7158   -1152448.6            0   -1152448.6 4.4406868e-06 1.1203722e-06 -5.1714898e-06 
Loop time of 2.31083 on 104 procs for 198 steps with 288751 atoms

99.9% CPU use with 104 MPI tasks x 1 OpenMP threads

Minimization stats:
  Stopping criterion = energy tolerance
  Energy initial, next-to-last, final = 
     -1152448.59530953  -1152448.59744992  -1152448.59744992
  Force two-norm initial, final = 0.17773816 0.00015071983
  Force max component initial, final = 0.14916089 6.6680113e-06
  Final line search alpha, max atom move = 1.0000000 6.6680113e-06
  Iterations, force evaluations = 198 396

MPI task timing breakdown:
Section |  min time  |  avg time  |  max time  |%varavg| %total
---------------------------------------------------------------
Pair    | 0.59764    | 1.6682     | 2.1703     |  35.1 | 72.19
Neigh   | 0          | 0          | 0          |   0.0 |  0.00
Comm    | 0.035657   | 0.37592    | 1.1194     |  51.1 | 16.27
Output  | 0.00014653 | 0.00015064 | 0.00024307 |   0.0 |  0.01
Modify  | 2.3659e-05 | 0.003269   | 0.0069649  |   2.7 |  0.14
Other   |            | 0.2633     |            |       | 11.39

Nlocal:        2776.45 ave        3953 max           0 min
Histogram: 8 4 4 0 4 12 8 0 30 34
Nghost:        3878.71 ave        5425 max         232 min
Histogram: 8 0 8 0 16 0 8 8 16 40
Neighs:        79213.5 ave      115257 max           0 min
Histogram: 8 4 4 0 10 6 8 8 24 32

Total # of neighbors = 8238205
Ave neighs/atom = 28.530481
Neighbor list builds = 0
Dangerous builds = 0
The dot product: 2.10938944958817e-09
Setting atom values ...
  1 settings made for x
  1 settings made for y
  1 settings made for z
Setting up cg style minimization ...
  Unit style    : metal
  Current step  : 7158
Per MPI rank memory allocation (min/avg/max) = 5.441 | 5.816 | 6.074 Mbytes
Step PotEng KinEng TotEng v_fx v_fy v_fz 
    7158   -1152448.6            0   -1152448.6  0.022028955 -0.00050258109 -0.026171197 
    7400   -1152448.6            0   -1152448.6 1.4533351e-05 2.5712851e-06 -1.7028834e-05 
Loop time of 2.88286 on 104 procs for 242 steps with 288751 atoms

99.9% CPU use with 104 MPI tasks x 1 OpenMP threads

Minimization stats:
  Stopping criterion = energy tolerance
  Energy initial, next-to-last, final = 
     -1152448.55834436  -1152448.57009557  -1152448.57009557
  Force two-norm initial, final = 0.18455699 9.5336420e-05
  Force max component initial, final = 0.14666083 2.1891379e-05
  Final line search alpha, max atom move = 1.0000000 2.1891379e-05
  Iterations, force evaluations = 242 484

MPI task timing breakdown:
Section |  min time  |  avg time  |  max time  |%varavg| %total
---------------------------------------------------------------
Pair    | 0.74173    | 2.0508     | 2.6775     |  38.5 | 71.14
Neigh   | 1.0145e-05 | 0.0029321  | 0.0042519  |   2.2 |  0.10
Comm    | 0.051577   | 0.4694     | 1.3824     |  55.5 | 16.28
Output  | 0          | 0          | 0          |   0.0 |  0.00
Modify  | 2.9752e-05 | 0.0040013  | 0.008586   |   3.0 |  0.14
Other   |            | 0.3557     |            |       | 12.34

Nlocal:        2776.45 ave        3952 max           0 min
Histogram: 8 4 4 0 4 12 8 0 30 34
Nghost:        3878.77 ave        5425 max         232 min
Histogram: 8 0 8 0 16 0 8 8 16 40
Neighs:        79213.4 ave      115226 max           0 min
Histogram: 8 4 4 0 10 6 8 8 24 32

Total # of neighbors = 8238195
Ave neighs/atom = 28.530447
Neighbor list builds = 1
Dangerous builds = 0
The dot product: -3.20126443958364e-07
Setting atom values ...
  1 settings made for x
  1 settings made for y
  1 settings made for z
Setting up cg style minimization ...
  Unit style    : metal
  Current step  : 7400
Per MPI rank memory allocation (min/avg/max) = 5.441 | 5.816 | 6.074 Mbytes
Step PotEng KinEng TotEng v_fx v_fy v_fz 
    7400   -1152448.5            0   -1152448.5  0.014538831 0.0020524604  -0.01645202 
    7728   -1152448.5            0   -1152448.5 3.7807177e-05 3.5616731e-06 -4.2933156e-05 
[...]
Histogram: 8 0 8 0 16 0 8 8 16 40
Neighs:        79213.2 ave      115454 max           0 min
Histogram: 8 4 4 0 10 6 8 8 24 32

Total # of neighbors = 8238174
Ave neighs/atom = 28.530374
Neighbor list builds = 0
Dangerous builds = 0
The dot product: -3.53032018345523e-08
Setting atom values ...
  1 settings made for x
  1 settings made for y
  1 settings made for z
Setting up cg style minimization ...
  Unit style    : metal
  Current step  : 27437
Per MPI rank memory allocation (min/avg/max) = 5.441 | 5.816 | 6.074 Mbytes
Step PotEng KinEng TotEng v_fx v_fy v_fz 
   27437   -1152449.1            0   -1152449.1 -0.00094578483 0.0072706253 0.0096967378 
   27587   -1152449.1            0   -1152449.1 1.5576834e-05 1.3182312e-05 5.1648927e-06 
Loop time of 1.76341 on 104 procs for 150 steps with 288751 atoms

99.9% CPU use with 104 MPI tasks x 1 OpenMP threads

Minimization stats:
  Stopping criterion = energy tolerance
  Energy initial, next-to-last, final = 
     -1152449.10685654  -1152449.10821579  -1152449.10821579
  Force two-norm initial, final = 0.16201867 0.00023193389
  Force max component initial, final = 0.094519936 4.3339959e-05
  Final line search alpha, max atom move = 1.0000000 4.3339959e-05
  Iterations, force evaluations = 150 300

MPI task timing breakdown:
Section |  min time  |  avg time  |  max time  |%varavg| %total
---------------------------------------------------------------
Pair    | 0.45384    | 1.2666     | 1.6575     |  30.6 | 71.83
Neigh   | 0          | 0          | 0          |   0.0 |  0.00
Comm    | 0.025308   | 0.29384    | 0.87582    |  44.3 | 16.66
Output  | 0          | 0          | 0          |   0.0 |  0.00
Modify  | 1.6635e-05 | 0.0024913  | 0.0052376  |   2.3 |  0.14
Other   |            | 0.2004     |            |       | 11.37

Nlocal:        2776.45 ave        3961 max           0 min
Histogram: 8 4 4 0 6 10 8 4 26 34
Nghost:        3879.11 ave        5425 max         232 min
Histogram: 8 0 8 0 16 0 8 8 16 40
Neighs:        79213.2 ave      115454 max           0 min
Histogram: 8 4 4 0 10 6 8 8 24 32

Total # of neighbors = 8238172
Ave neighs/atom = 28.530367
Neighbor list builds = 0
Dangerous builds = 0
The dot product: 4.25583049382192e-08
Setting atom values ...
  1 settings made for x
  1 settings made for y
  1 settings made for z
Setting up cg style minimization ...
  Unit style    : metal
  Current step  : 27587
Per MPI rank memory allocation (min/avg/max) = 5.441 | 5.816 | 6.074 Mbytes
Step PotEng KinEng TotEng v_fx v_fy v_fz 
   27587   -1152449.1            0   -1152449.1 -0.0010492355 0.0061499809 0.0083901157 
   27714   -1152449.1            0   -1152449.1 -4.089216e-05 -9.7316223e-06 1.7268084e-05 
Loop time of 1.48259 on 104 procs for 127 steps with 288751 atoms

99.9% CPU use with 104 MPI tasks x 1 OpenMP threads

Minimization stats:
  Stopping criterion = energy tolerance
  Energy initial, next-to-last, final = 
     -1152449.08706734  -1152449.08846343  -1152449.08846343
  Force two-norm initial, final = 0.16178366 0.00033348382
  Force max component initial, final = 0.095308184 4.4175678e-05
  Final line search alpha, max atom move = 1.0000000 4.4175678e-05
  Iterations, force evaluations = 127 254

MPI task timing breakdown:
Section |  min time  |  avg time  |  max time  |%varavg| %total
---------------------------------------------------------------
Pair    | 0.38368    | 1.0705     | 1.3977     |  28.0 | 72.21
Neigh   | 0          | 0          | 0          |   0.0 |  0.00
Comm    | 0.022772   | 0.24295    | 0.72464    |  41.1 | 16.39
Output  | 0          | 0          | 0          |   0.0 |  0.00
Modify  | 1.4289e-05 | 0.0021076  | 0.0044577  |   2.2 |  0.14
Other   |            | 0.167      |            |       | 11.27

Nlocal:        2776.45 ave        3961 max           0 min
Histogram: 8 4 4 0 6 10 8 4 26 34
Nghost:        3879.11 ave        5425 max         232 min
Histogram: 8 0 8 0 16 0 8 8 16 40
Neighs:        79213.2 ave      115469 max           0 min
Histogram: 8 4 4 0 10 6 8 8 24 32

Total # of neighbors = 8238172
Ave neighs/atom = 28.530367
Neighbor list builds = 0
Dangerous builds = 0
The dot product: -5.17594721781975e-08
Setting atom values ...
  1 settings made for x
  1 settings made for y
  1 settings made for z
Setting up cg style minimization ...
  Unit style    : metal
  Current step  : 27714
Per MPI rank memory allocation (min/avg/max) = 5.441 | 5.816 | 6.074 Mbytes
Step PotEng KinEng TotEng v_fx v_fy v_fz 
   27714   -1152449.1            0   -1152449.1 -0.001226009 0.0051885443 0.0073307323 
   27920   -1152449.1            0   -1152449.1 -1.2115155e-05 9.8323577e-07 9.9148553e-06 
Loop time of 2.41471 on 104 procs for 206 steps with 288751 atoms

99.9% CPU use with 104 MPI tasks x 1 OpenMP threads

Minimization stats:
  Stopping criterion = energy tolerance
  Energy initial, next-to-last, final = 
     -1152449.06627008  -1152449.06765688  -1152449.06765688
  Force two-norm initial, final = 0.16182896 5.2851468e-05
  Force max component initial, final = 0.096141697 1.4862893e-05
  Final line search alpha, max atom move = 1.0000000 1.4862893e-05
  Iterations, force evaluations = 206 412

MPI task timing breakdown:
Section |  min time  |  avg time  |  max time  |%varavg| %total
---------------------------------------------------------------
Pair    | 0.62062    | 1.7375     | 2.2725     |  35.6 | 71.96
Neigh   | 0          | 0          | 0          |   0.0 |  0.00
Comm    | 0.036969   | 0.39564    | 1.1732     |  51.9 | 16.38
Output  | 0          | 0          | 0          |   0.0 |  0.00
Modify  | 2.2833e-05 | 0.0034158  | 0.0072174  |   2.7 |  0.14
Other   |            | 0.2781     |            |       | 11.52

Nlocal:        2776.45 ave        3961 max           0 min
Histogram: 8 4 4 0 6 10 8 4 26 34
Nghost:        3879.14 ave        5425 max         232 min
Histogram: 8 0 8 0 16 0 8 8 16 40
Neighs:        79213.2 ave      115467 max           0 min
Histogram: 8 4 4 0 10 6 8 8 24 32

Total # of neighbors = 8238171
Ave neighs/atom = 28.530364
Neighbor list builds = 0
Dangerous builds = 0
The dot product: -4.70325492905145e-09
Setting atom values ...
  1 settings made for x
  1 settings made for y
  1 settings made for z
Setting up cg style minimization ...
  Unit style    : metal
  Current step  : 27920
Per MPI rank memory allocation (min/avg/max) = 5.441 | 5.816 | 6.074 Mbytes
Step PotEng KinEng TotEng v_fx v_fy v_fz 
   27920     -1152449            0     -1152449 -0.0011709854 0.0042997541 0.0061915085 
   28000     -1152449            0     -1152449 -0.00011140353 6.9966539e-05 0.00016697846 
   28097     -1152449            0     -1152449 8.8276081e-06 7.8104718e-07 -5.3586579e-06 
Loop time of 2.07103 on 104 procs for 177 steps with 288751 atoms

99.9% CPU use with 104 MPI tasks x 1 OpenMP threads

Minimization stats:
  Stopping criterion = energy tolerance
  Energy initial, next-to-last, final = 
      -1152449.0443143   -1152449.0456674   -1152449.0456674
  Force two-norm initial, final = 0.1619401 0.00013404428
  Force max component initial, final = 0.096812677 1.6615966e-05
  Final line search alpha, max atom move = 1.0000000 1.6615966e-05
  Iterations, force evaluations = 177 354

MPI task timing breakdown:
Section |  min time  |  avg time  |  max time  |%varavg| %total
---------------------------------------------------------------
Pair    | 0.53429    | 1.4911     | 1.9455     |  33.1 | 72.00
Neigh   | 0          | 0          | 0          |   0.0 |  0.00
Comm    | 0.031179   | 0.34007    | 1.0117     |  48.0 | 16.42
Output  | 0.00019834 | 0.0002013  | 0.00034444 |   0.0 |  0.01
Modify  | 1.9617e-05 | 0.0029359  | 0.006218   |   2.5 |  0.14
Other   |            | 0.2367     |            |       | 11.43

Nlocal:        2776.45 ave        3960 max           0 min
Histogram: 8 4 4 0 4 12 8 4 26 34
Nghost:        3879.14 ave        5425 max         232 min
Histogram: 8 0 8 0 16 0 8 8 16 40
Neighs:        79213.2 ave      115431 max           0 min
Histogram: 8 4 4 0 10 6 8 8 24 32

Total # of neighbors = 8238170
Ave neighs/atom = 28.530360
Neighbor list builds = 0
Dangerous builds = 0
The dot product: 6.07828068554931e-09
Setting atom values ...
  1 settings made for x
  1 settings made for y
  1 settings made for z
Setting up cg style minimization ...
  Unit style    : metal
  Current step  : 28097
Per MPI rank memory allocation (min/avg/max) = 5.441 | 5.816 | 6.074 Mbytes
Step PotEng KinEng TotEng v_fx v_fy v_fz 
   28097     -1152449            0     -1152449 -0.00084012104 0.0035262907 0.0049952167 
   28363     -1152449            0     -1152449 -7.8366794e-07 5.5000305e-08 6.3031539e-07 
Loop time of 3.11623 on 104 procs for 266 steps with 288751 atoms

99.9% CPU use with 104 MPI tasks x 1 OpenMP threads

Minimization stats:
  Stopping criterion = energy tolerance
  Energy initial, next-to-last, final = 
     -1152449.02105498  -1152449.02238753  -1152449.02238753
  Force two-norm initial, final = 0.16217529 3.8620384e-06
  Force max component initial, final = 0.097450526 7.8366794e-07
  Final line search alpha, max atom move = 1.0000000 7.8366794e-07
  Iterations, force evaluations = 266 532

MPI task timing breakdown:
Section |  min time  |  avg time  |  max time  |%varavg| %total
---------------------------------------------------------------
Pair    | 0.80208    | 2.2382     | 2.9393     |  40.6 | 71.82
Neigh   | 0          | 0          | 0          |   0.0 |  0.00
Comm    | 0.045541   | 0.51509    | 1.5286     |  58.7 | 16.53
Output  | 0          | 0          | 0          |   0.0 |  0.00
Modify  | 2.9807e-05 | 0.0044035  | 0.0093035  |   3.1 |  0.14
Other   |            | 0.3585     |            |       | 11.51

Nlocal:        2776.45 ave        3960 max           0 min
Histogram: 8 4 4 0 4 12 8 4 26 34
Nghost:        3879.16 ave        5425 max         232 min
Histogram: 8 0 8 0 16 0 8 8 16 40
Neighs:        79213.2 ave      115433 max           0 min
Histogram: 8 4 4 0 10 6 8 8 24 32

Total # of neighbors = 8238171
Ave neighs/atom = 28.530364
Neighbor list builds = 0
Dangerous builds = 0
The dot product: -3.67229354857733e-10
Setting atom values ...
  1 settings made for x
  1 settings made for y
  1 settings made for z
Setting up cg style minimization ...
  Unit style    : metal
  Current step  : 28363
Per MPI rank memory allocation (min/avg/max) = 5.441 | 5.816 | 6.074 Mbytes
Step PotEng KinEng TotEng v_fx v_fy v_fz 
   28363     -1152449            0     -1152449 -0.00024064398 0.0028475096 0.0037223499 
   28538     -1152449            0     -1152449 3.3860282e-06 -1.6367325e-05 -2.283101e-05 
Loop time of 2.04327 on 104 procs for 175 steps with 288751 atoms

99.9% CPU use with 104 MPI tasks x 1 OpenMP threads

Minimization stats:
  Stopping criterion = energy tolerance
  Energy initial, next-to-last, final = 
     -1152448.99640389  -1152448.99771834  -1152448.99771834
  Force two-norm initial, final = 0.16262269 0.00016903591
  Force max component initial, final = 0.098090016 3.3136433e-05
  Final line search alpha, max atom move = 1.0000000 3.3136433e-05
  Iterations, force evaluations = 175 350

MPI task timing breakdown:
Section |  min time  |  avg time  |  max time  |%varavg| %total
---------------------------------------------------------------
Pair    | 0.52989    | 1.4716     | 1.9203     |  32.8 | 72.02
Neigh   | 0          | 0          | 0          |   0.0 |  0.00
Comm    | 0.030994   | 0.33406    | 0.99877    |  48.2 | 16.35
Output  | 0          | 0          | 0          |   0.0 |  0.00
Modify  | 1.9548e-05 | 0.0029037  | 0.0061209  |   2.5 |  0.14
Other   |            | 0.2347     |            |       | 11.49

Nlocal:        2776.45 ave        3960 max           0 min
Histogram: 8 4 4 0 4 12 8 4 26 34
Nghost:        3879.18 ave        5425 max         232 min
Histogram: 8 0 8 0 16 0 8 8 16 40
Neighs:        79213.2 ave      115434 max           0 min
Histogram: 8 4 4 0 10 6 8 8 24 32

Total # of neighbors = 8238173
Ave neighs/atom = 28.530370
Neighbor list builds = 0
Dangerous builds = 0
The dot product: -1.78685080990537e-08
Setting atom values ...
  1 settings made for x
  1 settings made for y
  1 settings made for z
Setting up cg style minimization ...
  Unit style    : metal
  Current step  : 28538
Per MPI rank memory allocation (min/avg/max) = 5.441 | 5.816 | 6.074 Mbytes
Step PotEng KinEng TotEng v_fx v_fy v_fz 
   28538     -1152449            0     -1152449 0.00057261964 0.0022394694 0.0023833162 
   28738     -1152449            0     -1152449 2.3229595e-06 8.042273e-06 8.367927e-06 
Loop time of 2.3483 on 104 procs for 200 steps with 288751 atoms

99.9% CPU use with 104 MPI tasks x 1 OpenMP threads

Minimization stats:
  Stopping criterion = energy tolerance
  Energy initial, next-to-last, final = 
     -1152448.97026049  -1152448.97156044  -1152448.97156044
  Force two-norm initial, final = 0.16325995 8.3003836e-05
  Force max component initial, final = 0.098678627 2.4801475e-05
  Final line search alpha, max atom move = 1.0000000 2.4801475e-05
  Iterations, force evaluations = 200 400

MPI task timing breakdown:
Section |  min time  |  avg time  |  max time  |%varavg| %total
---------------------------------------------------------------
Pair    | 0.6025     | 1.6861     | 2.2139     |  35.3 | 71.80
Neigh   | 0          | 0          | 0          |   0.0 |  0.00
Comm    | 0.033433   | 0.39206    | 1.1694     |  50.9 | 16.70
Output  | 0          | 0          | 0          |   0.0 |  0.00
Modify  | 2.2446e-05 | 0.0033126  | 0.0069927  |   2.7 |  0.14
Other   |            | 0.2669     |            |       | 11.36

Nlocal:        2776.45 ave        3960 max           0 min
Histogram: 8 4 4 0 4 12 8 4 26 34
Nghost:        3879.16 ave        5425 max         232 min
Histogram: 8 0 8 0 16 0 8 8 16 40
Neighs:        79213.2 ave      115431 max           0 min
Histogram: 8 4 4 0 10 6 8 8 24 32

Total # of neighbors = 8238171
Ave neighs/atom = 28.530364
Neighbor list builds = 0
Dangerous builds = 0
The dot product: 8.56827971917082e-09
Setting atom values ...
  1 settings made for x
  1 settings made for y
  1 settings made for z
Setting up cg style minimization ...
  Unit style    : metal
  Current step  : 28738
Per MPI rank memory allocation (min/avg/max) = 5.441 | 5.816 | 6.074 Mbytes
Step PotEng KinEng TotEng v_fx v_fy v_fz 
   28738   -1152448.9            0   -1152448.9 0.0014221723  0.001745938 0.0011608234 
   28922   -1152448.9            0   -1152448.9 2.0864784e-05 -1.4818755e-05 -3.3420512e-05 
Loop time of 2.15146 on 104 procs for 184 steps with 288751 atoms

99.9% CPU use with 104 MPI tasks x 1 OpenMP threads

Minimization stats:
  Stopping criterion = energy tolerance
  Energy initial, next-to-last, final = 
     -1152448.94253374   -1152448.9438277   -1152448.9438277
  Force two-norm initial, final = 0.16413913 0.00012550431
  Force max component initial, final = 0.099215574 3.3420512e-05
  Final line search alpha, max atom move = 1.0000000 3.3420512e-05
  Iterations, force evaluations = 184 368

MPI task timing breakdown:
Section |  min time  |  avg time  |  max time  |%varavg| %total
---------------------------------------------------------------
Pair    | 0.55424    | 1.5494     | 2.0236     |  33.7 | 72.02
Neigh   | 0          | 0          | 0          |   0.0 |  0.00
Comm    | 0.032885   | 0.35363    | 1.0494     |  49.2 | 16.44
Output  | 0          | 0          | 0          |   0.0 |  0.00
Modify  | 2.2135e-05 | 0.0030475  | 0.0064603  |   2.6 |  0.14
Other   |            | 0.2454     |            |       | 11.41

Nlocal:        2776.45 ave        3960 max           0 min
Histogram: 8 4 4 0 4 12 8 4 26 34
Nghost:        3879.15 ave        5426 max         232 min
Histogram: 8 0 8 0 16 0 8 8 16 40
Neighs:        79213.2 ave      115435 max           0 min
Histogram: 8 4 4 0 10 6 8 8 24 32

Total # of neighbors = 8238172
Ave neighs/atom = 28.530367
Neighbor list builds = 0
Dangerous builds = 0
The dot product: 2.01749579733645e-08
Setting atom values ...
  1 settings made for x
  1 settings made for y
  1 settings made for z
Setting up cg style minimization ...
  Unit style    : metal
  Current step  : 28922
Per MPI rank memory allocation (min/avg/max) = 5.441 | 5.816 | 6.074 Mbytes
Step PotEng KinEng TotEng v_fx v_fy v_fz 
   28922   -1152448.9            0   -1152448.9 0.0021025379  0.001279655 9.3873244e-05 
   29000   -1152448.9            0   -1152448.9 4.1443385e-05 5.3668763e-05 3.7349534e-05 
   29101   -1152448.9            0   -1152448.9 -1.8560919e-05 -7.6605836e-06 3.708999e-06 
Loop time of 2.10241 on 104 procs for 179 steps with 288751 atoms

99.9% CPU use with 104 MPI tasks x 1 OpenMP threads

Minimization stats:
  Stopping criterion = energy tolerance
  Energy initial, next-to-last, final = 
     -1152448.91315352  -1152448.91444724  -1152448.91444724
  Force two-norm initial, final = 0.1652025 0.00016718085
  Force max component initial, final = 0.099784291 4.0442868e-05
  Final line search alpha, max atom move = 1.0000000 4.0442868e-05
  Iterations, force evaluations = 179 358

MPI task timing breakdown:
Section |  min time  |  avg time  |  max time  |%varavg| %total
---------------------------------------------------------------
Pair    | 0.54413    | 1.5121     | 1.9757     |  33.2 | 71.92
Neigh   | 0          | 0          | 0          |   0.0 |  0.00
Comm    | 0.034971   | 0.34916    | 1.0427     |  48.4 | 16.61
Output  | 0.00016202 | 0.00016604 | 0.00034869 |   0.0 |  0.01
Modify  | 2.2451e-05 | 0.0029675  | 0.0062559  |   2.6 |  0.14
Other   |            | 0.238      |            |       | 11.32

Nlocal:        2776.45 ave        3960 max           0 min
Histogram: 8 4 4 0 4 12 8 4 26 34
Nghost:        3879.04 ave        5426 max         232 min
Histogram: 8 0 8 0 16 0 8 8 16 40
Neighs:        79213.2 ave      115425 max           0 min
Histogram: 8 4 4 0 10 6 8 8 24 32

Total # of neighbors = 8238170
Ave neighs/atom = 28.530360
Neighbor list builds = 0
Dangerous builds = 0
The dot product: -2.78594136674868e-08
Setting atom values ...
  1 settings made for x
  1 settings made for y
  1 settings made for z
Setting up cg style minimization ...
  Unit style    : metal
  Current step  : 29101
Per MPI rank memory allocation (min/avg/max) = 5.441 | 5.816 | 6.074 Mbytes
Step PotEng KinEng TotEng v_fx v_fy v_fz 
   29101   -1152448.9            0   -1152448.9 0.0023327318 0.00088681599 -0.00055910627 
   29375   -1152448.9            0   -1152448.9 1.7392334e-07 -1.1051781e-08 -1.3800032e-07 
Loop time of 3.24224 on 104 procs for 274 steps with 288751 atoms

99.9% CPU use with 104 MPI tasks x 1 OpenMP threads

Minimization stats:
  Stopping criterion = energy tolerance
  Energy initial, next-to-last, final = 
     -1152448.88206077  -1152448.88335676  -1152448.88335676
  Force two-norm initial, final = 0.16632749 3.4136851e-06
  Force max component initial, final = 0.10023323 2.1442136e-07
  Final line search alpha, max atom move = 1.0000000 2.1442136e-07
  Iterations, force evaluations = 274 548

MPI task timing breakdown:
Section |  min time  |  avg time  |  max time  |%varavg| %total
---------------------------------------------------------------
Pair    | 0.82587    | 2.3167     | 3.0443     |  41.4 | 71.46
Neigh   | 0          | 0          | 0          |   0.0 |  0.00
Comm    | 0.051335   | 0.53345    | 1.5666     |  59.2 | 16.45
Output  | 0          | 0          | 0          |   0.0 |  0.00
Modify  | 3.0156e-05 | 0.0045456  | 0.0096099  |   3.2 |  0.14
Other   |            | 0.3875     |            |       | 11.95

Nlocal:        2776.45 ave        3960 max           0 min
Histogram: 8 4 4 0 4 12 8 4 26 34
Nghost:        3879.07 ave        5426 max         232 min
Histogram: 8 0 8 0 16 0 8 8 16 40
Neighs:        79213.2 ave      115425 max           0 min
Histogram: 8 4 4 0 10 6 8 8 24 32

Total # of neighbors = 8238169
Ave neighs/atom = 28.530357
Neighbor list builds = 0
Dangerous builds = 0
The dot product: 2.62886502337777e-10
