LAMMPS (29 Oct 2020)
OMP_NUM_THREADS environment is not set. Defaulting to 1 thread. (../comm.cpp:94)
  using 1 OpenMP thread(s) per MPI task
OMP_NUM_THREADS environment is not set. Defaulting to 1 thread. (../comm.cpp:94)
  using 1 OpenMP thread(s) per MPI task
Reading data file ...
  orthogonal box = (-122.39241 -121.13707 -37.090501) to (122.39241 121.13707 37.090501)
  13 by 4 by 2 MPI processor grid
  reading atoms ...
  288751 atoms
  read_data CPU = 0.417 seconds
199981 atoms in group inner
88770 atoms in group outer
1 atoms in group carbon
Neighbor list info ...
  update every 1 steps, delay 0 steps, check yes
  max neighbors/atom: 2000, page size: 100000
  master list distance cutoff = 5.6
  ghost atom cutoff = 5.6
  binsize = 2.8, bins = 88 87 27
  1 neighbor lists, perpetual/occasional/extra = 1 0 0
  (1) pair eam/alloy, perpetual
      attributes: half, newton on
      pair build: half/bin/atomonly/newton
      stencil: half/bin/3d/newton
      bin: standard
Setting up cg style minimization ...
  Unit style    : metal
  Current step  : 0
Per MPI rank memory allocation (min/avg/max) = 5.441 | 5.816 | 6.074 Mbytes
Step v_fx v_fy v_fz PotEng KinEng TotEng 
       0   0.22017325   0.62875094  -0.56449545   -1152447.8            0   -1152447.8 
     223 -7.916844e-07 1.192087e-06 -1.2302382e-06   -1152449.5            0   -1152449.5 
Loop time of 2.67814 on 104 procs for 223 steps with 288751 atoms

99.8% CPU use with 104 MPI tasks x 1 OpenMP threads

Minimization stats:
  Stopping criterion = energy tolerance
  Energy initial, next-to-last, final = 
     -1152447.84135674  -1152449.45035272  -1152449.45035272
  Force two-norm initial, final = 9.8329665 1.0780119e-05
  Force max component initial, final = 4.6431781 2.8763470e-06
  Final line search alpha, max atom move = 1.0000000 2.8763470e-06
  Iterations, force evaluations = 223 445

MPI task timing breakdown:
Section |  min time  |  avg time  |  max time  |%varavg| %total
---------------------------------------------------------------
Pair    | 0.67933    | 1.8784     | 2.4459     |  37.0 | 70.14
Neigh   | 2.1542e-05 | 0.0058577  | 0.0088472  |   3.2 |  0.22
Comm    | 0.046688   | 0.43618    | 1.2588     |  52.9 | 16.29
Output  | 0          | 0          | 0          |   0.0 |  0.00
Modify  | 2.6383e-05 | 0.0024093  | 0.0061323  |   3.0 |  0.09
Other   |            | 0.3553     |            |       | 13.27

Nlocal:        2776.45 ave        3960 max           0 min
Histogram: 8 4 4 0 4 12 8 2 28 34
Nghost:        3879.03 ave        5425 max         232 min
Histogram: 8 0 8 0 16 0 8 8 16 40
Neighs:        79213.7 ave      115434 max           0 min
Histogram: 8 4 4 0 10 6 8 8 24 32

Total # of neighbors = 8238223
Ave neighs/atom = 28.530544
Neighbor list builds = 2
Dangerous builds = 0
Setting atom values ...
  1 settings made for x
  1 settings made for y
  1 settings made for z
Setting up cg style minimization ...
  Unit style    : metal
  Current step  : 223
Per MPI rank memory allocation (min/avg/max) = 5.441 | 5.816 | 6.074 Mbytes
Step PotEng KinEng TotEng v_fx v_fy v_fz 
     223   -1152449.4            0   -1152449.4 -0.017408354 0.0075727524 -0.019226659 
     331   -1152449.5            0   -1152449.5 -1.0089532e-05 1.9579275e-05 3.7355415e-05 
Loop time of 1.27524 on 104 procs for 108 steps with 288751 atoms

99.9% CPU use with 104 MPI tasks x 1 OpenMP threads

Minimization stats:
  Stopping criterion = energy tolerance
  Energy initial, next-to-last, final = 
     -1152449.44953739  -1152449.45002973  -1152449.45002973
  Force two-norm initial, final = 0.10020141 0.00022529977
  Force max component initial, final = 0.050911 5.9855846e-05
  Final line search alpha, max atom move = 1.0000000 5.9855846e-05
  Iterations, force evaluations = 108 216

MPI task timing breakdown:
Section |  min time  |  avg time  |  max time  |%varavg| %total
---------------------------------------------------------------
Pair    | 0.32395    | 0.91454    | 1.194      |  26.0 | 71.71
Neigh   | 0          | 0          | 0          |   0.0 |  0.00
Comm    | 0.020865   | 0.20849    | 0.61986    |  38.0 | 16.35
Output  | 0          | 0          | 0          |   0.0 |  0.00
Modify  | 1.3365e-05 | 0.0017888  | 0.0038449  |   2.0 |  0.14
Other   |            | 0.1504     |            |       | 11.80

Nlocal:        2776.45 ave        3957 max           0 min
Histogram: 8 4 4 0 4 12 8 2 28 34
Nghost:        3879.03 ave        5424 max         232 min
Histogram: 8 0 8 0 16 0 8 8 16 40
Neighs:        79213.4 ave      115350 max           0 min
Histogram: 8 4 4 0 10 6 8 8 24 32

Total # of neighbors = 8238197
Ave neighs/atom = 28.530454
Neighbor list builds = 0
Dangerous builds = 0
Setting atom values ...
  1 settings made for x
  1 settings made for y
  1 settings made for z
Setting up cg style minimization ...
  Unit style    : metal
  Current step  : 331
Per MPI rank memory allocation (min/avg/max) = 5.441 | 5.816 | 6.074 Mbytes
Step PotEng KinEng TotEng v_fx v_fy v_fz 
     331   -1152449.4            0   -1152449.4 -0.025104255  0.016372022 -0.024502723 
     471   -1152449.4            0   -1152449.4 -2.3588978e-05 2.7976032e-05 3.4232134e-05 
Loop time of 1.68487 on 104 procs for 140 steps with 288751 atoms

99.9% CPU use with 104 MPI tasks x 1 OpenMP threads

Minimization stats:
  Stopping criterion = energy tolerance
  Energy initial, next-to-last, final = 
     -1152449.44684067  -1152449.44812659  -1152449.44812659
  Force two-norm initial, final = 0.16021983 0.00016076216
  Force max component initial, final = 0.090285791 3.4232134e-05
  Final line search alpha, max atom move = 1.0000000 3.4232134e-05
  Iterations, force evaluations = 140 280

MPI task timing breakdown:
Section |  min time  |  avg time  |  max time  |%varavg| %total
---------------------------------------------------------------
Pair    | 0.42298    | 1.1814     | 1.5432     |  29.5 | 70.12
Neigh   | 0          | 0          | 0          |   0.0 |  0.00
Comm    | 0.040384   | 0.27479    | 0.80512    |  42.3 | 16.31
Output  | 0          | 0          | 0          |   0.0 |  0.00
Modify  | 1.7676e-05 | 0.0023159  | 0.0049466  |   2.3 |  0.14
Other   |            | 0.2263     |            |       | 13.43

Nlocal:        2776.45 ave        3957 max           0 min
Histogram: 8 4 4 0 4 12 8 2 28 34
Nghost:        3879.03 ave        5424 max         232 min
Histogram: 8 0 8 0 16 0 8 8 16 40
Neighs:        79213.4 ave      115350 max           0 min
Histogram: 8 4 4 0 10 6 8 8 24 32

Total # of neighbors = 8238196
Ave neighs/atom = 28.530450
Neighbor list builds = 0
Dangerous builds = 0
The dot product: -1.16569259412825e-09
Setting atom values ...
  1 settings made for x
  1 settings made for y
  1 settings made for z
Setting up cg style minimization ...
  Unit style    : metal
  Current step  : 471
Per MPI rank memory allocation (min/avg/max) = 5.441 | 5.816 | 6.074 Mbytes
Step PotEng KinEng TotEng v_fx v_fy v_fz 
     471   -1152449.4            0   -1152449.4 -0.021934252  0.018288764 -0.015699093 
     703   -1152449.4            0   -1152449.4 -1.6993307e-06 1.493401e-06 -7.4270432e-07 
Loop time of 2.71567 on 104 procs for 232 steps with 288751 atoms

99.9% CPU use with 104 MPI tasks x 1 OpenMP threads

Minimization stats:
  Stopping criterion = energy tolerance
  Energy initial, next-to-last, final = 
     -1152449.44335721  -1152449.44460523  -1152449.44460523
  Force two-norm initial, final = 0.15617898 1.4898944e-05
  Force max component initial, final = 0.09482425 2.6943017e-06
  Final line search alpha, max atom move = 1.0000000 2.6943017e-06
  Iterations, force evaluations = 232 464

MPI task timing breakdown:
Section |  min time  |  avg time  |  max time  |%varavg| %total
---------------------------------------------------------------
Pair    | 0.69544    | 1.9625     | 2.5372     |  38.0 | 72.27
Neigh   | 0          | 0          | 0          |   0.0 |  0.00
Comm    | 0.040108   | 0.44741    | 1.3349     |  55.9 | 16.48
Output  | 0          | 0          | 0          |   0.0 |  0.00
Modify  | 2.8442e-05 | 0.003837   | 0.0081656  |   2.9 |  0.14
Other   |            | 0.3019     |            |       | 11.12

Nlocal:        2776.45 ave        3956 max           0 min
Histogram: 8 4 4 0 4 12 8 0 30 34
Nghost:        3879.03 ave        5424 max         232 min
Histogram: 8 0 8 0 16 0 8 8 16 40
Neighs:        79213.4 ave      115351 max           0 min
Histogram: 8 4 4 0 10 6 8 8 24 32

Total # of neighbors = 8238195
Ave neighs/atom = 28.530447
Neighbor list builds = 0
Dangerous builds = 0
The dot product: 4.95879346563793e-09
Setting atom values ...
  1 settings made for x
  1 settings made for y
  1 settings made for z
Setting up cg style minimization ...
  Unit style    : metal
  Current step  : 703
Per MPI rank memory allocation (min/avg/max) = 5.441 | 5.816 | 6.074 Mbytes
Step PotEng KinEng TotEng v_fx v_fy v_fz 
     703   -1152449.4            0   -1152449.4 -0.019152175  0.018417915 -0.0080263469 
     832   -1152449.4            0   -1152449.4 1.6138628e-05 -1.2094953e-05 3.0708419e-05 
Loop time of 1.53747 on 104 procs for 129 steps with 288751 atoms

99.9% CPU use with 104 MPI tasks x 1 OpenMP threads

Minimization stats:
  Stopping criterion = energy tolerance
  Energy initial, next-to-last, final = 
      -1152449.4383052  -1152449.43953257  -1152449.43953257
  Force two-norm initial, final = 0.15366722 9.7302998e-05
  Force max component initial, final = 0.098461653 3.0708419e-05
  Final line search alpha, max atom move = 1.0000000 3.0708419e-05
  Iterations, force evaluations = 129 258

MPI task timing breakdown:
Section |  min time  |  avg time  |  max time  |%varavg| %total
---------------------------------------------------------------
Pair    | 0.39003    | 1.087      | 1.4127     |  28.2 | 70.70
Neigh   | 0          | 0          | 0          |   0.0 |  0.00
Comm    | 0.028803   | 0.24804    | 0.72942    |  41.0 | 16.13
Output  | 0          | 0          | 0          |   0.0 |  0.00
Modify  | 1.5628e-05 | 0.0021389  | 0.0045694  |   2.2 |  0.14
Other   |            | 0.2003     |            |       | 13.03

Nlocal:        2776.45 ave        3956 max           0 min
Histogram: 8 4 4 0 4 12 8 0 30 34
Nghost:        3879.03 ave        5424 max         232 min
Histogram: 8 0 8 0 16 0 8 8 16 40
Neighs:        79213.4 ave      115299 max           0 min
Histogram: 8 4 4 0 10 6 8 8 24 32

Total # of neighbors = 8238194
Ave neighs/atom = 28.530443
Neighbor list builds = 0
Dangerous builds = 0
The dot product: -3.98470084101678e-08
Setting atom values ...
  1 settings made for x
  1 settings made for y
  1 settings made for z
Setting up cg style minimization ...
  Unit style    : metal
  Current step  : 832
Per MPI rank memory allocation (min/avg/max) = 5.441 | 5.816 | 6.074 Mbytes
Step PotEng KinEng TotEng v_fx v_fy v_fz 
     832   -1152449.4            0   -1152449.4 -0.018967534  0.020145234 -0.0023835625 
     953   -1152449.4            0   -1152449.4 -8.2394217e-06 1.5981183e-05 4.7990158e-05 
Loop time of 1.42296 on 104 procs for 121 steps with 288751 atoms

99.9% CPU use with 104 MPI tasks x 1 OpenMP threads

Minimization stats:
  Stopping criterion = energy tolerance
  Energy initial, next-to-last, final = 
     -1152449.43172291  -1152449.43293487  -1152449.43293487
  Force two-norm initial, final = 0.1525303 0.00015780611
  Force max component initial, final = 0.10153193 4.7990158e-05
  Final line search alpha, max atom move = 1.0000000 4.7990158e-05
  Iterations, force evaluations = 121 242

MPI task timing breakdown:
Section |  min time  |  avg time  |  max time  |%varavg| %total
---------------------------------------------------------------
Pair    | 0.36382    | 1.0235     | 1.3306     |  27.5 | 71.93
Neigh   | 0          | 0          | 0          |   0.0 |  0.00
Comm    | 0.021378   | 0.23203    | 0.68919    |  40.2 | 16.31
Output  | 0          | 0          | 0          |   0.0 |  0.00
Modify  | 1.4767e-05 | 0.0020048  | 0.0042803  |   2.1 |  0.14
Other   |            | 0.1654     |            |       | 11.63

Nlocal:        2776.45 ave        3955 max           0 min
Histogram: 8 4 4 0 4 12 8 0 30 34
Nghost:        3879.03 ave        5424 max         232 min
Histogram: 8 0 8 0 16 0 8 8 16 40
Neighs:        79213.4 ave      115272 max           0 min
Histogram: 8 4 4 0 10 6 8 8 24 32

Total # of neighbors = 8238192
Ave neighs/atom = 28.530436
Neighbor list builds = 0
Dangerous builds = 0
The dot product: 8.03375168163655e-08
Setting atom values ...
  1 settings made for x
  1 settings made for y
  1 settings made for z
Setting up cg style minimization ...
  Unit style    : metal
  Current step  : 953
Per MPI rank memory allocation (min/avg/max) = 5.441 | 5.816 | 6.074 Mbytes
Step PotEng KinEng TotEng v_fx v_fy v_fz 
     953   -1152449.4            0   -1152449.4 -0.020650085  0.023940954 0.0020605656 
    1000   -1152449.4            0   -1152449.4 -6.3345769e-05 9.201818e-05 0.00011926481 
    1116   -1152449.4            0   -1152449.4 1.5391794e-05 -1.2630516e-05 3.0164364e-05 
Loop time of 1.90765 on 104 procs for 163 steps with 288751 atoms

99.9% CPU use with 104 MPI tasks x 1 OpenMP threads

Minimization stats:
  Stopping criterion = energy tolerance
  Energy initial, next-to-last, final = 
     -1152449.42366175  -1152449.42487478  -1152449.42487478
  Force two-norm initial, final = 0.15255007 0.00017432586
  Force max component initial, final = 0.10435874 3.5829697e-05
  Final line search alpha, max atom move = 1.0000000 3.5829697e-05
  Iterations, force evaluations = 163 326

MPI task timing breakdown:
Section |  min time  |  avg time  |  max time  |%varavg| %total
---------------------------------------------------------------
Pair    | 0.48829    | 1.3683     | 1.7778     |  31.7 | 71.73
Neigh   | 0          | 0          | 0          |   0.0 |  0.00
Comm    | 0.029268   | 0.30947    | 0.92475    |  46.7 | 16.22
Output  | 0.00025202 | 0.00025964 | 0.00036622 |   0.0 |  0.01
Modify  | 2.0605e-05 | 0.0026975  | 0.0057216  |   2.4 |  0.14
Other   |            | 0.2269     |            |       | 11.90

Nlocal:        2776.45 ave        3952 max           0 min
Histogram: 8 4 4 0 4 12 8 1 29 34
Nghost:        3879.03 ave        5424 max         232 min
Histogram: 8 0 8 0 16 0 8 8 16 40
Neighs:        79213.4 ave      115196 max           0 min
Histogram: 8 4 4 0 10 6 8 8 24 32

Total # of neighbors = 8238190
Ave neighs/atom = 28.530429
Neighbor list builds = 0
Dangerous builds = 0
The dot product: -3.77691902431864e-08
Setting atom values ...
  1 settings made for x
  1 settings made for y
  1 settings made for z
Setting up cg style minimization ...
  Unit style    : metal
  Current step  : 1116
Per MPI rank memory allocation (min/avg/max) = 5.441 | 5.816 | 6.074 Mbytes
Step PotEng KinEng TotEng v_fx v_fy v_fz 
    1116   -1152449.4            0   -1152449.4 -0.024345804   0.03106089 0.0057652548 
    1253   -1152449.4            0   -1152449.4 1.9718665e-05 -1.5197612e-05 4.7377252e-05 
Loop time of 1.59914 on 104 procs for 137 steps with 288751 atoms

99.9% CPU use with 104 MPI tasks x 1 OpenMP threads

Minimization stats:
  Stopping criterion = energy tolerance
  Energy initial, next-to-last, final = 
     -1152449.41422662  -1152449.41548285  -1152449.41548285
  Force two-norm initial, final = 0.15403912 0.00017385329
  Force max component initial, final = 0.10709637 4.7377252e-05
  Final line search alpha, max atom move = 1.0000000 4.7377252e-05
  Iterations, force evaluations = 137 274

MPI task timing breakdown:
Section |  min time  |  avg time  |  max time  |%varavg| %total
---------------------------------------------------------------
Pair    | 0.41161    | 1.1597     | 1.4968     |  28.9 | 72.52
Neigh   | 0          | 0          | 0          |   0.0 |  0.00
Comm    | 0.025288   | 0.25928    | 0.7782     |  43.2 | 16.21
Output  | 0          | 0          | 0          |   0.0 |  0.00
Modify  | 1.6638e-05 | 0.0022667  | 0.0048406  |   2.2 |  0.14
Other   |            | 0.1778     |            |       | 11.12

Nlocal:        2776.45 ave        3951 max           0 min
Histogram: 8 4 4 0 4 12 8 1 29 34
Nghost:        3879.03 ave        5424 max         232 min
Histogram: 8 0 8 0 16 0 8 8 16 40
Neighs:        79213.4 ave      115156 max           0 min
Histogram: 8 4 4 0 10 6 8 8 24 32

Total # of neighbors = 8238191
Ave neighs/atom = 28.530433
Neighbor list builds = 0
Dangerous builds = 0
The dot product: -8.16669271187365e-08
Setting atom values ...
  1 settings made for x
  1 settings made for y
  1 settings made for z
Setting up cg style minimization ...
  Unit style    : metal
  Current step  : 1253
Per MPI rank memory allocation (min/avg/max) = 5.441 | 5.816 | 6.074 Mbytes
Step PotEng KinEng TotEng v_fx v_fy v_fz 
    1253   -1152449.4            0   -1152449.4 -0.026513087  0.038281894 0.0080889188 
    1410   -1152449.4            0   -1152449.4 8.0230094e-06 -1.0545415e-05 2.0924545e-06 
Loop time of 1.83803 on 104 procs for 157 steps with 288751 atoms

99.9% CPU use with 104 MPI tasks x 1 OpenMP threads

Minimization stats:
  Stopping criterion = energy tolerance
  Energy initial, next-to-last, final = 
     -1152449.40355933  -1152449.40487586  -1152449.40487586
  Force two-norm initial, final = 0.15575259 0.00021076227
  Force max component initial, final = 0.10972578 1.3278590e-05
  Final line search alpha, max atom move = 1.0000000 1.3278590e-05
  Iterations, force evaluations = 157 314

MPI task timing breakdown:
Section |  min time  |  avg time  |  max time  |%varavg| %total
---------------------------------------------------------------
Pair    | 0.47183    | 1.3215     | 1.7157     |  31.1 | 71.90
Neigh   | 0          | 0          | 0          |   0.0 |  0.00
Comm    | 0.035609   | 0.30003    | 0.89139    |  45.7 | 16.32
Output  | 0          | 0          | 0          |   0.0 |  0.00
Modify  | 1.8594e-05 | 0.002598   | 0.0055506  |   2.4 |  0.14
Other   |            | 0.2139     |            |       | 11.64

Nlocal:        2776.45 ave        3950 max           0 min
Histogram: 8 4 4 0 4 12 8 2 26 36
Nghost:        3879.03 ave        5424 max         232 min
Histogram: 8 0 8 0 16 0 8 8 16 40
Neighs:        79213.4 ave      115118 max           0 min
Histogram: 8 4 4 0 10 6 8 8 24 32

Total # of neighbors = 8238192
Ave neighs/atom = 28.530436
Neighbor list builds = 0
Dangerous builds = 0
The dot product: -1.19069575524334e-07
Setting atom values ...
  1 settings made for x
  1 settings made for y
  1 settings made for z
Setting up cg style minimization ...
  Unit style    : metal
  Current step  : 1410
Per MPI rank memory allocation (min/avg/max) = 5.441 | 5.816 | 6.074 Mbytes
Step PotEng KinEng TotEng v_fx v_fy v_fz 
    1410   -1152449.4            0   -1152449.4 -0.025287543  0.042066603 0.0087617366 
    1544   -1152449.4            0   -1152449.4 -1.8777587e-05 9.8877402e-06 -7.1320349e-05 
Loop time of 1.58374 on 104 procs for 134 steps with 288751 atoms

99.9% CPU use with 104 MPI tasks x 1 OpenMP threads

Minimization stats:
  Stopping criterion = energy tolerance
  Energy initial, next-to-last, final = 
     -1152449.39171081  -1152449.39306505  -1152449.39306505
  Force two-norm initial, final = 0.15664019 0.00021949795
  Force max component initial, final = 0.11187635 7.1320349e-05
  Final line search alpha, max atom move = 1.0000000 7.1320349e-05
  Iterations, force evaluations = 134 268

MPI task timing breakdown:
Section |  min time  |  avg time  |  max time  |%varavg| %total
---------------------------------------------------------------
Pair    | 0.40074    | 1.1383     | 1.474      |  28.8 | 71.88
Neigh   | 0          | 0          | 0          |   0.0 |  0.00
Comm    | 0.024354   | 0.26025    | 0.77202    |  42.3 | 16.43
Output  | 0          | 0          | 0          |   0.0 |  0.00
Modify  | 1.6234e-05 | 0.0022277  | 0.0047965  |   2.2 |  0.14
Other   |            | 0.1829     |            |       | 11.55

Nlocal:        2776.45 ave        3950 max           0 min
Histogram: 8 4 4 0 4 12 8 2 26 36
Nghost:        3879.07 ave        5424 max         232 min
Histogram: 8 0 8 0 16 0 8 8 16 40
Neighs:        79213.4 ave      115125 max           0 min
Histogram: 8 4 4 0 10 6 8 8 24 32

Total # of neighbors = 8238191
Ave neighs/atom = 28.530433
Neighbor list builds = 0
Dangerous builds = 0
The dot product: 6.97022994859508e-08
Setting atom values ...
  1 settings made for x
  1 settings made for y
  1 settings made for z
Setting up cg style minimization ...
  Unit style    : metal
  Current step  : 1544
Per MPI rank memory allocation (min/avg/max) = 5.441 | 5.816 | 6.074 Mbytes
Step PotEng KinEng TotEng v_fx v_fy v_fz 
    1544   -1152449.4            0   -1152449.4  -0.02179141  0.041958255 0.0082066909 
    1757   -1152449.4            0   -1152449.4 2.7303308e-06 -3.3872681e-06 4.7364169e-06 
Loop time of 2.48843 on 104 procs for 213 steps with 288751 atoms

99.9% CPU use with 104 MPI tasks x 1 OpenMP threads

Minimization stats:
  Stopping criterion = energy tolerance
  Energy initial, next-to-last, final = 
     -1152449.37865514  -1152449.38000659  -1152449.38000659
  Force two-norm initial, final = 0.15667873 3.1778991e-05
  Force max component initial, final = 0.1133885 4.7364169e-06
  Final line search alpha, max atom move = 1.0000000 4.7364169e-06
  Iterations, force evaluations = 213 426

MPI task timing breakdown:
Section |  min time  |  avg time  |  max time  |%varavg| %total
---------------------------------------------------------------
Pair    | 0.64144    | 1.7954     | 2.3386     |  36.3 | 72.15
Neigh   | 0          | 0          | 0          |   0.0 |  0.00
Comm    | 0.039897   | 0.40743    | 1.2079     |  53.4 | 16.37
Output  | 0          | 0          | 0          |   0.0 |  0.00
Modify  | 2.6551e-05 | 0.0035243  | 0.0075016  |   2.8 |  0.14
Other   |            | 0.2821     |            |       | 11.34

Nlocal:        2776.45 ave        3950 max           0 min
Histogram: 8 4 4 0 4 12 8 2 26 36
Nghost:        3879.07 ave        5424 max         232 min
Histogram: 8 0 8 0 16 0 8 8 16 40
Neighs:        79213.4 ave      115118 max           0 min
Histogram: 8 4 4 0 10 6 8 8 24 32

Total # of neighbors = 8238192
Ave neighs/atom = 28.530436
Neighbor list builds = 0
Dangerous builds = 0
The dot product: -3.87342920684158e-08
Setting atom values ...
  1 settings made for x
  1 settings made for y
  1 settings made for z
Setting up cg style minimization ...
  Unit style    : metal
  Current step  : 1757
Per MPI rank memory allocation (min/avg/max) = 5.441 | 5.816 | 6.074 Mbytes
Step PotEng KinEng TotEng v_fx v_fy v_fz 
    1757   -1152449.4            0   -1152449.4 -0.017350507  0.038773758 0.0077290737 
    1874   -1152449.4            0   -1152449.4 4.6772181e-06 1.7356951e-05 7.1537461e-05 
Loop time of 1.36924 on 104 procs for 117 steps with 288751 atoms

99.9% CPU use with 104 MPI tasks x 1 OpenMP threads

Minimization stats:
  Stopping criterion = energy tolerance
  Energy initial, next-to-last, final = 
     -1152449.36431559  -1152449.36563729  -1152449.36563729
  Force two-norm initial, final = 0.15629548 0.00023852091
  Force max component initial, final = 0.11433228 7.1537461e-05
  Final line search alpha, max atom move = 1.0000000 7.1537461e-05
  Iterations, force evaluations = 117 234

MPI task timing breakdown:
Section |  min time  |  avg time  |  max time  |%varavg| %total
---------------------------------------------------------------
Pair    | 0.35117    | 0.98936    | 1.286      |  26.9 | 72.26
Neigh   | 0          | 0          | 0          |   0.0 |  0.00
Comm    | 0.022194   | 0.22533    | 0.67113    |  39.7 | 16.46
Output  | 0          | 0          | 0          |   0.0 |  0.00
Modify  | 1.4285e-05 | 0.0019441  | 0.0041817  |   2.1 |  0.14
Other   |            | 0.1526     |            |       | 11.15

Nlocal:        2776.45 ave        3950 max           0 min
Histogram: 8 4 4 0 4 12 8 2 26 36
Nghost:        3879.11 ave        5424 max         232 min
Histogram: 8 0 8 0 16 0 8 8 16 40
Neighs:        79213.4 ave      115118 max           0 min
Histogram: 8 4 4 0 10 6 8 8 24 32

Total # of neighbors = 8238193
Ave neighs/atom = 28.530440
Neighbor list builds = 0
Dangerous builds = 0
The dot product: 2.09705693584895e-07
Setting atom values ...
  1 settings made for x
  1 settings made for y
  1 settings made for z
Setting up cg style minimization ...
  Unit style    : metal
  Current step  : 1874
Per MPI rank memory allocation (min/avg/max) = 5.441 | 5.816 | 6.074 Mbytes
Step PotEng KinEng TotEng v_fx v_fy v_fz 
    1874   -1152449.3            0   -1152449.3 -0.013041558  0.033573107 0.0069806317 
    2000   -1152449.3            0   -1152449.3 -1.1101134e-05 6.078095e-06 -4.6226493e-05 
    2053   -1152449.3            0   -1152449.3 5.8635243e-06 -3.1528088e-06 2.4549967e-05 
Loop time of 2.09966 on 104 procs for 179 steps with 288751 atoms

99.9% CPU use with 104 MPI tasks x 1 OpenMP threads

Minimization stats:
  Stopping criterion = energy tolerance
  Energy initial, next-to-last, final = 
     -1152449.34862325  -1152449.34990168  -1152449.34990168
  Force two-norm initial, final = 0.15590989 0.00010955005
  Force max component initial, final = 0.11491903 2.5450593e-05
  Final line search alpha, max atom move = 1.0000000 2.5450593e-05
  Iterations, force evaluations = 179 358

MPI task timing breakdown:
Section |  min time  |  avg time  |  max time  |%varavg| %total
---------------------------------------------------------------
Pair    | 0.53846    | 1.5042     | 1.9642     |  33.2 | 71.64
Neigh   | 0          | 0          | 0          |   0.0 |  0.00
Comm    | 0.031748   | 0.34298    | 1.0168     |  48.4 | 16.34
Output  | 0.00025953 | 0.00026472 | 0.00039646 |   0.0 |  0.01
Modify  | 2.2138e-05 | 0.0029585  | 0.006289   |   2.6 |  0.14
Other   |            | 0.2492     |            |       | 11.87

Nlocal:        2776.45 ave        3950 max           0 min
Histogram: 8 4 4 0 4 12 8 2 26 36
Nghost:        3879.11 ave        5424 max         232 min
Histogram: 8 0 8 0 16 0 8 8 16 40
Neighs:        79213.4 ave      115117 max           0 min
Histogram: 8 4 4 0 10 6 8 8 24 32

Total # of neighbors = 8238192
Ave neighs/atom = 28.530436
Neighbor list builds = 0
Dangerous builds = 0
The dot product: -2.68688782069728e-08
Setting atom values ...
  1 settings made for x
  1 settings made for y
  1 settings made for z
Setting up cg style minimization ...
  Unit style    : metal
  Current step  : 2053
Per MPI rank memory allocation (min/avg/max) = 5.441 | 5.816 | 6.074 Mbytes
Step PotEng KinEng TotEng v_fx v_fy v_fz 
    2053   -1152449.3            0   -1152449.3 -0.0092145355  0.027256303  0.006485195 
    2188   -1152449.3            0   -1152449.3 1.2259076e-05 -1.0983539e-05 4.3656258e-05 
Loop time of 1.59215 on 104 procs for 135 steps with 288751 atoms

99.9% CPU use with 104 MPI tasks x 1 OpenMP threads

Minimization stats:
  Stopping criterion = energy tolerance
  Energy initial, next-to-last, final = 
      -1152449.3315238  -1152449.33275691  -1152449.33275691
  Force two-norm initial, final = 0.15581497 0.00016635644
  Force max component initial, final = 0.11532826 4.3656258e-05
  Final line search alpha, max atom move = 1.0000000 4.3656258e-05
  Iterations, force evaluations = 135 270

MPI task timing breakdown:
Section |  min time  |  avg time  |  max time  |%varavg| %total
---------------------------------------------------------------
Pair    | 0.40555    | 1.1471     | 1.4954     |  29.1 | 72.05
Neigh   | 0          | 0          | 0          |   0.0 |  0.00
Comm    | 0.028699   | 0.26055    | 0.79047    |  42.5 | 16.36
Output  | 0          | 0          | 0          |   0.0 |  0.00
Modify  | 1.6158e-05 | 0.00224    | 0.0047669  |   2.2 |  0.14
Other   |            | 0.1822     |            |       | 11.45

Nlocal:        2776.45 ave        3950 max           0 min
Histogram: 8 4 4 0 4 12 8 2 26 36
Nghost:        3879.12 ave        5424 max         232 min
Histogram: 8 0 8 0 16 0 8 8 16 40
Neighs:        79213.4 ave      115125 max           0 min
Histogram: 8 4 4 0 10 6 8 8 24 32

Total # of neighbors = 8238189
Ave neighs/atom = 28.530426
Neighbor list builds = 0
Dangerous builds = 0
The dot product: -8.64931294731457e-08
Setting atom values ...
  1 settings made for x
  1 settings made for y
  1 settings made for z
Setting up cg style minimization ...
  Unit style    : metal
  Current step  : 2188
Per MPI rank memory allocation (min/avg/max) = 5.441 | 5.816 | 6.074 Mbytes
Step PotEng KinEng TotEng v_fx v_fy v_fz 
    2188   -1152449.3            0   -1152449.3 -0.0060480329  0.020504902 0.0059058188 
    2365   -1152449.3            0   -1152449.3 7.4042649e-06 -1.0456834e-05 2.0361643e-05 
Loop time of 2.06043 on 104 procs for 177 steps with 288751 atoms

99.9% CPU use with 104 MPI tasks x 1 OpenMP threads

Minimization stats:
  Stopping criterion = energy tolerance
  Energy initial, next-to-last, final = 
      -1152449.3129801  -1152449.31417636  -1152449.31417636
  Force two-norm initial, final = 0.15615267 0.00012004321
  Force max component initial, final = 0.11578667 2.6154970e-05
  Final line search alpha, max atom move = 1.0000000 2.6154970e-05
  Iterations, force evaluations = 177 354

MPI task timing breakdown:
Section |  min time  |  avg time  |  max time  |%varavg| %total
---------------------------------------------------------------
Pair    | 0.53056    | 1.4866     | 1.9355     |  33.0 | 72.15
Neigh   | 0          | 0          | 0          |   0.0 |  0.00
Comm    | 0.031517   | 0.33482    | 0.99778    |  48.7 | 16.25
Output  | 0          | 0          | 0          |   0.0 |  0.00
Modify  | 2.128e-05  | 0.002924   | 0.0062411  |   2.5 |  0.14
Other   |            | 0.2361     |            |       | 11.46

Nlocal:        2776.45 ave        3950 max           0 min
Histogram: 8 4 4 0 4 12 8 2 26 36
Nghost:        3879.14 ave        5424 max         232 min
Histogram: 8 0 8 0 16 0 8 8 16 40
Neighs:        79213.3 ave      115125 max           0 min
Histogram: 8 4 4 0 10 6 8 8 24 32

Total # of neighbors = 8238188
Ave neighs/atom = 28.530422
Neighbor list builds = 0
Dangerous builds = 0
The dot product: -6.59124056744706e-08
Setting atom values ...
  1 settings made for x
  1 settings made for y
  1 settings made for z
Setting up cg style minimization ...
  Unit style    : metal
  Current step  : 2365
Per MPI rank memory allocation (min/avg/max) = 5.441 | 5.816 | 6.074 Mbytes
Step PotEng KinEng TotEng v_fx v_fy v_fz 
    2365   -1152449.3            0   -1152449.3 -0.003409246  0.013658632 0.0054649115 
    2500   -1152449.3            0   -1152449.3 1.076596e-06 1.5971129e-05 3.3778301e-05 
Loop time of 1.57582 on 104 procs for 135 steps with 288751 atoms

99.9% CPU use with 104 MPI tasks x 1 OpenMP threads

Minimization stats:
  Stopping criterion = energy tolerance
  Energy initial, next-to-last, final = 
     -1152449.29297372  -1152449.29414413  -1152449.29414413
  Force two-norm initial, final = 0.156982 0.00015779044
  Force max component initial, final = 0.11635915 3.3778301e-05
  Final line search alpha, max atom move = 1.0000000 3.3778301e-05
  Iterations, force evaluations = 135 270

MPI task timing breakdown:
Section |  min time  |  avg time  |  max time  |%varavg| %total
---------------------------------------------------------------
Pair    | 0.40914    | 1.1407     | 1.4743     |  28.7 | 72.39
Neigh   | 0          | 0          | 0          |   0.0 |  0.00
Comm    | 0.030142   | 0.25772    | 0.77772    |  42.8 | 16.35
Output  | 0          | 0          | 0          |   0.0 |  0.00
Modify  | 1.6429e-05 | 0.0022338  | 0.0047972  |   2.2 |  0.14
Other   |            | 0.1751     |            |       | 11.11

Nlocal:        2776.45 ave        3950 max           0 min
Histogram: 8 4 4 0 4 12 8 2 26 36
Nghost:        3879.14 ave        5424 max         232 min
Histogram: 8 0 8 0 16 0 8 8 16 40
Neighs:        79213.3 ave      115125 max           0 min
Histogram: 8 4 4 0 10 6 8 8 24 32

Total # of neighbors = 8238186
Ave neighs/atom = 28.530415
Neighbor list builds = 0
Dangerous builds = 0
The dot product: 7.28198379927034e-08
Setting atom values ...
  1 settings made for x
  1 settings made for y
  1 settings made for z
Setting up cg style minimization ...
  Unit style    : metal
  Current step  : 2500
Per MPI rank memory allocation (min/avg/max) = 5.441 | 5.816 | 6.074 Mbytes
Step PotEng KinEng TotEng v_fx v_fy v_fz 
    2500   -1152449.3            0   -1152449.3 -0.0011795497 0.0067210226 0.0047752689 
    2663   -1152449.3            0   -1152449.3 2.681976e-06 9.5144612e-06 3.0323817e-05 
Loop time of 1.90111 on 104 procs for 163 steps with 288751 atoms

99.9% CPU use with 104 MPI tasks x 1 OpenMP threads

Minimization stats:
  Stopping criterion = energy tolerance
  Energy initial, next-to-last, final = 
     -1152449.27149544  -1152449.27265339  -1152449.27265339
  Force two-norm initial, final = 0.15834501 0.00019673646
  Force max component initial, final = 0.11717988 3.0744807e-05
  Final line search alpha, max atom move = 1.0000000 3.0744807e-05
  Iterations, force evaluations = 163 326

MPI task timing breakdown:
Section |  min time  |  avg time  |  max time  |%varavg| %total
---------------------------------------------------------------
Pair    | 0.4893     | 1.3687     | 1.7782     |  31.7 | 72.00
Neigh   | 0          | 0          | 0          |   0.0 |  0.00
Comm    | 0.029369   | 0.30903    | 0.91965    |  46.5 | 16.26
Output  | 0          | 0          | 0          |   0.0 |  0.00
Modify  | 1.9408e-05 | 0.0026958  | 0.005717   |   2.4 |  0.14
Other   |            | 0.2207     |            |       | 11.61

Nlocal:        2776.45 ave        3950 max           0 min
Histogram: 8 4 4 0 4 12 8 2 26 36
Nghost:        3879.14 ave        5424 max         232 min
Histogram: 8 0 8 0 16 0 8 8 16 40
Neighs:        79213.3 ave      115125 max           0 min
Histogram: 8 4 4 0 10 6 8 8 24 32

Total # of neighbors = 8238185
Ave neighs/atom = 28.530412
Neighbor list builds = 0
Dangerous builds = 0
The dot product: 2.64030564278268e-08
Setting atom values ...
  1 settings made for x
  1 settings made for y
  1 settings made for z
Setting up cg style minimization ...
  Unit style    : metal
  Current step  : 2663
Per MPI rank memory allocation (min/avg/max) = 5.441 | 5.816 | 6.074 Mbytes
Step PotEng KinEng TotEng v_fx v_fy v_fz 
    2663   -1152449.2            0   -1152449.2 0.00088868466 -0.00049566195 0.0040212894 
    2801   -1152449.2            0   -1152449.2 -6.1221154e-06 -6.1397184e-06 -4.3066341e-05 
Loop time of 1.60763 on 104 procs for 138 steps with 288751 atoms

99.9% CPU use with 104 MPI tasks x 1 OpenMP threads

Minimization stats:
  Stopping criterion = energy tolerance
  Energy initial, next-to-last, final = 
     -1152449.24854547  -1152449.24970477  -1152449.24970477
  Force two-norm initial, final = 0.16030249 0.00015698196
  Force max component initial, final = 0.11824387 4.3066341e-05
  Final line search alpha, max atom move = 1.0000000 4.3066341e-05
  Iterations, force evaluations = 138 276

MPI task timing breakdown:
Section |  min time  |  avg time  |  max time  |%varavg| %total
---------------------------------------------------------------
Pair    | 0.41417    | 1.1677     | 1.5134     |  29.2 | 72.63
Neigh   | 0          | 0          | 0          |   0.0 |  0.00
Comm    | 0.024478   | 0.26278    | 0.7843     |  43.4 | 16.35
Output  | 0          | 0          | 0          |   0.0 |  0.00
Modify  | 1.7277e-05 | 0.0022946  | 0.0048971  |   2.3 |  0.14
Other   |            | 0.1749     |            |       | 10.88

Nlocal:        2776.45 ave        3950 max           0 min
Histogram: 8 4 4 0 4 12 8 2 26 36
Nghost:        3879.14 ave        5424 max         232 min
Histogram: 8 0 8 0 16 0 8 8 16 40
Neighs:        79213.3 ave      115125 max           0 min
Histogram: 8 4 4 0 10 6 8 8 24 32

Total # of neighbors = 8238184
Ave neighs/atom = 28.530409
Neighbor list builds = 0
Dangerous builds = 0
The dot product: -2.13751167590578e-10
Setting atom values ...
  1 settings made for x
  1 settings made for y
  1 settings made for z
Setting up cg style minimization ...
  Unit style    : metal
  Current step  : 2801
Per MPI rank memory allocation (min/avg/max) = 5.441 | 5.816 | 6.074 Mbytes
Step PotEng KinEng TotEng v_fx v_fy v_fz 
    2801   -1152449.2            0   -1152449.2 0.0029405845 -0.0082966808 0.0027846517 
    2992   -1152449.2            0   -1152449.2 1.5618402e-06 -2.314308e-06  4.80928e-06 
Loop time of 2.23588 on 104 procs for 191 steps with 288751 atoms

99.9% CPU use with 104 MPI tasks x 1 OpenMP threads

Minimization stats:
  Stopping criterion = energy tolerance
  Energy initial, next-to-last, final = 
     -1152449.22413211  -1152449.22531182  -1152449.22531182
  Force two-norm initial, final = 0.16298569 5.4131554e-05
  Force max component initial, final = 0.11965441 5.5098713e-06
  Final line search alpha, max atom move = 1.0000000 5.5098713e-06
  Iterations, force evaluations = 191 382

MPI task timing breakdown:
Section |  min time  |  avg time  |  max time  |%varavg| %total
---------------------------------------------------------------
Pair    | 0.57238    | 1.6062     | 2.0997     |  34.4 | 71.84
Neigh   | 0          | 0          | 0          |   0.0 |  0.00
Comm    | 0.033541   | 0.36714    | 1.0855     |  50.2 | 16.42
Output  | 0          | 0          | 0          |   0.0 |  0.00
Modify  | 2.2895e-05 | 0.0031554  | 0.0067221  |   2.6 |  0.14
Other   |            | 0.2594     |            |       | 11.60

Nlocal:        2776.45 ave        3950 max           0 min
Histogram: 8 4 4 0 4 12 8 2 26 36
Nghost:        3879.12 ave        5424 max         232 min
Histogram: 8 0 8 0 16 0 8 8 16 40
Neighs:        79213.3 ave      115125 max           0 min
Histogram: 8 4 4 0 10 6 8 8 24 32

Total # of neighbors = 8238185
Ave neighs/atom = 28.530412
Neighbor list builds = 0
Dangerous builds = 0
The dot product: 4.00376320902632e-10
Setting atom values ...
  1 settings made for x
  1 settings made for y
  1 settings made for z
Setting up cg style minimization ...
  Unit style    : metal
  Current step  : 2992
Per MPI rank memory allocation (min/avg/max) = 5.441 | 5.816 | 6.074 Mbytes
Step PotEng KinEng TotEng v_fx v_fy v_fz 
    2992   -1152449.2            0   -1152449.2 0.0053246226 -0.017221358 0.0013160056 
    3000   -1152449.2            0   -1152449.2 -0.00030355032 9.202317e-05 -0.0015107455 
    3143   -1152449.2            0   -1152449.2 -4.3192353e-06 9.5258097e-06 -8.2382349e-06 
Loop time of 1.75705 on 104 procs for 151 steps with 288751 atoms

99.9% CPU use with 104 MPI tasks x 1 OpenMP threads

Minimization stats:
  Stopping criterion = energy tolerance
  Energy initial, next-to-last, final = 
     -1152449.19828582  -1152449.19951398  -1152449.19951398
  Force two-norm initial, final = 0.16656118 0.00012732285
  Force max component initial, final = 0.12150336 2.4383976e-05
  Final line search alpha, max atom move = 1.0000000 2.4383976e-05
  Iterations, force evaluations = 151 302

MPI task timing breakdown:
Section |  min time  |  avg time  |  max time  |%varavg| %total
---------------------------------------------------------------
Pair    | 0.45368    | 1.2783     | 1.6513     |  30.6 | 72.75
Neigh   | 0          | 0          | 0          |   0.0 |  0.00
Comm    | 0.026052   | 0.28918    | 0.86733    |  45.3 | 16.46
Output  | 0.00026483 | 0.00027285 | 0.00033393 |   0.0 |  0.02
Modify  | 1.8129e-05 | 0.0025023  | 0.0053465  |   2.4 |  0.14
Other   |            | 0.1868     |            |       | 10.63

Nlocal:        2776.45 ave        3949 max           0 min
Histogram: 8 4 4 0 4 12 8 2 26 36
Nghost:        3879.12 ave        5424 max         232 min
Histogram: 8 0 8 0 16 0 8 8 16 40
Neighs:        79213.3 ave      115087 max           0 min
Histogram: 8 4 4 0 10 6 8 8 24 32

Total # of neighbors = 8238184
Ave neighs/atom = 28.530409
Neighbor list builds = 0
Dangerous builds = 0
The dot product: -2.84313291492944e-08
Setting atom values ...
  1 settings made for x
  1 settings made for y
  1 settings made for z
Setting up cg style minimization ...
  Unit style    : metal
  Current step  : 3143
Per MPI rank memory allocation (min/avg/max) = 5.441 | 5.816 | 6.074 Mbytes
Step PotEng KinEng TotEng v_fx v_fy v_fz 
    3143   -1152449.2            0   -1152449.2 0.0085277044 -0.028714568 -0.0013327277 
    3305   -1152449.2            0   -1152449.2 1.383489e-05 -1.9950535e-05 4.2782728e-05 
Loop time of 1.89496 on 104 procs for 162 steps with 288751 atoms

99.9% CPU use with 104 MPI tasks x 1 OpenMP threads

Minimization stats:
  Stopping criterion = energy tolerance
  Energy initial, next-to-last, final = 
     -1152449.17107809  -1152449.17241983  -1152449.17241983
  Force two-norm initial, final = 0.17149652 0.00013695991
  Force max component initial, final = 0.12395335 4.2782728e-05
  Final line search alpha, max atom move = 1.0000000 4.2782728e-05
  Iterations, force evaluations = 162 324

MPI task timing breakdown:
Section |  min time  |  avg time  |  max time  |%varavg| %total
---------------------------------------------------------------
Pair    | 0.48703    | 1.3663     | 1.7789     |  31.7 | 72.10
Neigh   | 0          | 0          | 0          |   0.0 |  0.00
Comm    | 0.029352   | 0.3106     | 0.92328    |  46.7 | 16.39
Output  | 0          | 0          | 0          |   0.0 |  0.00
Modify  | 1.9837e-05 | 0.0026836  | 0.0057434  |   2.4 |  0.14
Other   |            | 0.2153     |            |       | 11.36

Nlocal:        2776.45 ave        3949 max           0 min
Histogram: 8 4 4 0 4 12 8 2 26 36
Nghost:        3879.12 ave        5424 max         232 min
Histogram: 8 0 8 0 16 0 8 8 16 40
Neighs:        79213.3 ave      115084 max           0 min
Histogram: 8 4 4 0 10 6 8 8 24 32

Total # of neighbors = 8238185
Ave neighs/atom = 28.530412
Neighbor list builds = 0
Dangerous builds = 0
The dot product: 9.66575705225294e-08
Setting atom values ...
  1 settings made for x
  1 settings made for y
  1 settings made for z
Setting up cg style minimization ...
  Unit style    : metal
  Current step  : 3305
Per MPI rank memory allocation (min/avg/max) = 5.441 | 5.816 | 6.074 Mbytes
Step PotEng KinEng TotEng v_fx v_fy v_fz 
    3305   -1152449.1            0   -1152449.1  0.012024664 -0.042381345 -0.010389812 
    3428   -1152449.1            0   -1152449.1 5.7226219e-06 -1.9269686e-05 -3.2810975e-06 
Loop time of 1.42255 on 104 procs for 123 steps with 288751 atoms

99.9% CPU use with 104 MPI tasks x 1 OpenMP threads

Minimization stats:
  Stopping criterion = energy tolerance
  Energy initial, next-to-last, final = 
     -1152449.14259866  -1152449.14414003  -1152449.14414003
  Force two-norm initial, final = 0.17789601 0.00014187871
  Force max component initial, final = 0.12745589 3.3579948e-05
  Final line search alpha, max atom move = 1.0000000 3.3579948e-05
  Iterations, force evaluations = 123 246

MPI task timing breakdown:
Section |  min time  |  avg time  |  max time  |%varavg| %total
---------------------------------------------------------------
Pair    | 0.36771    | 1.035      | 1.3413     |  27.5 | 72.76
Neigh   | 0          | 0          | 0          |   0.0 |  0.00
Comm    | 0.021656   | 0.23086    | 0.69076    |  40.9 | 16.23
Output  | 0          | 0          | 0          |   0.0 |  0.00
Modify  | 1.5118e-05 | 0.0020411  | 0.0043209  |   2.1 |  0.14
Other   |            | 0.1546     |            |       | 10.87

Nlocal:        2776.45 ave        3948 max           0 min
Histogram: 8 4 4 0 4 12 8 2 26 36
Nghost:        3879.12 ave        5424 max         232 min
Histogram: 8 0 8 0 16 0 8 8 16 40
Neighs:        79213.3 ave      115061 max           0 min
Histogram: 8 4 4 0 10 6 8 8 24 32

Total # of neighbors = 8238183
Ave neighs/atom = 28.530405
Neighbor list builds = 0
Dangerous builds = 0
The dot product: 2.46250642441237e-07
Setting atom values ...
  1 settings made for x
  1 settings made for y
  1 settings made for z
Setting up cg style minimization ...
  Unit style    : metal
  Current step  : 3428
Per MPI rank memory allocation (min/avg/max) = 5.441 | 5.816 | 6.074 Mbytes
Step PotEng KinEng TotEng v_fx v_fy v_fz 
    3428   -1152449.1            0   -1152449.1  0.015153924 -0.053052881 -0.023011164 
    3550   -1152449.1            0   -1152449.1 -3.971011e-06 1.8786207e-06 -1.9512988e-05 
Loop time of 1.42501 on 104 procs for 122 steps with 288751 atoms

99.9% CPU use with 104 MPI tasks x 1 OpenMP threads

Minimization stats:
  Stopping criterion = energy tolerance
  Energy initial, next-to-last, final = 
     -1152449.11278662  -1152449.11457852  -1152449.11457852
  Force two-norm initial, final = 0.18585397 0.00014189747
  Force max component initial, final = 0.13181657 1.9512988e-05
  Final line search alpha, max atom move = 1.0000000 1.9512988e-05
  Iterations, force evaluations = 122 244

MPI task timing breakdown:
Section |  min time  |  avg time  |  max time  |%varavg| %total
---------------------------------------------------------------
Pair    | 0.36626    | 1.0257     | 1.3344     |  27.5 | 71.98
Neigh   | 0          | 0          | 0          |   0.0 |  0.00
Comm    | 0.021707   | 0.23215    | 0.69038    |  40.3 | 16.29
Output  | 0          | 0          | 0          |   0.0 |  0.00
Modify  | 1.5115e-05 | 0.0020213  | 0.0043088  |   2.1 |  0.14
Other   |            | 0.1651     |            |       | 11.59

Nlocal:        2776.45 ave        3948 max           0 min
Histogram: 8 4 4 0 4 12 8 2 26 36
Nghost:        3879.10 ave        5424 max         232 min
Histogram: 8 0 8 0 16 0 8 8 16 40
Neighs:        79213.3 ave      115049 max           0 min
Histogram: 8 4 4 0 10 6 8 8 24 32

Total # of neighbors = 8238181
Ave neighs/atom = 28.530398
Neighbor list builds = 0
Dangerous builds = 0
The dot product: 6.72194135280115e-08
Setting atom values ...
  1 settings made for x
  1 settings made for y
  1 settings made for z
Setting up cg style minimization ...
  Unit style    : metal
  Current step  : 3550
Per MPI rank memory allocation (min/avg/max) = 5.441 | 5.816 | 6.074 Mbytes
Step PotEng KinEng TotEng v_fx v_fy v_fz 
    3550   -1152449.1            0   -1152449.1  0.019117393 -0.060445402  -0.03117861 
    3720   -1152449.1            0   -1152449.1 -1.704595e-06 4.190062e-06 -2.603974e-07 
Loop time of 1.97269 on 104 procs for 170 steps with 288751 atoms

99.9% CPU use with 104 MPI tasks x 1 OpenMP threads

Minimization stats:
  Stopping criterion = energy tolerance
  Energy initial, next-to-last, final = 
      -1152449.0816434  -1152449.08364299  -1152449.08364299
  Force two-norm initial, final = 0.19337615 0.00011239197
  Force max component initial, final = 0.13678759 2.8025763e-05
  Final line search alpha, max atom move = 1.0000000 2.8025763e-05
  Iterations, force evaluations = 170 340

MPI task timing breakdown:
Section |  min time  |  avg time  |  max time  |%varavg| %total
---------------------------------------------------------------
Pair    | 0.5102     | 1.4338     | 1.8579     |  32.4 | 72.68
Neigh   | 0          | 0          | 0          |   0.0 |  0.00
Comm    | 0.030698   | 0.32297    | 0.97165    |  48.1 | 16.37
Output  | 0          | 0          | 0          |   0.0 |  0.00
Modify  | 2.0988e-05 | 0.0028117  | 0.0060193  |   2.5 |  0.14
Other   |            | 0.2131     |            |       | 10.80

Nlocal:        2776.45 ave        3945 max           0 min
Histogram: 8 4 4 0 4 12 8 2 26 36
Nghost:        3879.10 ave        5424 max         232 min
Histogram: 8 0 8 0 16 0 8 8 16 40
Neighs:        79213.3 ave      114972 max           0 min
Histogram: 8 4 4 0 10 6 8 8 24 32

Total # of neighbors = 8238183
Ave neighs/atom = 28.530405
Neighbor list builds = 0
Dangerous builds = 0
The dot product: -7.00862405257192e-08
Setting atom values ...
  1 settings made for x
  1 settings made for y
  1 settings made for z
Setting up cg style minimization ...
  Unit style    : metal
  Current step  : 3720
Per MPI rank memory allocation (min/avg/max) = 5.441 | 5.816 | 6.074 Mbytes
Step PotEng KinEng TotEng v_fx v_fy v_fz 
    3720     -1152449            0     -1152449  0.022728093 -0.064582146 -0.039561292 
    3892   -1152449.1            0   -1152449.1 -8.5990607e-07 -8.5298744e-06 -3.2546645e-05 
Loop time of 2.00228 on 104 procs for 172 steps with 288751 atoms

99.9% CPU use with 104 MPI tasks x 1 OpenMP threads

Minimization stats:
  Stopping criterion = energy tolerance
  Energy initial, next-to-last, final = 
     -1152449.04917741  -1152449.05133718  -1152449.05133718
  Force two-norm initial, final = 0.19990125 0.00020356395
  Force max component initial, final = 0.14193316 4.8966514e-05
  Final line search alpha, max atom move = 1.0000000 4.8966514e-05
  Iterations, force evaluations = 172 344

MPI task timing breakdown:
Section |  min time  |  avg time  |  max time  |%varavg| %total
---------------------------------------------------------------
Pair    | 0.51535    | 1.4452     | 1.8721     |  32.4 | 72.18
Neigh   | 0          | 0          | 0          |   0.0 |  0.00
Comm    | 0.031001   | 0.32531    | 0.9803     |  48.1 | 16.25
Output  | 0          | 0          | 0          |   0.0 |  0.00
Modify  | 2.0898e-05 | 0.0028389  | 0.006033   |   2.5 |  0.14
Other   |            | 0.229      |            |       | 11.44

Nlocal:        2776.45 ave        3941 max           0 min
Histogram: 8 4 4 0 4 12 8 2 26 36
Nghost:        3879.10 ave        5424 max         232 min
Histogram: 8 0 8 0 16 0 8 8 16 40
Neighs:        79213.3 ave      114838 max           0 min
Histogram: 8 4 4 0 10 6 8 8 22 34

Total # of neighbors = 8238179
Ave neighs/atom = 28.530391
Neighbor list builds = 0
Dangerous builds = 0
The dot product: 4.26878227371787e-07
Setting atom values ...
  1 settings made for x
  1 settings made for y
  1 settings made for z
Setting up cg style minimization ...
  Unit style    : metal
  Current step  : 3892
Per MPI rank memory allocation (min/avg/max) = 5.441 | 5.816 | 6.074 Mbytes
Step PotEng KinEng TotEng v_fx v_fy v_fz 
    3892     -1152449            0     -1152449  0.025117646 -0.065605274 -0.052821569 
    4000     -1152449            0     -1152449 1.0144716e-05 -1.2506486e-06 7.8462707e-05 
    4097     -1152449            0     -1152449 9.0552567e-06 -1.4143698e-05 1.8540775e-05 
Loop time of 2.38174 on 104 procs for 205 steps with 288751 atoms

99.9% CPU use with 104 MPI tasks x 1 OpenMP threads

Minimization stats:
  Stopping criterion = energy tolerance
  Energy initial, next-to-last, final = 
     -1152449.01547368  -1152449.01780673  -1152449.01780673
  Force two-norm initial, final = 0.20651755 7.4206902e-05
  Force max component initial, final = 0.14709769 1.8540775e-05
  Final line search alpha, max atom move = 1.0000000 1.8540775e-05
  Iterations, force evaluations = 205 410

MPI task timing breakdown:
Section |  min time  |  avg time  |  max time  |%varavg| %total
---------------------------------------------------------------
Pair    | 0.61525    | 1.7363     | 2.2401     |  35.7 | 72.90
Neigh   | 0          | 0          | 0          |   0.0 |  0.00
Comm    | 0.035374   | 0.39244    | 1.1817     |  53.2 | 16.48
Output  | 0.00017842 | 0.00018125 | 0.00031651 |   0.0 |  0.01
Modify  | 2.4661e-05 | 0.0033901  | 0.0072565  |   2.7 |  0.14
Other   |            | 0.2495     |            |       | 10.47

Nlocal:        2776.45 ave        3934 max           0 min
Histogram: 8 4 4 0 4 12 8 0 28 36
Nghost:        3879.10 ave        5424 max         232 min
Histogram: 8 0 8 0 16 0 8 8 16 40
Neighs:        79213.2 ave      114611 max           0 min
Histogram: 8 4 4 0 8 8 8 8 20 36

Total # of neighbors = 8238177
Ave neighs/atom = 28.530384
Neighbor list builds = 0
Dangerous builds = 0
The dot product: 3.07882871855857e-08
Setting atom values ...
  1 settings made for x
  1 settings made for y
  1 settings made for z
Setting up cg style minimization ...
  Unit style    : metal
  Current step  : 4097
Per MPI rank memory allocation (min/avg/max) = 5.441 | 5.816 | 6.074 Mbytes
Step PotEng KinEng TotEng v_fx v_fy v_fz 
    4097     -1152449            0     -1152449  0.026313881 -0.062669255 -0.067521982 
    4282     -1152449            0     -1152449 7.4199954e-06 -1.6096916e-05 -1.0335369e-05 
Loop time of 2.17348 on 104 procs for 185 steps with 288751 atoms

99.9% CPU use with 104 MPI tasks x 1 OpenMP threads

Minimization stats:
  Stopping criterion = energy tolerance
  Energy initial, next-to-last, final = 
     -1152448.98077848  -1152448.98319335  -1152448.98319335
  Force two-norm initial, final = 0.21266236 0.00014162162
  Force max component initial, final = 0.15225643 2.8725979e-05
  Final line search alpha, max atom move = 1.0000000 2.8725979e-05
  Iterations, force evaluations = 185 370

MPI task timing breakdown:
Section |  min time  |  avg time  |  max time  |%varavg| %total
---------------------------------------------------------------
Pair    | 0.55925    | 1.556      | 2.0164     |  33.7 | 71.59
Neigh   | 0          | 0          | 0          |   0.0 |  0.00
Comm    | 0.039659   | 0.35489    | 1.0472     |  49.2 | 16.33
Output  | 0          | 0          | 0          |   0.0 |  0.00
Modify  | 2.3968e-05 | 0.0030616  | 0.0065272  |   2.6 |  0.14
Other   |            | 0.2595     |            |       | 11.94

Nlocal:        2776.45 ave        3932 max           0 min
Histogram: 8 4 4 0 4 12 8 0 26 38
Nghost:        3879.15 ave        5424 max         232 min
Histogram: 8 0 8 0 16 0 8 8 16 40
Neighs:        79213.2 ave      114559 max           0 min
Histogram: 8 4 4 0 8 8 8 8 20 36

Total # of neighbors = 8238176
Ave neighs/atom = 28.530381
Neighbor list builds = 0
Dangerous builds = 0
The dot product: 4.11421761185338e-07
Setting atom values ...
  1 settings made for x
  1 settings made for y
  1 settings made for z
Setting up cg style minimization ...
  Unit style    : metal
  Current step  : 4282
Per MPI rank memory allocation (min/avg/max) = 5.441 | 5.816 | 6.074 Mbytes
Step PotEng KinEng TotEng v_fx v_fy v_fz 
    4282   -1152448.9            0   -1152448.9  0.026016415 -0.055338801 -0.077617633 
    4518     -1152449            0     -1152449 5.0972132e-07 -2.9589105e-06 -1.8229116e-05 
Loop time of 2.73664 on 104 procs for 236 steps with 288751 atoms

99.9% CPU use with 104 MPI tasks x 1 OpenMP threads

Minimization stats:
  Stopping criterion = energy tolerance
  Energy initial, next-to-last, final = 
      -1152448.9452533  -1152448.98068144  -1152448.98068144
  Force two-norm initial, final = 0.21753884 0.00022577793
  Force max component initial, final = 0.15712506 7.0041905e-05
  Final line search alpha, max atom move = 1.0000000 7.0041905e-05
  Iterations, force evaluations = 236 471

MPI task timing breakdown:
Section |  min time  |  avg time  |  max time  |%varavg| %total
---------------------------------------------------------------
Pair    | 0.70707    | 1.9899     | 2.5657     |  38.1 | 72.71
Neigh   | 1.0285e-05 | 0.0029344  | 0.0043926  |   2.2 |  0.11
Comm    | 0.041744   | 0.44906    | 1.3446     |  56.5 | 16.41
Output  | 0          | 0          | 0          |   0.0 |  0.00
Modify  | 2.8015e-05 | 0.0038954  | 0.0083443  |   2.9 |  0.14
Other   |            | 0.2909     |            |       | 10.63

Nlocal:        2776.45 ave        3931 max           0 min
Histogram: 8 4 4 0 4 12 8 0 26 38
Nghost:        3879.17 ave        5424 max         232 min
Histogram: 8 0 8 0 16 0 8 8 16 40
Neighs:        79213.3 ave      114531 max           0 min
Histogram: 8 4 4 0 8 8 8 8 20 36

Total # of neighbors = 8238185
Ave neighs/atom = 28.530412
Neighbor list builds = 1
Dangerous builds = 0
The dot product: 1.13778492155232e-06
Setting atom values ...
  1 settings made for x
  1 settings made for y
  1 settings made for z
Setting up cg style minimization ...
  Unit style    : metal
  Current step  : 4518
Per MPI rank memory allocation (min/avg/max) = 5.441 | 5.816 | 6.074 Mbytes
Step PotEng KinEng TotEng v_fx v_fy v_fz 
    4518     -1152449            0     -1152449  0.023410051 -0.024685169    -0.132632 
    4683     -1152449            0     -1152449 2.2122066e-05 -3.5253465e-05 -1.9732336e-05 
Loop time of 1.94759 on 104 procs for 165 steps with 288751 atoms

99.9% CPU use with 104 MPI tasks x 1 OpenMP threads

Minimization stats:
  Stopping criterion = energy tolerance
  Energy initial, next-to-last, final = 
     -1152448.95838589  -1152448.96190101  -1152448.96190101
  Force two-norm initial, final = 0.24787766 0.00020256585
  Force max component initial, final = 0.1663422 4.0951920e-05
  Final line search alpha, max atom move = 1.0000000 4.0951920e-05
  Iterations, force evaluations = 165 330

MPI task timing breakdown:
Section |  min time  |  avg time  |  max time  |%varavg| %total
---------------------------------------------------------------
Pair    | 0.4938     | 1.3924     | 1.813      |  32.1 | 71.49
Neigh   | 0          | 0          | 0          |   0.0 |  0.00
Comm    | 0.02986    | 0.3195     | 0.94309    |  46.5 | 16.41
Output  | 0          | 0          | 0          |   0.0 |  0.00
Modify  | 2.0818e-05 | 0.0027321  | 0.0058413  |   2.5 |  0.14
Other   |            | 0.2329     |            |       | 11.96

Nlocal:        2776.45 ave        3944 max           0 min
Histogram: 8 4 4 0 4 12 8 2 26 36
Nghost:        3879.14 ave        5424 max         232 min
Histogram: 8 0 8 0 16 0 8 8 16 40
Neighs:        79213.3 ave      114942 max           0 min
Histogram: 8 4 4 0 10 6 8 8 22 34

Total # of neighbors = 8238183
Ave neighs/atom = 28.530405
Neighbor list builds = 0
Dangerous builds = 0
The dot product: 7.31608489645837e-07
Setting atom values ...
  1 settings made for x
  1 settings made for y
  1 settings made for z
Setting up cg style minimization ...
  Unit style    : metal
  Current step  : 4683
Per MPI rank memory allocation (min/avg/max) = 5.441 | 5.816 | 6.074 Mbytes
Step PotEng KinEng TotEng v_fx v_fy v_fz 
    4683   -1152448.9            0   -1152448.9  0.013698291 -0.0093500243  -0.06587735 
    4854   -1152448.9            0   -1152448.9 4.5776771e-06 -6.3986937e-06 -5.9033002e-06 
Loop time of 2.00523 on 104 procs for 171 steps with 288751 atoms

99.9% CPU use with 104 MPI tasks x 1 OpenMP threads

Minimization stats:
  Stopping criterion = energy tolerance
  Energy initial, next-to-last, final = 
     -1152448.93946587  -1152448.94177634  -1152448.94177634
  Force two-norm initial, final = 0.22213239 6.8553519e-05
  Force max component initial, final = 0.169037 9.8797114e-06
  Final line search alpha, max atom move = 1.0000000 9.8797114e-06
  Iterations, force evaluations = 171 342

MPI task timing breakdown:
Section |  min time  |  avg time  |  max time  |%varavg| %total
---------------------------------------------------------------
Pair    | 0.51359    | 1.4436     | 1.8789     |  32.6 | 71.99
Neigh   | 0          | 0          | 0          |   0.0 |  0.00
Comm    | 0.030727   | 0.32772    | 0.97667    |  47.7 | 16.34
Output  | 0          | 0          | 0          |   0.0 |  0.00
Modify  | 2.0626e-05 | 0.0028311  | 0.0060379  |   2.5 |  0.14
Other   |            | 0.2311     |            |       | 11.53

Nlocal:        2776.45 ave        3944 max           0 min
Histogram: 8 4 4 0 4 12 8 2 26 36
Nghost:        3879.11 ave        5424 max         232 min
Histogram: 8 0 8 0 16 0 8 8 16 40
Neighs:        79213.3 ave      114911 max           0 min
Histogram: 8 4 4 0 10 6 8 8 22 34

Total # of neighbors = 8238186
Ave neighs/atom = 28.530415
Neighbor list builds = 0
Dangerous builds = 0
The dot product: 9.26411836072457e-08
Setting atom values ...
  1 settings made for x
  1 settings made for y
  1 settings made for z
Setting up cg style minimization ...
  Unit style    : metal
  Current step  : 4854
Per MPI rank memory allocation (min/avg/max) = 5.441 | 5.816 | 6.074 Mbytes
Step PotEng KinEng TotEng v_fx v_fy v_fz 
    4854   -1152448.9            0   -1152448.9 0.0084754221  -0.00397369 -0.040635654 
    4997   -1152448.9            0   -1152448.9 -3.6870336e-07 1.0365818e-05 -3.9713731e-05 
Loop time of 1.67396 on 104 procs for 143 steps with 288751 atoms

99.9% CPU use with 104 MPI tasks x 1 OpenMP threads

Minimization stats:
  Stopping criterion = energy tolerance
  Energy initial, next-to-last, final = 
     -1152448.91934017  -1152448.92162226  -1152448.92162226
  Force two-norm initial, final = 0.22068163 0.00016596626
  Force max component initial, final = 0.1713061 3.9713731e-05
  Final line search alpha, max atom move = 1.0000000 3.9713731e-05
  Iterations, force evaluations = 143 286

MPI task timing breakdown:
Section |  min time  |  avg time  |  max time  |%varavg| %total
---------------------------------------------------------------
Pair    | 0.43044    | 1.2038     | 1.5594     |  29.7 | 71.91
Neigh   | 0          | 0          | 0          |   0.0 |  0.00
Comm    | 0.027412   | 0.27091    | 0.8194     |  44.2 | 16.18
Output  | 0          | 0          | 0          |   0.0 |  0.00
Modify  | 1.7341e-05 | 0.0023764  | 0.0050267  |   2.3 |  0.14
Other   |            | 0.1969     |            |       | 11.76

Nlocal:        2776.45 ave        3944 max           0 min
Histogram: 8 4 4 0 4 12 8 2 26 36
Nghost:        3879.09 ave        5424 max         232 min
Histogram: 8 0 8 0 16 0 8 8 16 40
Neighs:        79213.3 ave      114911 max           0 min
Histogram: 8 4 4 0 10 6 8 8 22 34

Total # of neighbors = 8238183
Ave neighs/atom = 28.530405
Neighbor list builds = 0
Dangerous builds = 0
The dot product: 3.17020721554628e-07
Setting atom values ...
  1 settings made for x
  1 settings made for y
  1 settings made for z
Setting up cg style minimization ...
  Unit style    : metal
  Current step  : 4997
Per MPI rank memory allocation (min/avg/max) = 5.441 | 5.816 | 6.074 Mbytes
Step PotEng KinEng TotEng v_fx v_fy v_fz 
    4997   -1152448.9            0   -1152448.9 0.0063215417 -0.0022448979 -0.029906832 
    5000   -1152448.9            0   -1152448.9 0.0011635927 -0.00096965617 -0.0034559088 
    5104   -1152448.9            0   -1152448.9 -1.9405124e-05 1.8075091e-05 5.062196e-05 
Loop time of 1.24221 on 104 procs for 107 steps with 288751 atoms

99.9% CPU use with 104 MPI tasks x 1 OpenMP threads

Minimization stats:
  Stopping criterion = energy tolerance
  Energy initial, next-to-last, final = 
     -1152448.89935821  -1152448.90132829  -1152448.90132829
  Force two-norm initial, final = 0.22061542 0.00034209615
  Force max component initial, final = 0.17364711 9.5830743e-05
  Final line search alpha, max atom move = 1.0000000 9.5830743e-05
  Iterations, force evaluations = 107 214

MPI task timing breakdown:
Section |  min time  |  avg time  |  max time  |%varavg| %total
---------------------------------------------------------------
Pair    | 0.32031    | 0.90362    | 1.1693     |  25.7 | 72.74
Neigh   | 0          | 0          | 0          |   0.0 |  0.00
Comm    | 0.019547   | 0.20204    | 0.60719    |  38.3 | 16.26
Output  | 0.0001294  | 0.00013689 | 0.00019307 |   0.0 |  0.01
Modify  | 1.3437e-05 | 0.001774   | 0.0037809  |   2.0 |  0.14
Other   |            | 0.1346     |            |       | 10.84

Nlocal:        2776.45 ave        3944 max           0 min
Histogram: 8 4 4 0 4 12 8 2 26 36
Nghost:        3879.09 ave        5424 max         232 min
Histogram: 8 0 8 0 16 0 8 8 16 40
Neighs:        79213.3 ave      114911 max           0 min
Histogram: 8 4 4 0 10 6 8 8 22 34

Total # of neighbors = 8238182
Ave neighs/atom = 28.530402
Neighbor list builds = 0
Dangerous builds = 0
The dot product: -2.5289640831551e-07
Setting atom values ...
  1 settings made for x
  1 settings made for y
  1 settings made for z
Setting up cg style minimization ...
  Unit style    : metal
  Current step  : 5104
Per MPI rank memory allocation (min/avg/max) = 5.441 | 5.816 | 6.074 Mbytes
Step PotEng KinEng TotEng v_fx v_fy v_fz 
    5104   -1152448.9            0   -1152448.9 0.0046438647 -0.0019111075 -0.019894398 
    5364   -1152448.9            0   -1152448.9 4.576912e-07 -6.4454918e-07 -3.6586476e-07 
Loop time of 3.02734 on 104 procs for 260 steps with 288751 atoms

99.9% CPU use with 104 MPI tasks x 1 OpenMP threads

Minimization stats:
  Stopping criterion = energy tolerance
  Energy initial, next-to-last, final = 
     -1152448.87794522  -1152448.87975527  -1152448.87975527
  Force two-norm initial, final = 0.21929781 6.4235156e-06
  Force max component initial, final = 0.17587299 1.6099733e-06
  Final line search alpha, max atom move = 1.0000000 1.6099733e-06
  Iterations, force evaluations = 260 520

MPI task timing breakdown:
Section |  min time  |  avg time  |  max time  |%varavg| %total
---------------------------------------------------------------
Pair    | 0.77672    | 2.1769     | 2.8285     |  39.9 | 71.91
Neigh   | 0          | 0          | 0          |   0.0 |  0.00
Comm    | 0.047254   | 0.49064    | 1.4581     |  58.7 | 16.21
Output  | 0          | 0          | 0          |   0.0 |  0.00
Modify  | 3.2108e-05 | 0.0042981  | 0.009133   |   3.1 |  0.14
Other   |            | 0.3555     |            |       | 11.74

Nlocal:        2776.45 ave        3944 max           0 min
Histogram: 8 4 4 0 4 12 8 2 26 36
Nghost:        3879.09 ave        5424 max         232 min
Histogram: 8 0 8 0 16 0 8 8 16 40
Neighs:        79213.3 ave      114911 max           0 min
Histogram: 8 4 4 0 10 6 8 8 22 34

Total # of neighbors = 8238180
Ave neighs/atom = 28.530395
Neighbor list builds = 0
Dangerous builds = 0
The dot product: 6.30130011007645e-10
Setting atom values ...
  1 settings made for x
  1 settings made for y
  1 settings made for z
Setting up cg style minimization ...
  Unit style    : metal
  Current step  : 5364
Per MPI rank memory allocation (min/avg/max) = 5.441 | 5.816 | 6.074 Mbytes
Step PotEng KinEng TotEng v_fx v_fy v_fz 
    5364   -1152448.9            0   -1152448.9 0.0033292183 -0.0015490118 -0.013339112 
    5565   -1152448.9            0   -1152448.9 -6.5226223e-08 -5.5210895e-07 2.2512179e-06 
Loop time of 2.33937 on 104 procs for 201 steps with 288751 atoms

99.9% CPU use with 104 MPI tasks x 1 OpenMP threads

Minimization stats:
  Stopping criterion = energy tolerance
  Energy initial, next-to-last, final = 
     -1152448.85435682  -1152448.85628074  -1152448.85628074
  Force two-norm initial, final = 0.22334172 7.0796447e-05
  Force max component initial, final = 0.17822267 1.8652703e-05
  Final line search alpha, max atom move = 1.0000000 1.8652703e-05
  Iterations, force evaluations = 201 402

MPI task timing breakdown:
Section |  min time  |  avg time  |  max time  |%varavg| %total
---------------------------------------------------------------
Pair    | 0.6017     | 1.699      | 2.1998     |  35.3 | 72.63
Neigh   | 0          | 0          | 0          |   0.0 |  0.00
Comm    | 0.036795   | 0.38434    | 1.1578     |  52.4 | 16.43
Output  | 0          | 0          | 0          |   0.0 |  0.00
Modify  | 2.4067e-05 | 0.0033268  | 0.0071078  |   2.7 |  0.14
Other   |            | 0.2527     |            |       | 10.80

Nlocal:        2776.45 ave        3942 max           0 min
Histogram: 8 4 4 0 4 12 8 2 26 36
Nghost:        3879.09 ave        5424 max         232 min
Histogram: 8 0 8 0 16 0 8 8 16 40
Neighs:        79213.3 ave      114847 max           0 min
Histogram: 8 4 4 0 10 6 8 8 22 34

Total # of neighbors = 8238179
Ave neighs/atom = 28.530391
Neighbor list builds = 0
Dangerous builds = 0
The dot product: -1.92635866290814e-09
Setting atom values ...
  1 settings made for x
  1 settings made for y
  1 settings made for z
Setting up cg style minimization ...
  Unit style    : metal
  Current step  : 5565
Per MPI rank memory allocation (min/avg/max) = 5.441 | 5.816 | 6.074 Mbytes
Step PotEng KinEng TotEng v_fx v_fy v_fz 
    5565   -1152448.8            0   -1152448.8 0.0025535636 -0.0013127224 -0.0097488413 
    5696   -1152448.8            0   -1152448.8 -2.4305395e-06 2.8117658e-06 3.9892036e-06 
Loop time of 1.51792 on 104 procs for 131 steps with 288751 atoms

99.9% CPU use with 104 MPI tasks x 1 OpenMP threads

Minimization stats:
  Stopping criterion = energy tolerance
  Energy initial, next-to-last, final = 
     -1152448.82864564  -1152448.83068083  -1152448.83068083
  Force two-norm initial, final = 0.22797585 0.00024691486
  Force max component initial, final = 0.18045803 9.9356084e-05
  Final line search alpha, max atom move = 1.0000000 9.9356084e-05
  Iterations, force evaluations = 131 262

MPI task timing breakdown:
Section |  min time  |  avg time  |  max time  |%varavg| %total
---------------------------------------------------------------
Pair    | 0.39388    | 1.1014     | 1.4304     |  28.4 | 72.56
Neigh   | 0          | 0          | 0          |   0.0 |  0.00
Comm    | 0.022864   | 0.24844    | 0.74083    |  42.0 | 16.37
Output  | 0          | 0          | 0          |   0.0 |  0.00
Modify  | 1.6012e-05 | 0.0021697  | 0.0045993  |   2.2 |  0.14
Other   |            | 0.166      |            |       | 10.93

Nlocal:        2776.45 ave        3940 max           0 min
Histogram: 8 4 4 0 4 12 8 2 26 36
Nghost:        3879.09 ave        5424 max         232 min
Histogram: 8 0 8 0 16 0 8 8 16 40
Neighs:        79213.2 ave      114787 max           0 min
Histogram: 8 4 4 0 10 6 8 8 22 34

Total # of neighbors = 8238176
Ave neighs/atom = 28.530381
Neighbor list builds = 0
Dangerous builds = 0
The dot product: 2.95772206542855e-09
Setting atom values ...
  1 settings made for x
  1 settings made for y
  1 settings made for z
Setting up cg style minimization ...
  Unit style    : metal
  Current step  : 5696
Per MPI rank memory allocation (min/avg/max) = 5.441 | 5.816 | 6.074 Mbytes
Step PotEng KinEng TotEng v_fx v_fy v_fz 
    5696   -1152448.8            0   -1152448.8 0.0021371186 -0.0012746259 -0.0075789518 
    5879   -1152448.8            0   -1152448.8 -2.0984399e-06 3.8406413e-06 -1.3049259e-06 
Loop time of 2.11957 on 104 procs for 183 steps with 288751 atoms

99.9% CPU use with 104 MPI tasks x 1 OpenMP threads

Minimization stats:
  Stopping criterion = energy tolerance
  Energy initial, next-to-last, final = 
     -1152448.80069818  -1152448.80283267  -1152448.80283267
  Force two-norm initial, final = 0.23247837 0.0001799116
  Force max component initial, final = 0.18265169 6.4739621e-05
  Final line search alpha, max atom move = 1.0000000 6.4739621e-05
  Iterations, force evaluations = 183 366

MPI task timing breakdown:
Section |  min time  |  avg time  |  max time  |%varavg| %total
---------------------------------------------------------------
Pair    | 0.5459     | 1.5464     | 1.993      |  33.7 | 72.96
Neigh   | 0          | 0          | 0          |   0.0 |  0.00
Comm    | 0.032244   | 0.34855    | 1.0484     |  50.3 | 16.44
Output  | 0          | 0          | 0          |   0.0 |  0.00
Modify  | 2.1814e-05 | 0.003027   | 0.0064554  |   2.6 |  0.14
Other   |            | 0.2215     |            |       | 10.45

Nlocal:        2776.45 ave        3932 max           0 min
Histogram: 8 4 4 0 4 12 8 0 26 38
Nghost:        3879.09 ave        5424 max         232 min
Histogram: 8 0 8 0 16 0 8 8 16 40
Neighs:        79213.2 ave      114530 max           0 min
Histogram: 8 4 4 0 8 8 8 8 20 36

Total # of neighbors = 8238176
Ave neighs/atom = 28.530381
Neighbor list builds = 0
Dangerous builds = 0
The dot product: 3.57412704982792e-09
Setting atom values ...
  1 settings made for x
  1 settings made for y
  1 settings made for z
Setting up cg style minimization ...
  Unit style    : metal
  Current step  : 5879
Per MPI rank memory allocation (min/avg/max) = 5.441 | 5.816 | 6.074 Mbytes
Step PotEng KinEng TotEng v_fx v_fy v_fz 
    5879   -1152448.8            0   -1152448.8 0.0020736302 -0.0015106303 -0.0064662267 
    6000   -1152448.8            0   -1152448.8 2.9280823e-06 -1.0663628e-05 1.970436e-05 
    6059   -1152448.8            0   -1152448.8 2.1834133e-06 -3.6336186e-06 9.7253924e-08 
Loop time of 2.08014 on 104 procs for 180 steps with 288751 atoms

99.9% CPU use with 104 MPI tasks x 1 OpenMP threads

Minimization stats:
  Stopping criterion = energy tolerance
  Energy initial, next-to-last, final = 
     -1152448.77044108  -1152448.77265045  -1152448.77265045
  Force two-norm initial, final = 0.23646275 0.00018939249
  Force max component initial, final = 0.18498313 4.6972873e-05
  Final line search alpha, max atom move = 1.0000000 4.6972873e-05
  Iterations, force evaluations = 180 360

MPI task timing breakdown:
Section |  min time  |  avg time  |  max time  |%varavg| %total
---------------------------------------------------------------
Pair    | 0.53845    | 1.5116     | 1.9567     |  33.4 | 72.67
Neigh   | 0          | 0          | 0          |   0.0 |  0.00
Comm    | 0.032888   | 0.33989    | 1.0162     |  49.4 | 16.34
Output  | 0.00024004 | 0.00024385 | 0.00037788 |   0.0 |  0.01
Modify  | 2.1448e-05 | 0.002979   | 0.0063114  |   2.6 |  0.14
Other   |            | 0.2255     |            |       | 10.84

Nlocal:        2776.45 ave        3931 max           0 min
Histogram: 8 4 4 0 4 12 8 0 26 38
Nghost:        3879.09 ave        5424 max         232 min
Histogram: 8 0 8 0 16 0 8 8 16 40
Neighs:        79213.2 ave      114495 max           0 min
Histogram: 8 4 4 0 8 8 8 8 20 36

Total # of neighbors = 8238169
Ave neighs/atom = 28.530357
Neighbor list builds = 0
Dangerous builds = 0
The dot product: -3.74343691333157e-09
Setting atom values ...
  1 settings made for x
  1 settings made for y
  1 settings made for z
Setting up cg style minimization ...
  Unit style    : metal
  Current step  : 6059
Per MPI rank memory allocation (min/avg/max) = 5.441 | 5.816 | 6.074 Mbytes
Step PotEng KinEng TotEng v_fx v_fy v_fz 
    6059   -1152448.7            0   -1152448.7 0.0022009017 -0.0019273518 -0.0058186116 
    6212   -1152448.7            0   -1152448.7 -3.9978133e-06 4.7210695e-06 6.4335848e-06 
Loop time of 1.76401 on 104 procs for 153 steps with 288751 atoms

99.9% CPU use with 104 MPI tasks x 1 OpenMP threads

Minimization stats:
  Stopping criterion = energy tolerance
  Energy initial, next-to-last, final = 
     -1152448.73781708  -1152448.74007907  -1152448.74007907
  Force two-norm initial, final = 0.23974527 0.00022083925
  Force max component initial, final = 0.18742479 8.9848508e-05
  Final line search alpha, max atom move = 1.0000000 8.9848508e-05
  Iterations, force evaluations = 153 306

MPI task timing breakdown:
Section |  min time  |  avg time  |  max time  |%varavg| %total
---------------------------------------------------------------
Pair    | 0.45611    | 1.2888     | 1.6616     |  30.7 | 73.06
Neigh   | 0          | 0          | 0          |   0.0 |  0.00
Comm    | 0.027242   | 0.2871     | 0.8656     |  45.8 | 16.28
Output  | 0          | 0          | 0          |   0.0 |  0.00
Modify  | 1.8632e-05 | 0.0025316  | 0.0053725  |   2.4 |  0.14
Other   |            | 0.1856     |            |       | 10.52

Nlocal:        2776.45 ave        3930 max           0 min
Histogram: 8 4 4 0 4 12 8 0 26 38
Nghost:        3879.09 ave        5424 max         232 min
Histogram: 8 0 8 0 16 0 8 8 16 40
Neighs:        79213.1 ave      114454 max           0 min
Histogram: 8 4 4 0 8 8 8 8 20 36

Total # of neighbors = 8238166
Ave neighs/atom = 28.530346
Neighbor list builds = 0
Dangerous builds = 0
The dot product: 9.46895084702617e-09
Setting atom values ...
  1 settings made for x
  1 settings made for y
  1 settings made for z
Setting up cg style minimization ...
  Unit style    : metal
  Current step  : 6212
Per MPI rank memory allocation (min/avg/max) = 5.441 | 5.816 | 6.074 Mbytes
Step PotEng KinEng TotEng v_fx v_fy v_fz 
    6212   -1152448.7            0   -1152448.7 0.0024618926 -0.0024298009 -0.0056395495 
    6396   -1152448.7            0   -1152448.7 8.3385152e-06 -1.3522471e-05 -1.0871668e-06 
Loop time of 2.15151 on 104 procs for 184 steps with 288751 atoms

99.9% CPU use with 104 MPI tasks x 1 OpenMP threads

Minimization stats:
  Stopping criterion = energy tolerance
  Energy initial, next-to-last, final = 
     -1152448.70279864  -1152448.70509088  -1152448.70509088
  Force two-norm initial, final = 0.24212424 0.00019298041
  Force max component initial, final = 0.18964524 5.7174880e-05
  Final line search alpha, max atom move = 1.0000000 5.7174880e-05
  Iterations, force evaluations = 184 368

MPI task timing breakdown:
Section |  min time  |  avg time  |  max time  |%varavg| %total
---------------------------------------------------------------
Pair    | 0.54927    | 1.5484     | 2.0088     |  33.8 | 71.97
Neigh   | 0          | 0          | 0          |   0.0 |  0.00
Comm    | 0.031904   | 0.35149    | 1.0487     |  49.6 | 16.34
Output  | 0          | 0          | 0          |   0.0 |  0.00
Modify  | 2.1982e-05 | 0.0030528  | 0.0064753  |   2.6 |  0.14
Other   |            | 0.2486     |            |       | 11.55

Nlocal:        2776.45 ave        3930 max           0 min
Histogram: 8 4 4 0 4 12 8 0 26 38
Nghost:        3879.09 ave        5424 max         232 min
Histogram: 8 0 8 0 16 0 8 8 16 40
Neighs:        79213.1 ave      114455 max           0 min
Histogram: 8 4 4 0 8 8 8 8 20 36

Total # of neighbors = 8238166
Ave neighs/atom = 28.530346
Neighbor list builds = 0
Dangerous builds = 0
The dot product: -1.27491674896007e-08
Setting atom values ...
  1 settings made for x
  1 settings made for y
  1 settings made for z
Setting up cg style minimization ...
  Unit style    : metal
  Current step  : 6396
Per MPI rank memory allocation (min/avg/max) = 5.441 | 5.816 | 6.074 Mbytes
Step PotEng KinEng TotEng v_fx v_fy v_fz 
    6396   -1152448.7            0   -1152448.7 0.0028895505 -0.0030462311 -0.0060230064 
    6580   -1152448.7            0   -1152448.7 -8.3471533e-07 8.1684157e-08 4.4697755e-06 
Loop time of 2.13468 on 104 procs for 184 steps with 288751 atoms

99.9% CPU use with 104 MPI tasks x 1 OpenMP threads

Minimization stats:
  Stopping criterion = energy tolerance
  Energy initial, next-to-last, final = 
     -1152448.66537508  -1152448.66768126  -1152448.66768126
  Force two-norm initial, final = 0.24419655 0.00018071992
  Force max component initial, final = 0.19219405 5.8800698e-05
  Final line search alpha, max atom move = 1.0000000 5.8800698e-05
  Iterations, force evaluations = 184 368

MPI task timing breakdown:
Section |  min time  |  avg time  |  max time  |%varavg| %total
---------------------------------------------------------------
Pair    | 0.54996    | 1.5532     | 2.0106     |  33.7 | 72.76
Neigh   | 0          | 0          | 0          |   0.0 |  0.00
Comm    | 0.033626   | 0.35057    | 1.0532     |  50.1 | 16.42
Output  | 0          | 0          | 0          |   0.0 |  0.00
Modify  | 2.2226e-05 | 0.0030479  | 0.0065005  |   2.6 |  0.14
Other   |            | 0.2279     |            |       | 10.68

Nlocal:        2776.45 ave        3930 max           0 min
Histogram: 8 4 4 0 4 12 8 0 26 38
Nghost:        3879.05 ave        5424 max         232 min
Histogram: 8 0 8 0 16 0 8 8 16 40
Neighs:        79213.1 ave      114455 max           0 min
Histogram: 8 4 4 0 8 8 8 8 20 36

Total # of neighbors = 8238163
Ave neighs/atom = 28.530336
Neighbor list builds = 0
Dangerous builds = 0
The dot product: 3.87285655880784e-09
Setting atom values ...
  1 settings made for x
  1 settings made for y
  1 settings made for z
Setting up cg style minimization ...
  Unit style    : metal
  Current step  : 6580
Per MPI rank memory allocation (min/avg/max) = 5.441 | 5.816 | 6.074 Mbytes
Step PotEng KinEng TotEng v_fx v_fy v_fz 
    6580   -1152448.6            0   -1152448.6 0.0034096133 -0.0037531871 -0.0066374316 
    6746   -1152448.6            0   -1152448.6 1.3852171e-06 -1.5597045e-06 -2.5765639e-06 
Loop time of 1.92484 on 104 procs for 166 steps with 288751 atoms

99.9% CPU use with 104 MPI tasks x 1 OpenMP threads

Minimization stats:
[...]
Other   |            | 0.289      |            |       | 11.89

Nlocal:        2776.45 ave        3958 max           0 min
Histogram: 8 4 4 0 4 12 8 2 28 34
Nghost:        3879.12 ave        5424 max         232 min
Histogram: 8 0 8 0 16 0 8 8 16 40
Neighs:        79213.5 ave      115389 max           0 min
Histogram: 8 4 4 0 10 6 8 8 24 32

Total # of neighbors = 8238201
Ave neighs/atom = 28.530467
Neighbor list builds = 0
Dangerous builds = 0
The dot product: -4.09819482817832e-07
Setting atom values ...
  1 settings made for x
  1 settings made for y
  1 settings made for z
Setting up cg style minimization ...
  Unit style    : metal
  Current step  : 1668
Per MPI rank memory allocation (min/avg/max) = 5.441 | 5.816 | 6.074 Mbytes
Step PotEng KinEng TotEng v_fx v_fy v_fz 
    1668   -1152449.4            0   -1152449.4 -0.014706025  0.034409266 -0.065797553 
    1858   -1152449.4            0   -1152449.4 -5.5426909e-06 5.2413311e-06 -1.3351626e-05 
Loop time of 2.29597 on 104 procs for 190 steps with 288751 atoms

99.9% CPU use with 104 MPI tasks x 1 OpenMP threads

Minimization stats:
  Stopping criterion = energy tolerance
  Energy initial, next-to-last, final = 
     -1152449.39373494  -1152449.39599382  -1152449.39599382
  Force two-norm initial, final = 0.2001352 9.0369471e-05
  Force max component initial, final = 0.11870757 1.4264006e-05
  Final line search alpha, max atom move = 1.0000000 1.4264006e-05
  Iterations, force evaluations = 190 380

MPI task timing breakdown:
Section |  min time  |  avg time  |  max time  |%varavg| %total
---------------------------------------------------------------
Pair    | 0.57672    | 1.6066     | 2.1285     |  34.3 | 69.97
Neigh   | 0          | 0          | 0          |   0.0 |  0.00
Comm    | 0.035251   | 0.37511    | 1.0918     |  49.0 | 16.34
Output  | 0          | 0          | 0          |   0.0 |  0.00
Modify  | 2.3754e-05 | 0.00315    | 0.0067404  |   2.6 |  0.14
Other   |            | 0.3111     |            |       | 13.55

Nlocal:        2776.45 ave        3957 max           0 min
Histogram: 8 4 4 0 4 12 8 2 28 34
Nghost:        3879.16 ave        5424 max         232 min
Histogram: 8 0 8 0 16 0 8 8 16 40
Neighs:        79213.5 ave      115370 max           0 min
Histogram: 8 4 4 0 10 6 8 8 24 32

Total # of neighbors = 8238206
Ave neighs/atom = 28.530485
Neighbor list builds = 0
Dangerous builds = 0
The dot product: 1.84667968906217e-07
Setting atom values ...
  1 settings made for x
  1 settings made for y
  1 settings made for z
Setting up cg style minimization ...
  Unit style    : metal
  Current step  : 1858
Per MPI rank memory allocation (min/avg/max) = 5.441 | 5.816 | 6.074 Mbytes
Step PotEng KinEng TotEng v_fx v_fy v_fz 
    1858   -1152449.4            0   -1152449.4 0.0010837288  0.028118414 -0.050254202 
    2000   -1152449.4            0   -1152449.4 -1.620658e-05 2.1677449e-05 -5.8202408e-05 
Loop time of 1.66813 on 104 procs for 142 steps with 288751 atoms

99.9% CPU use with 104 MPI tasks x 1 OpenMP threads

Minimization stats:
  Stopping criterion = energy tolerance
  Energy initial, next-to-last, final = 
     -1152449.38220453  -1152449.38426569  -1152449.38426569
  Force two-norm initial, final = 0.19242462 0.00020438142
  Force max component initial, final = 0.11506742 5.8202408e-05
  Final line search alpha, max atom move = 1.0000000 5.8202408e-05
  Iterations, force evaluations = 142 284

MPI task timing breakdown:
Section |  min time  |  avg time  |  max time  |%varavg| %total
---------------------------------------------------------------
Pair    | 0.43189    | 1.1953     | 1.5734     |  29.4 | 71.65
Neigh   | 0          | 0          | 0          |   0.0 |  0.00
Comm    | 0.024357   | 0.27178    | 0.81386    |  43.0 | 16.29
Output  | 0          | 0          | 0          |   0.0 |  0.00
Modify  | 1.7663e-05 | 0.0023501  | 0.0050008  |   2.3 |  0.14
Other   |            | 0.1987     |            |       | 11.91

Nlocal:        2776.45 ave        3957 max           0 min
Histogram: 8 4 4 0 4 12 8 2 28 34
Nghost:        3879.16 ave        5424 max         232 min
Histogram: 8 0 8 0 16 0 8 8 16 40
Neighs:        79213.5 ave      115369 max           0 min
Histogram: 8 4 4 0 10 6 8 8 24 32

Total # of neighbors = 8238204
Ave neighs/atom = 28.530478
Neighbor list builds = 0
Dangerous builds = 0
The dot product: 4.87984887411453e-07
Setting atom values ...
  1 settings made for x
  1 settings made for y
  1 settings made for z
Setting up cg style minimization ...
  Unit style    : metal
  Current step  : 2000
Per MPI rank memory allocation (min/avg/max) = 5.441 | 5.816 | 6.074 Mbytes
Step PotEng KinEng TotEng v_fx v_fy v_fz 
    2000   -1152449.4            0   -1152449.4   0.01065759  0.022053371 -0.033421567 
    2108   -1152449.4            0   -1152449.4 -1.7325393e-05 2.259025e-05 -6.8143817e-05 
Loop time of 1.27457 on 104 procs for 108 steps with 288751 atoms

99.9% CPU use with 104 MPI tasks x 1 OpenMP threads

Minimization stats:
  Stopping criterion = energy tolerance
  Energy initial, next-to-last, final = 
     -1152449.36945059  -1152449.37133172  -1152449.37133172
  Force two-norm initial, final = 0.18668898 0.00026712004
  Force max component initial, final = 0.11249581 6.8143817e-05
  Final line search alpha, max atom move = 1.0000000 6.8143817e-05
  Iterations, force evaluations = 108 216

MPI task timing breakdown:
Section |  min time  |  avg time  |  max time  |%varavg| %total
---------------------------------------------------------------
Pair    | 0.32735    | 0.91385    | 1.1964     |  25.7 | 71.70
Neigh   | 0          | 0          | 0          |   0.0 |  0.00
Comm    | 0.01888    | 0.21069    | 0.6288     |  37.4 | 16.53
Output  | 0          | 0          | 0          |   0.0 |  0.00
Modify  | 1.3303e-05 | 0.0017885  | 0.0038611  |   2.0 |  0.14
Other   |            | 0.1482     |            |       | 11.63

Nlocal:        2776.45 ave        3957 max           0 min
Histogram: 8 4 4 0 4 12 8 2 28 34
Nghost:        3879.14 ave        5424 max         232 min
Histogram: 8 0 8 0 16 0 8 8 16 40
Neighs:        79213.5 ave      115367 max           0 min
Histogram: 8 4 4 0 10 6 8 8 24 32

Total # of neighbors = 8238203
Ave neighs/atom = 28.530474
Neighbor list builds = 0
Dangerous builds = 0
The dot product: 2.66067102126449e-07
Setting atom values ...
  1 settings made for x
  1 settings made for y
  1 settings made for z
Setting up cg style minimization ...
  Unit style    : metal
  Current step  : 2108
Per MPI rank memory allocation (min/avg/max) = 5.441 | 5.816 | 6.074 Mbytes
Step PotEng KinEng TotEng v_fx v_fy v_fz 
    2108   -1152449.4            0   -1152449.4  0.014396698  0.016821515 -0.020596637 
    2356   -1152449.4            0   -1152449.4 -3.2428827e-07 2.3756043e-07 -9.2323706e-07 
Loop time of 2.9089 on 104 procs for 248 steps with 288751 atoms

99.9% CPU use with 104 MPI tasks x 1 OpenMP threads

Minimization stats:
  Stopping criterion = energy tolerance
  Energy initial, next-to-last, final = 
     -1152449.35536597  -1152449.35713115  -1152449.35713115
  Force two-norm initial, final = 0.18320539 1.0459180e-05
  Force max component initial, final = 0.11141101 1.2983508e-06
  Final line search alpha, max atom move = 1.0000000 1.2983508e-06
  Iterations, force evaluations = 248 496

MPI task timing breakdown:
Section |  min time  |  avg time  |  max time  |%varavg| %total
---------------------------------------------------------------
Pair    | 0.7489     | 2.0808     | 2.7431     |  38.9 | 71.53
Neigh   | 0          | 0          | 0          |   0.0 |  0.00
Comm    | 0.041063   | 0.47556    | 1.4248     |  56.6 | 16.35
Output  | 0          | 0          | 0          |   0.0 |  0.00
Modify  | 3.1144e-05 | 0.0040929  | 0.0087543  |   3.0 |  0.14
Other   |            | 0.3484     |            |       | 11.98

Nlocal:        2776.45 ave        3957 max           0 min
Histogram: 8 4 4 0 4 12 8 4 26 34
Nghost:        3879.07 ave        5424 max         232 min
Histogram: 8 0 8 0 16 0 8 8 16 40
Neighs:        79213.5 ave      115367 max           0 min
Histogram: 8 4 4 0 10 6 8 8 24 32

Total # of neighbors = 8238207
Ave neighs/atom = 28.530488
Neighbor list builds = 0
Dangerous builds = 0
The dot product: 2.46835145887845e-10
Setting atom values ...
  1 settings made for x
  1 settings made for y
  1 settings made for z
Setting up cg style minimization ...
  Unit style    : metal
  Current step  : 2356
Per MPI rank memory allocation (min/avg/max) = 5.441 | 5.816 | 6.074 Mbytes
Step PotEng KinEng TotEng v_fx v_fy v_fz 
    2356   -1152449.3            0   -1152449.3  0.015141783  0.012732181 -0.011872968 
    2502   -1152449.3            0   -1152449.3 -1.019186e-05 6.3404232e-06 -2.6504621e-05 
Loop time of 1.71711 on 104 procs for 146 steps with 288751 atoms

99.9% CPU use with 104 MPI tasks x 1 OpenMP threads

Minimization stats:
  Stopping criterion = energy tolerance
  Energy initial, next-to-last, final = 
     -1152449.33992024  -1152449.34162566  -1152449.34162566
  Force two-norm initial, final = 0.18090499 0.00021550804
  Force max component initial, final = 0.11136935 3.4015054e-05
  Final line search alpha, max atom move = 1.0000000 3.4015054e-05
  Iterations, force evaluations = 146 292

MPI task timing breakdown:
Section |  min time  |  avg time  |  max time  |%varavg| %total
---------------------------------------------------------------
Pair    | 0.44358    | 1.2294     | 1.6137     |  29.9 | 71.60
Neigh   | 0          | 0          | 0          |   0.0 |  0.00
Comm    | 0.024605   | 0.28251    | 0.84371    |  43.6 | 16.45
Output  | 0          | 0          | 0          |   0.0 |  0.00
Modify  | 1.7851e-05 | 0.0024161  | 0.0051447  |   2.3 |  0.14
Other   |            | 0.2028     |            |       | 11.81

Nlocal:        2776.45 ave        3957 max           0 min
Histogram: 8 4 4 0 4 12 8 4 26 34
Nghost:        3879.07 ave        5424 max         232 min
Histogram: 8 0 8 0 16 0 8 8 16 40
Neighs:        79213.5 ave      115366 max           0 min
Histogram: 8 4 4 0 10 6 8 8 24 32

Total # of neighbors = 8238207
Ave neighs/atom = 28.530488
Neighbor list builds = 0
Dangerous builds = 0
The dot product: -4.86257103328993e-08
Setting atom values ...
  1 settings made for x
  1 settings made for y
  1 settings made for z
Setting up cg style minimization ...
  Unit style    : metal
  Current step  : 2502
Per MPI rank memory allocation (min/avg/max) = 5.441 | 5.816 | 6.074 Mbytes
Step PotEng KinEng TotEng v_fx v_fy v_fz 
    2502   -1152449.3            0   -1152449.3  0.014332351 0.0094801642 -0.006044383 
    2714   -1152449.3            0   -1152449.3 -4.5876011e-06 6.7058809e-06 -2.0602997e-05 
Loop time of 2.49961 on 104 procs for 212 steps with 288751 atoms

99.9% CPU use with 104 MPI tasks x 1 OpenMP threads

Minimization stats:
  Stopping criterion = energy tolerance
  Energy initial, next-to-last, final = 
     -1152449.32312128   -1152449.3248007   -1152449.3248007
  Force two-norm initial, final = 0.17914248 6.0692560e-05
  Force max component initial, final = 0.11209803 2.0602997e-05
  Final line search alpha, max atom move = 1.0000000 2.0602997e-05
  Iterations, force evaluations = 212 424

MPI task timing breakdown:
Section |  min time  |  avg time  |  max time  |%varavg| %total
---------------------------------------------------------------
Pair    | 0.63998    | 1.78       | 2.3554     |  36.1 | 71.21
Neigh   | 0          | 0          | 0          |   0.0 |  0.00
Comm    | 0.036068   | 0.40871    | 1.2165     |  52.2 | 16.35
Output  | 0          | 0          | 0          |   0.0 |  0.00
Modify  | 2.6579e-05 | 0.0035029  | 0.0074344  |   2.8 |  0.14
Other   |            | 0.3074     |            |       | 12.30

Nlocal:        2776.45 ave        3958 max           0 min
Histogram: 8 4 4 0 4 12 8 4 26 34
Nghost:        3879.14 ave        5424 max         232 min
Histogram: 8 0 8 0 16 0 8 8 16 40
Neighs:        79213.6 ave      115395 max           0 min
Histogram: 8 4 4 0 10 6 8 8 24 32

Total # of neighbors = 8238212
Ave neighs/atom = 28.530506
Neighbor list builds = 0
Dangerous builds = 0
The dot product: -5.57390560659101e-08
Setting atom values ...
  1 settings made for x
  1 settings made for y
  1 settings made for z
Setting up cg style minimization ...
  Unit style    : metal
  Current step  : 2714
Per MPI rank memory allocation (min/avg/max) = 5.441 | 5.816 | 6.074 Mbytes
Step PotEng KinEng TotEng v_fx v_fy v_fz 
    2714   -1152449.3            0   -1152449.3  0.012815572 0.0065747091 -0.0014601568 
    2933   -1152449.3            0   -1152449.3 8.3237393e-07 -4.5798467e-07 1.9147966e-06 
Loop time of 2.59364 on 104 procs for 219 steps with 288751 atoms

99.9% CPU use with 104 MPI tasks x 1 OpenMP threads

Minimization stats:
  Stopping criterion = energy tolerance
  Energy initial, next-to-last, final = 
     -1152449.30499326  -1152449.30667466  -1152449.30667466
  Force two-norm initial, final = 0.17759374 4.5722775e-05
  Force max component initial, final = 0.11323409 6.6976730e-06
  Final line search alpha, max atom move = 1.0000000 6.6976730e-06
  Iterations, force evaluations = 219 438

MPI task timing breakdown:
Section |  min time  |  avg time  |  max time  |%varavg| %total
---------------------------------------------------------------
Pair    | 0.6646     | 1.8444     | 2.4456     |  36.7 | 71.11
Neigh   | 0          | 0          | 0          |   0.0 |  0.00
Comm    | 0.036406   | 0.42664    | 1.2692     |  53.3 | 16.45
Output  | 0          | 0          | 0          |   0.0 |  0.00
Modify  | 2.7124e-05 | 0.0036263  | 0.0077373  |   2.8 |  0.14
Other   |            | 0.319      |            |       | 12.30

Nlocal:        2776.45 ave        3958 max           0 min
Histogram: 8 4 4 0 4 12 8 4 26 34
Nghost:        3879.18 ave        5424 max         232 min
Histogram: 8 0 8 0 16 0 8 8 16 40
Neighs:        79213.6 ave      115399 max           0 min
Histogram: 8 4 4 0 10 6 8 8 24 32

Total # of neighbors = 8238211
Ave neighs/atom = 28.530502
Neighbor list builds = 0
Dangerous builds = 0
The dot product: 9.19266794106891e-09
Setting atom values ...
  1 settings made for x
  1 settings made for y
  1 settings made for z
Setting up cg style minimization ...
  Unit style    : metal
  Current step  : 2933
Per MPI rank memory allocation (min/avg/max) = 5.441 | 5.816 | 6.074 Mbytes
Step PotEng KinEng TotEng v_fx v_fy v_fz 
    2933   -1152449.3            0   -1152449.3  0.010926555 0.0036995553 0.0027157189 
    3000   -1152449.3            0   -1152449.3 3.4025058e-05 -6.3279335e-05 0.0001728041 
    3194   -1152449.3            0   -1152449.3 2.2509078e-07 -5.4684146e-07 1.4248979e-06 
Loop time of 3.07843 on 104 procs for 261 steps with 288751 atoms

99.9% CPU use with 104 MPI tasks x 1 OpenMP threads

Minimization stats:
  Stopping criterion = energy tolerance
  Energy initial, next-to-last, final = 
      -1152449.2855963  -1152449.28732163  -1152449.28732163
  Force two-norm initial, final = 0.17621082 8.0939268e-06
  Force max component initial, final = 0.11470086 1.9279782e-06
  Final line search alpha, max atom move = 1.0000000 1.9279782e-06
  Iterations, force evaluations = 261 522

MPI task timing breakdown:
Section |  min time  |  avg time  |  max time  |%varavg| %total
---------------------------------------------------------------
Pair    | 0.78936    | 2.1967     | 2.8914     |  40.0 | 71.36
Neigh   | 0          | 0          | 0          |   0.0 |  0.00
Comm    | 0.045756   | 0.50402    | 1.5011     |  57.8 | 16.37
Output  | 0.00027501 | 0.00028014 | 0.00043814 |   0.0 |  0.01
Modify  | 3.313e-05  | 0.0043146  | 0.0091905  |   3.1 |  0.14
Other   |            | 0.3731     |            |       | 12.12

Nlocal:        2776.45 ave        3959 max           0 min
Histogram: 8 4 4 0 4 12 8 4 26 34
Nghost:        3879.16 ave        5424 max         232 min
Histogram: 8 0 8 0 16 0 8 8 16 40
Neighs:        79213.6 ave      115423 max           0 min
Histogram: 8 4 4 0 10 6 8 8 24 32

Total # of neighbors = 8238216
Ave neighs/atom = 28.530519
Neighbor list builds = 0
Dangerous builds = 0
The dot product: 8.30970151146038e-09
Setting atom values ...
  1 settings made for x
  1 settings made for y
  1 settings made for z
Setting up cg style minimization ...
  Unit style    : metal
  Current step  : 3194
Per MPI rank memory allocation (min/avg/max) = 5.441 | 5.816 | 6.074 Mbytes
Step PotEng KinEng TotEng v_fx v_fy v_fz 
    3194   -1152449.3            0   -1152449.3 0.0087536653 0.00039988814 0.0073372368 
    3381   -1152449.3            0   -1152449.3 1.7895305e-06 8.9237072e-07 -2.0139969e-07 
Loop time of 2.21932 on 104 procs for 187 steps with 288751 atoms

99.9% CPU use with 104 MPI tasks x 1 OpenMP threads

Minimization stats:
  Stopping criterion = energy tolerance
  Energy initial, next-to-last, final = 
     -1152449.26504633  -1152449.26677149  -1152449.26677149
  Force two-norm initial, final = 0.1749885 0.0001328452
  Force max component initial, final = 0.11641525 1.8326306e-05
  Final line search alpha, max atom move = 1.0000000 1.8326306e-05
  Iterations, force evaluations = 187 374

MPI task timing breakdown:
Section |  min time  |  avg time  |  max time  |%varavg| %total
---------------------------------------------------------------
Pair    | 0.56565    | 1.5777     | 2.0896     |  34.0 | 71.09
Neigh   | 0          | 0          | 0          |   0.0 |  0.00
Comm    | 0.032323   | 0.36359    | 1.0723     |  49.3 | 16.38
Output  | 0          | 0          | 0          |   0.0 |  0.00
Modify  | 2.2996e-05 | 0.0031035  | 0.0067169  |   2.6 |  0.14
Other   |            | 0.2749     |            |       | 12.39

Nlocal:        2776.45 ave        3959 max           0 min
Histogram: 8 4 4 0 4 12 8 4 26 34
Nghost:        3879.16 ave        5424 max         232 min
Histogram: 8 0 8 0 16 0 8 8 16 40
Neighs:        79213.6 ave      115418 max           0 min
Histogram: 8 4 4 0 10 6 8 8 24 32

Total # of neighbors = 8238218
Ave neighs/atom = 28.530526
Neighbor list builds = 0
Dangerous builds = 0
The dot product: -5.72006166843119e-11
Setting up cg style minimization ...
  Unit style    : metal
  Current step  : 3381
Per MPI rank memory allocation (min/avg/max) = 5.441 | 5.816 | 6.074 Mbytes
Step PotEng KinEng TotEng v_fx v_fy v_fz 
    3381   -1152449.3            0   -1152449.3   0.39551202  -0.88870555  -0.42342678 
    3664   -1152449.5            0   -1152449.5 -4.4074681e-06 7.978987e-06 -3.1876974e-06 
Loop time of 3.33206 on 104 procs for 283 steps with 288751 atoms

99.9% CPU use with 104 MPI tasks x 1 OpenMP threads

Minimization stats:
  Stopping criterion = energy tolerance
  Energy initial, next-to-last, final = 
     -1152449.26677149  -1152449.45035271  -1152449.45035271
  Force two-norm initial, final = 1.0609041 4.9736139e-05
  Force max component initial, final = 0.88870555 1.0545873e-05
  Final line search alpha, max atom move = 1.0000000 1.0545873e-05
  Iterations, force evaluations = 283 566

MPI task timing breakdown:
Section |  min time  |  avg time  |  max time  |%varavg| %total
---------------------------------------------------------------
Pair    | 0.8661     | 2.3796     | 3.1296     |  41.3 | 71.42
Neigh   | 3.0288e-05 | 0.0087954  | 0.012738   |   3.9 |  0.26
Comm    | 0.049893   | 0.54523    | 1.6141     |  60.2 | 16.36
Output  | 0          | 0          | 0          |   0.0 |  0.00
Modify  | 3.2616e-05 | 0.0030489  | 0.0077735  |   3.4 |  0.09
Other   |            | 0.3954     |            |       | 11.87

Nlocal:        2776.45 ave        3959 max           0 min
Histogram: 8 4 4 0 4 12 8 4 26 34
Nghost:        3879.07 ave        5424 max         232 min
Histogram: 8 0 8 0 16 0 8 8 16 40
Neighs:        79213.4 ave      115413 max           0 min
Histogram: 8 4 4 0 10 6 8 8 24 32

Total # of neighbors = 8238193
Ave neighs/atom = 28.530440
Neighbor list builds = 3
Dangerous builds = 0
