LAMMPS (29 Oct 2020)
OMP_NUM_THREADS environment is not set. Defaulting to 1 thread. (../comm.cpp:94)
  using 1 OpenMP thread(s) per MPI task
OMP_NUM_THREADS environment is not set. Defaulting to 1 thread. (../comm.cpp:94)
  using 1 OpenMP thread(s) per MPI task
Reading data file ...
  orthogonal box = (-122.39241 -121.13707 -37.090501) to (122.39241 121.13707 37.090501)
  13 by 4 by 2 MPI processor grid
  reading atoms ...
  288751 atoms
  read_data CPU = 0.385 seconds
199981 atoms in group inner
88770 atoms in group outer
1 atoms in group carbon
Neighbor list info ...
  update every 1 steps, delay 0 steps, check yes
  max neighbors/atom: 2000, page size: 100000
  master list distance cutoff = 5.6
  ghost atom cutoff = 5.6
  binsize = 2.8, bins = 88 87 27
  1 neighbor lists, perpetual/occasional/extra = 1 0 0
  (1) pair eam/alloy, perpetual
      attributes: half, newton on
      pair build: half/bin/atomonly/newton
      stencil: half/bin/3d/newton
      bin: standard
Setting up cg style minimization ...
  Unit style    : metal
  Current step  : 0
Per MPI rank memory allocation (min/avg/max) = 5.441 | 5.816 | 6.074 Mbytes
Step v_fx v_fy v_fz PotEng KinEng TotEng 
       0   -1.7538907  -0.79760024    2.6205664   -1152447.8            0   -1152447.8 
     156 2.7654224e-05 -3.5600069e-07 -3.0429716e-05   -1152449.5            0   -1152449.5 
Loop time of 1.85132 on 104 procs for 156 steps with 288751 atoms

99.8% CPU use with 104 MPI tasks x 1 OpenMP threads

Minimization stats:
  Stopping criterion = energy tolerance
  Energy initial, next-to-last, final = 
     -1152447.77346368  -1152449.45035285  -1152449.45035285
  Force two-norm initial, final = 10.247446 0.00015192026
  Force max component initial, final = 6.2516024 3.5901674e-05
  Final line search alpha, max atom move = 1.0000000 3.5901674e-05
  Iterations, force evaluations = 156 311

MPI task timing breakdown:
Section |  min time  |  avg time  |  max time  |%varavg| %total
---------------------------------------------------------------
Pair    | 0.49661    | 1.3185     | 1.7019     |  30.2 | 71.22
Neigh   | 3.1719e-05 | 0.008848   | 0.012761   |   3.9 |  0.48
Comm    | 0.036108   | 0.30131    | 0.92395    |  45.2 | 16.28
Output  | 0          | 0          | 0          |   0.0 |  0.00
Modify  | 1.7364e-05 | 0.0016837  | 0.004328   |   2.6 |  0.09
Other   |            | 0.221      |            |       | 11.94

Nlocal:        2776.45 ave        3961 max           0 min
Histogram: 8 4 4 0 6 10 8 2 28 34
Nghost:        3879.03 ave        5425 max         232 min
Histogram: 8 0 8 0 16 0 8 8 16 40
Neighs:        79213.5 ave      115456 max           0 min
Histogram: 8 4 4 0 10 6 8 8 24 32

Total # of neighbors = 8238206
Ave neighs/atom = 28.530485
Neighbor list builds = 3
Dangerous builds = 0
Setting atom values ...
  1 settings made for x
  1 settings made for y
  1 settings made for z
Setting up cg style minimization ...
  Unit style    : metal
  Current step  : 156
Per MPI rank memory allocation (min/avg/max) = 5.441 | 5.816 | 6.074 Mbytes
Step PotEng KinEng TotEng v_fx v_fy v_fz 
     156   -1152449.4            0   -1152449.4 0.00028412199 -0.0097071128 -0.0087510919 
     300   -1152449.5            0   -1152449.5 1.4097833e-05 -7.431872e-06 -2.8542822e-05 
Loop time of 1.68838 on 104 procs for 144 steps with 288751 atoms

99.9% CPU use with 104 MPI tasks x 1 OpenMP threads

Minimization stats:
  Stopping criterion = energy tolerance
  Energy initial, next-to-last, final = 
     -1152449.44959022  -1152449.45008246  -1152449.45008246
  Force two-norm initial, final = 0.10180542 0.00021845154
  Force max component initial, final = 0.051615216 2.8688484e-05
  Final line search alpha, max atom move = 1.0000000 2.8688484e-05
  Iterations, force evaluations = 144 288

MPI task timing breakdown:
Section |  min time  |  avg time  |  max time  |%varavg| %total
---------------------------------------------------------------
Pair    | 0.44826    | 1.221      | 1.5811     |  29.5 | 72.32
Neigh   | 0          | 0          | 0          |   0.0 |  0.00
Comm    | 0.027461   | 0.27891    | 0.86635    |  43.9 | 16.52
Output  | 0          | 0          | 0          |   0.0 |  0.00
Modify  | 1.8962e-05 | 0.0023815  | 0.0050653  |   2.3 |  0.14
Other   |            | 0.186      |            |       | 11.02

Nlocal:        2776.45 ave        3960 max           0 min
Histogram: 8 4 4 0 4 12 8 2 28 34
Nghost:        3879.03 ave        5424 max         232 min
Histogram: 8 0 8 0 16 0 8 8 16 40
Neighs:        79213.4 ave      115434 max           0 min
Histogram: 8 4 4 0 10 6 8 8 24 32

Total # of neighbors = 8238197
Ave neighs/atom = 28.530454
Neighbor list builds = 0
Dangerous builds = 0
Setting atom values ...
  1 settings made for x
  1 settings made for y
  1 settings made for z
Setting up cg style minimization ...
  Unit style    : metal
  Current step  : 300
Per MPI rank memory allocation (min/avg/max) = 5.441 | 5.816 | 6.074 Mbytes
Step PotEng KinEng TotEng v_fx v_fy v_fz 
     300   -1152449.4            0   -1152449.4 -0.00051779573  -0.02043223 -0.018585244 
     478   -1152449.4            0   -1152449.4 1.6781484e-05 -2.1206303e-06 -3.2779489e-05 
Loop time of 2.05649 on 104 procs for 178 steps with 288751 atoms

99.9% CPU use with 104 MPI tasks x 1 OpenMP threads

Minimization stats:
  Stopping criterion = energy tolerance
  Energy initial, next-to-last, final = 
     -1152449.44665132  -1152449.44825769  -1152449.44825769
  Force two-norm initial, final = 0.18517527 0.00018014452
  Force max component initial, final = 0.093840753 3.6512687e-05
  Final line search alpha, max atom move = 1.0000000 3.6512687e-05
  Iterations, force evaluations = 178 356

MPI task timing breakdown:
Section |  min time  |  avg time  |  max time  |%varavg| %total
---------------------------------------------------------------
Pair    | 0.54826    | 1.4943     | 1.9359     |  32.7 | 72.66
Neigh   | 0          | 0          | 0          |   0.0 |  0.00
Comm    | 0.036985   | 0.33766    | 1.047      |  48.9 | 16.42
Output  | 0          | 0          | 0          |   0.0 |  0.00
Modify  | 2.0941e-05 | 0.0029388  | 0.0062758  |   2.6 |  0.14
Other   |            | 0.2216     |            |       | 10.77

Nlocal:        2776.45 ave        3960 max           0 min
Histogram: 8 4 4 0 4 12 8 2 28 34
Nghost:        3879.03 ave        5424 max         232 min
Histogram: 8 0 8 0 16 0 8 8 16 40
Neighs:        79213.4 ave      115434 max           0 min
Histogram: 8 4 4 0 10 6 8 8 24 32

Total # of neighbors = 8238198
Ave neighs/atom = 28.530457
Neighbor list builds = 0
Dangerous builds = 0
The dot product: 6.85737611727803e-08
Setting atom values ...
  1 settings made for x
  1 settings made for y
  1 settings made for z
Setting up cg style minimization ...
  Unit style    : metal
  Current step  : 478
Per MPI rank memory allocation (min/avg/max) = 5.441 | 5.816 | 6.074 Mbytes
Step PotEng KinEng TotEng v_fx v_fy v_fz 
     478   -1152449.4            0   -1152449.4 -0.0022963174 -0.026592077  -0.02483886 
     607   -1152449.4            0   -1152449.4 -2.7457036e-05 7.783724e-06 6.7948417e-05 
Loop time of 1.52001 on 104 procs for 129 steps with 288751 atoms

99.9% CPU use with 104 MPI tasks x 1 OpenMP threads

Minimization stats:
  Stopping criterion = energy tolerance
  Energy initial, next-to-last, final = 
     -1152449.44328209   -1152449.4448951   -1152449.4448951
  Force two-norm initial, final = 0.1866576 0.00026078236
  Force max component initial, final = 0.092393416 6.7948417e-05
  Final line search alpha, max atom move = 1.0000000 6.7948417e-05
  Iterations, force evaluations = 129 258

MPI task timing breakdown:
Section |  min time  |  avg time  |  max time  |%varavg| %total
---------------------------------------------------------------
Pair    | 0.39489    | 1.0928     | 1.4299     |  28.1 | 71.90
Neigh   | 0          | 0          | 0          |   0.0 |  0.00
Comm    | 0.023405   | 0.24787    | 0.75379    |  41.4 | 16.31
Output  | 0          | 0          | 0          |   0.0 |  0.00
Modify  | 1.6437e-05 | 0.0021327  | 0.0045639  |   2.2 |  0.14
Other   |            | 0.1772     |            |       | 11.66

Nlocal:        2776.45 ave        3961 max           0 min
Histogram: 8 4 4 0 6 10 8 2 28 34
Nghost:        3879.03 ave        5424 max         232 min
Histogram: 8 0 8 0 16 0 8 8 16 40
Neighs:        79213.4 ave      115458 max           0 min
Histogram: 8 4 4 0 10 6 8 8 24 32

Total # of neighbors = 8238196
Ave neighs/atom = 28.530450
Neighbor list builds = 0
Dangerous builds = 0
The dot product: -2.4786950677268e-07
Setting atom values ...
  1 settings made for x
  1 settings made for y
  1 settings made for z
Setting up cg style minimization ...
  Unit style    : metal
  Current step  : 607
Per MPI rank memory allocation (min/avg/max) = 5.441 | 5.816 | 6.074 Mbytes
Step PotEng KinEng TotEng v_fx v_fy v_fz 
     607   -1152449.4            0   -1152449.4 -0.0069463783 -0.031556493 -0.026766535 
     738   -1152449.4            0   -1152449.4 -1.5085151e-05 -1.3723186e-06 3.765272e-05 
Loop time of 1.5066 on 104 procs for 131 steps with 288751 atoms

99.9% CPU use with 104 MPI tasks x 1 OpenMP threads

Minimization stats:
  Stopping criterion = energy tolerance
  Energy initial, next-to-last, final = 
     -1152449.43858377  -1152449.44020627  -1152449.44020627
  Force two-norm initial, final = 0.18710935 0.00018279537
  Force max component initial, final = 0.088900924 4.4350304e-05
  Final line search alpha, max atom move = 1.0000000 4.4350304e-05
  Iterations, force evaluations = 131 262

MPI task timing breakdown:
Section |  min time  |  avg time  |  max time  |%varavg| %total
---------------------------------------------------------------
Pair    | 0.40502    | 1.0994     | 1.4239     |  28.0 | 72.97
Neigh   | 0          | 0          | 0          |   0.0 |  0.00
Comm    | 0.022923   | 0.24683    | 0.76443    |  42.1 | 16.38
Output  | 0          | 0          | 0          |   0.0 |  0.00
Modify  | 1.5955e-05 | 0.0021688  | 0.0046832  |   2.2 |  0.14
Other   |            | 0.1582     |            |       | 10.50

Nlocal:        2776.45 ave        3960 max           0 min
Histogram: 8 4 4 0 4 12 8 2 28 34
Nghost:        3879.03 ave        5427 max         232 min
Histogram: 8 0 8 0 16 0 8 8 16 40
Neighs:        79213.4 ave      115435 max           0 min
Histogram: 8 4 4 0 10 6 8 8 24 32

Total # of neighbors = 8238195
Ave neighs/atom = 28.530447
Neighbor list builds = 0
Dangerous builds = 0
The dot product: -1.47713048029883e-07
Setting atom values ...
  1 settings made for x
  1 settings made for y
  1 settings made for z
Setting up cg style minimization ...
  Unit style    : metal
  Current step  : 738
Per MPI rank memory allocation (min/avg/max) = 5.441 | 5.816 | 6.074 Mbytes
Step PotEng KinEng TotEng v_fx v_fy v_fz 
     738   -1152449.4            0   -1152449.4 -0.011313804  -0.03239452  -0.02360652 
     903   -1152449.4            0   -1152449.4 -1.3118884e-05 -2.442868e-06 3.7309801e-05 
Loop time of 1.92635 on 104 procs for 165 steps with 288751 atoms

99.9% CPU use with 104 MPI tasks x 1 OpenMP threads

Minimization stats:
  Stopping criterion = energy tolerance
  Energy initial, next-to-last, final = 
     -1152449.43258126  -1152449.43418204  -1152449.43418204
  Force two-norm initial, final = 0.1857082 0.0001040671
  Force max component initial, final = 0.084827662 3.7309801e-05
  Final line search alpha, max atom move = 1.0000000 3.7309801e-05
  Iterations, force evaluations = 165 330

MPI task timing breakdown:
Section |  min time  |  avg time  |  max time  |%varavg| %total
---------------------------------------------------------------
Pair    | 0.52197    | 1.3986     | 1.8073     |  31.2 | 72.61
Neigh   | 0          | 0          | 0          |   0.0 |  0.00
Comm    | 0.028406   | 0.3141     | 0.96235    |  47.0 | 16.31
Output  | 0          | 0          | 0          |   0.0 |  0.00
Modify  | 1.927e-05  | 0.002725   | 0.0057995  |   2.5 |  0.14
Other   |            | 0.2109     |            |       | 10.95

Nlocal:        2776.45 ave        3959 max           0 min
Histogram: 8 4 4 0 4 12 8 2 28 34
Nghost:        3879.03 ave        5428 max         232 min
Histogram: 8 0 8 0 16 0 8 8 16 40
Neighs:        79213.4 ave      115394 max           0 min
Histogram: 8 4 4 0 10 6 8 8 24 32

Total # of neighbors = 8238197
Ave neighs/atom = 28.530454
Neighbor list builds = 0
Dangerous builds = 0
The dot product: -1.27405539052611e-07
Setting atom values ...
  1 settings made for x
  1 settings made for y
  1 settings made for z
Setting up cg style minimization ...
  Unit style    : metal
  Current step  : 903
Per MPI rank memory allocation (min/avg/max) = 5.441 | 5.816 | 6.074 Mbytes
Step PotEng KinEng TotEng v_fx v_fy v_fz 
     903   -1152449.4            0   -1152449.4 -0.013842025 -0.030679496 -0.018237959 
    1000   -1152449.4            0   -1152449.4 -1.8500361e-05 8.7872021e-06 8.9411657e-05 
    1026   -1152449.4            0   -1152449.4 -1.2549134e-05 -4.6881342e-06 3.631442e-05 
Loop time of 1.42373 on 104 procs for 123 steps with 288751 atoms

99.9% CPU use with 104 MPI tasks x 1 OpenMP threads

Minimization stats:
  Stopping criterion = energy tolerance
  Energy initial, next-to-last, final = 
     -1152449.42520904  -1152449.42677715  -1152449.42677715
  Force two-norm initial, final = 0.18366613 0.0001285907
  Force max component initial, final = 0.081400433 3.6314420e-05
  Final line search alpha, max atom move = 1.0000000 3.6314420e-05
  Iterations, force evaluations = 123 246

MPI task timing breakdown:
Section |  min time  |  avg time  |  max time  |%varavg| %total
---------------------------------------------------------------
Pair    | 0.37334    | 1.0311     | 1.3404     |  27.4 | 72.42
Neigh   | 0          | 0          | 0          |   0.0 |  0.00
Comm    | 0.021796   | 0.23153    | 0.70268    |  40.6 | 16.26
Output  | 0.00015074 | 0.00017132 | 0.00027349 |   0.0 |  0.01
Modify  | 1.5037e-05 | 0.002033   | 0.0043757  |   2.1 |  0.14
Other   |            | 0.1589     |            |       | 11.16

Nlocal:        2776.45 ave        3959 max           0 min
Histogram: 8 4 4 0 4 12 8 2 28 34
Nghost:        3879.03 ave        5428 max         232 min
Histogram: 8 0 8 0 16 0 8 8 16 40
Neighs:        79213.4 ave      115394 max           0 min
Histogram: 8 4 4 0 10 6 8 8 24 32

Total # of neighbors = 8238198
Ave neighs/atom = 28.530457
Neighbor list builds = 0
Dangerous builds = 0
The dot product: -9.12506395481284e-08
Setting atom values ...
  1 settings made for x
  1 settings made for y
  1 settings made for z
Setting up cg style minimization ...
  Unit style    : metal
  Current step  : 1026
Per MPI rank memory allocation (min/avg/max) = 5.441 | 5.816 | 6.074 Mbytes
Step PotEng KinEng TotEng v_fx v_fy v_fz 
    1026   -1152449.4            0   -1152449.4 -0.014510569 -0.027662051 -0.012676142 
    1162   -1152449.4            0   -1152449.4 3.3498518e-06 -1.2625236e-06 -1.753221e-05 
Loop time of 1.58021 on 104 procs for 136 steps with 288751 atoms

99.9% CPU use with 104 MPI tasks x 1 OpenMP threads

Minimization stats:
  Stopping criterion = energy tolerance
  Energy initial, next-to-last, final = 
     -1152449.41641626  -1152449.41795331  -1152449.41795331
  Force two-norm initial, final = 0.181592 7.5386515e-05
  Force max component initial, final = 0.078991171 1.7532210e-05
  Final line search alpha, max atom move = 1.0000000 1.7532210e-05
  Iterations, force evaluations = 136 272

MPI task timing breakdown:
Section |  min time  |  avg time  |  max time  |%varavg| %total
---------------------------------------------------------------
Pair    | 0.41925    | 1.1493     | 1.4899     |  28.6 | 72.73
Neigh   | 0          | 0          | 0          |   0.0 |  0.00
Comm    | 0.026292   | 0.25943    | 0.79428    |  42.7 | 16.42
Output  | 0          | 0          | 0          |   0.0 |  0.00
Modify  | 1.7651e-05 | 0.0022515  | 0.0048123  |   2.2 |  0.14
Other   |            | 0.1692     |            |       | 10.71

Nlocal:        2776.45 ave        3958 max           0 min
Histogram: 8 4 4 0 4 12 8 2 28 34
Nghost:        3879.03 ave        5429 max         232 min
Histogram: 8 0 8 0 16 0 8 8 16 40
Neighs:        79213.5 ave      115358 max           0 min
Histogram: 8 4 4 0 10 6 8 8 24 32

Total # of neighbors = 8238199
Ave neighs/atom = 28.530461
Neighbor list builds = 0
Dangerous builds = 0
The dot product: 3.47966500444354e-08
Setting atom values ...
  1 settings made for x
  1 settings made for y
  1 settings made for z
Setting up cg style minimization ...
  Unit style    : metal
  Current step  : 1162
Per MPI rank memory allocation (min/avg/max) = 5.441 | 5.816 | 6.074 Mbytes
Step PotEng KinEng TotEng v_fx v_fy v_fz 
    1162   -1152449.4            0   -1152449.4 -0.013558109 -0.023600961 -0.0076354887 
    1294   -1152449.4            0   -1152449.4 8.7420749e-06 3.3250604e-06 -3.0079627e-05 
Loop time of 1.52246 on 104 procs for 132 steps with 288751 atoms

99.9% CPU use with 104 MPI tasks x 1 OpenMP threads

Minimization stats:
  Stopping criterion = energy tolerance
  Energy initial, next-to-last, final = 
     -1152449.40616961  -1152449.40768915  -1152449.40768915
  Force two-norm initial, final = 0.17971599 0.00011231496
  Force max component initial, final = 0.077742349 3.0079627e-05
  Final line search alpha, max atom move = 1.0000000 3.0079627e-05
  Iterations, force evaluations = 132 264

MPI task timing breakdown:
Section |  min time  |  avg time  |  max time  |%varavg| %total
---------------------------------------------------------------
Pair    | 0.40646    | 1.1081     | 1.4335     |  28.2 | 72.79
Neigh   | 0          | 0          | 0          |   0.0 |  0.00
Comm    | 0.028923   | 0.25024    | 0.77887    |  42.3 | 16.44
Output  | 0          | 0          | 0          |   0.0 |  0.00
Modify  | 1.5697e-05 | 0.0021892  | 0.0046803  |   2.2 |  0.14
Other   |            | 0.1619     |            |       | 10.63

Nlocal:        2776.45 ave        3958 max           0 min
Histogram: 8 4 4 0 4 12 8 2 28 34
Nghost:        3879.03 ave        5429 max         232 min
Histogram: 8 0 8 0 16 0 8 8 16 40
Neighs:        79213.5 ave      115358 max           0 min
Histogram: 8 4 4 0 10 6 8 8 24 32

Total # of neighbors = 8238202
Ave neighs/atom = 28.530471
Neighbor list builds = 0
Dangerous builds = 0
The dot product: 2.99307154115625e-08
Setting atom values ...
  1 settings made for x
  1 settings made for y
  1 settings made for z
Setting up cg style minimization ...
  Unit style    : metal
  Current step  : 1294
Per MPI rank memory allocation (min/avg/max) = 5.441 | 5.816 | 6.074 Mbytes
Step PotEng KinEng TotEng v_fx v_fy v_fz 
    1294   -1152449.4            0   -1152449.4 -0.010701046 -0.017576234 -0.0029472079 
    1453   -1152449.4            0   -1152449.4 -1.4244968e-07 -1.2671806e-06 -3.1870811e-06 
Loop time of 1.85887 on 104 procs for 159 steps with 288751 atoms

99.9% CPU use with 104 MPI tasks x 1 OpenMP threads

Minimization stats:
  Stopping criterion = energy tolerance
  Energy initial, next-to-last, final = 
     -1152449.39446956  -1152449.39600052  -1152449.39600052
  Force two-norm initial, final = 0.1780479 0.00014199895
  Force max component initial, final = 0.077633019 1.4593522e-05
  Final line search alpha, max atom move = 1.0000000 1.4593522e-05
  Iterations, force evaluations = 159 318

MPI task timing breakdown:
Section |  min time  |  avg time  |  max time  |%varavg| %total
---------------------------------------------------------------
Pair    | 0.49514    | 1.3474     | 1.7534     |  30.9 | 72.49
Neigh   | 0          | 0          | 0          |   0.0 |  0.00
Comm    | 0.028392   | 0.30313    | 0.92456    |  46.4 | 16.31
Output  | 0          | 0          | 0          |   0.0 |  0.00
Modify  | 1.8293e-05 | 0.0026246  | 0.0056517  |   2.4 |  0.14
Other   |            | 0.2057     |            |       | 11.06

Nlocal:        2776.45 ave        3955 max           0 min
Histogram: 8 4 4 0 4 12 8 0 30 34
Nghost:        3879.03 ave        5429 max         232 min
Histogram: 8 0 8 0 16 0 8 8 16 40
Neighs:        79213.5 ave      115273 max           0 min
Histogram: 8 4 4 0 10 6 8 8 24 32

Total # of neighbors = 8238203
Ave neighs/atom = 28.530474
Neighbor list builds = 0
Dangerous builds = 0
The dot product: -3.84067425271281e-09
Setting atom values ...
  1 settings made for x
  1 settings made for y
  1 settings made for z
Setting up cg style minimization ...
  Unit style    : metal
  Current step  : 1453
Per MPI rank memory allocation (min/avg/max) = 5.441 | 5.816 | 6.074 Mbytes
Step PotEng KinEng TotEng v_fx v_fy v_fz 
    1453   -1152449.4            0   -1152449.4 -0.0061548862 -0.0091462196  0.002117252 
    1575   -1152449.4            0   -1152449.4 1.0928896e-05 -6.6022902e-07 -5.3548802e-05 
Loop time of 1.41239 on 104 procs for 122 steps with 288751 atoms

99.9% CPU use with 104 MPI tasks x 1 OpenMP threads

Minimization stats:
  Stopping criterion = energy tolerance
  Energy initial, next-to-last, final = 
     -1152449.38136414  -1152449.38296007  -1152449.38296007
  Force two-norm initial, final = 0.17689643 0.00023110138
  Force max component initial, final = 0.078870897 5.3548802e-05
  Final line search alpha, max atom move = 1.0000000 5.3548802e-05
  Iterations, force evaluations = 122 244

MPI task timing breakdown:
Section |  min time  |  avg time  |  max time  |%varavg| %total
---------------------------------------------------------------
Pair    | 0.37247    | 1.0276     | 1.3308     |  27.3 | 72.76
Neigh   | 0          | 0          | 0          |   0.0 |  0.00
Comm    | 0.021132   | 0.23107    | 0.70895    |  40.6 | 16.36
Output  | 0          | 0          | 0          |   0.0 |  0.00
Modify  | 1.4056e-05 | 0.0020207  | 0.0043216  |   2.1 |  0.14
Other   |            | 0.1517     |            |       | 10.74

Nlocal:        2776.45 ave        3951 max           0 min
Histogram: 8 4 4 0 4 12 8 0 30 34
Nghost:        3879.01 ave        5429 max         232 min
Histogram: 8 0 8 0 16 0 8 8 16 40
Neighs:        79213.5 ave      115143 max           0 min
Histogram: 8 4 4 0 10 6 8 8 24 32

Total # of neighbors = 8238203
Ave neighs/atom = 28.530474
Neighbor list builds = 0
Dangerous builds = 0
The dot product: -9.8686088415023e-08
Setting atom values ...
  1 settings made for x
  1 settings made for y
  1 settings made for z
Setting up cg style minimization ...
  Unit style    : metal
  Current step  : 1575
Per MPI rank memory allocation (min/avg/max) = 5.441 | 5.816 | 6.074 Mbytes
Step PotEng KinEng TotEng v_fx v_fy v_fz 
    1575   -1152449.4            0   -1152449.4 -0.00032005936 0.0030405712 0.0093944381 
    1787   -1152449.4            0   -1152449.4 4.3475338e-06 1.1717583e-06 -1.6463833e-05 
Loop time of 2.45424 on 104 procs for 212 steps with 288751 atoms

99.9% CPU use with 104 MPI tasks x 1 OpenMP threads

Minimization stats:
  Stopping criterion = energy tolerance
  Energy initial, next-to-last, final = 
     -1152449.36698174  -1152449.36886299  -1152449.36886299
  Force two-norm initial, final = 0.17677739 5.4133612e-05
  Force max component initial, final = 0.081772425 1.6463833e-05
  Final line search alpha, max atom move = 1.0000000 1.6463833e-05
  Iterations, force evaluations = 212 424

MPI task timing breakdown:
Section |  min time  |  avg time  |  max time  |%varavg| %total
---------------------------------------------------------------
Pair    | 0.65315    | 1.7899     | 2.3224     |  35.8 | 72.93
Neigh   | 0          | 0          | 0          |   0.0 |  0.00
Comm    | 0.03646    | 0.40837    | 1.2747     |  53.5 | 16.64
Output  | 0          | 0          | 0          |   0.0 |  0.00
Modify  | 2.395e-05  | 0.0034945  | 0.0075248  |   2.8 |  0.14
Other   |            | 0.2525     |            |       | 10.29

Nlocal:        2776.45 ave        3949 max           0 min
Histogram: 8 4 4 0 4 12 8 0 28 36
Nghost:        3878.99 ave        5429 max         232 min
Histogram: 8 0 8 0 16 0 8 8 16 40
Neighs:        79213.5 ave      115083 max           0 min
Histogram: 8 4 4 0 10 6 8 8 24 32

Total # of neighbors = 8238205
Ave neighs/atom = 28.530481
Neighbor list builds = 0
Dangerous builds = 0
The dot product: -8.15645502369183e-08
Setting atom values ...
  1 settings made for x
  1 settings made for y
  1 settings made for z
Setting up cg style minimization ...
  Unit style    : metal
  Current step  : 1787
Per MPI rank memory allocation (min/avg/max) = 5.441 | 5.816 | 6.074 Mbytes
Step PotEng KinEng TotEng v_fx v_fy v_fz 
    1787   -1152449.4            0   -1152449.4 0.0056198239  0.022547758  0.023644696 
    1974   -1152449.4            0   -1152449.4 1.4386892e-06 -1.0335569e-06 -7.7542477e-06 
Loop time of 2.15894 on 104 procs for 187 steps with 288751 atoms

99.9% CPU use with 104 MPI tasks x 1 OpenMP threads

Minimization stats:
  Stopping criterion = energy tolerance
  Energy initial, next-to-last, final = 
     -1152449.35179088  -1152449.35391583  -1152449.35391583
  Force two-norm initial, final = 0.17936424 0.00014861247
  Force max component initial, final = 0.086954465 2.9400787e-05
  Final line search alpha, max atom move = 1.0000000 2.9400787e-05
  Iterations, force evaluations = 187 374

MPI task timing breakdown:
Section |  min time  |  avg time  |  max time  |%varavg| %total
---------------------------------------------------------------
Pair    | 0.57078    | 1.569      | 2.0377     |  33.7 | 72.68
Neigh   | 0          | 0          | 0          |   0.0 |  0.00
Comm    | 0.037184   | 0.3515     | 1.0685     |  50.0 | 16.28
Output  | 0          | 0          | 0          |   0.0 |  0.00
Modify  | 2.3318e-05 | 0.0030881  | 0.0066066  |   2.6 |  0.14
Other   |            | 0.2353     |            |       | 10.90

Nlocal:        2776.45 ave        3949 max           0 min
Histogram: 8 4 4 0 4 12 8 0 28 36
Nghost:        3879.01 ave        5426 max         232 min
Histogram: 8 0 8 0 16 0 8 8 16 40
Neighs:        79213.5 ave      115088 max           0 min
Histogram: 8 4 4 0 10 6 8 8 24 32

Total # of neighbors = 8238204
Ave neighs/atom = 28.530478
Neighbor list builds = 0
Dangerous builds = 0
The dot product: -8.4141057517611e-08
Setting atom values ...
  1 settings made for x
  1 settings made for y
  1 settings made for z
Setting up cg style minimization ...
  Unit style    : metal
  Current step  : 1974
Per MPI rank memory allocation (min/avg/max) = 5.441 | 5.816 | 6.074 Mbytes
Step PotEng KinEng TotEng v_fx v_fy v_fz 
    1974   -1152449.3            0   -1152449.3  0.007272908  0.037672385  0.031137418 
    2000   -1152449.3            0   -1152449.3 -0.00024473438 0.00013058943 0.0010177042 
    2167   -1152449.3            0   -1152449.3 1.1624346e-05 -1.7259712e-06 -4.172581e-05 
Loop time of 2.23659 on 104 procs for 193 steps with 288751 atoms

99.9% CPU use with 104 MPI tasks x 1 OpenMP threads

Minimization stats:
  Stopping criterion = energy tolerance
  Energy initial, next-to-last, final = 
     -1152449.33585489  -1152449.33815507  -1152449.33815507
  Force two-norm initial, final = 0.18284035 0.00013954431
  Force max component initial, final = 0.093515247 4.1725810e-05
  Final line search alpha, max atom move = 1.0000000 4.1725810e-05
  Iterations, force evaluations = 193 386

MPI task timing breakdown:
Section |  min time  |  avg time  |  max time  |%varavg| %total
---------------------------------------------------------------
Pair    | 0.58989    | 1.6252     | 2.115      |  34.2 | 72.66
Neigh   | 0          | 0          | 0          |   0.0 |  0.00
Comm    | 0.040825   | 0.36379    | 1.1122     |  50.9 | 16.27
Output  | 0.00010465 | 0.00010689 | 0.0002011  |   0.0 |  0.00
Modify  | 2.3463e-05 | 0.0031817  | 0.0067749  |   2.7 |  0.14
Other   |            | 0.2443     |            |       | 10.92

Nlocal:        2776.45 ave        3950 max           0 min
Histogram: 8 4 4 0 4 12 8 0 28 36
Nghost:        3879.07 ave        5424 max         232 min
Histogram: 8 0 8 0 16 0 8 8 16 40
Neighs:        79213.5 ave      115120 max           0 min
Histogram: 8 4 4 0 10 6 8 8 24 32

Total # of neighbors = 8238205
Ave neighs/atom = 28.530481
Neighbor list builds = 0
Dangerous builds = 0
The dot product: -4.06981578864334e-07
Setting atom values ...
  1 settings made for x
  1 settings made for y
  1 settings made for z
Setting up cg style minimization ...
  Unit style    : metal
  Current step  : 2167
Per MPI rank memory allocation (min/avg/max) = 5.441 | 5.816 | 6.074 Mbytes
Step PotEng KinEng TotEng v_fx v_fy v_fz 
    2167   -1152449.3            0   -1152449.3 0.0058189567  0.042138192  0.028529225 
    2383   -1152449.3            0   -1152449.3 -2.7865946e-06 1.4370654e-06 9.837762e-06 
Loop time of 2.48228 on 104 procs for 216 steps with 288751 atoms

99.9% CPU use with 104 MPI tasks x 1 OpenMP threads

Minimization stats:
  Stopping criterion = energy tolerance
  Energy initial, next-to-last, final = 
     -1152449.31902384  -1152449.32121133  -1152449.32121133
  Force two-norm initial, final = 0.18310148 6.7714027e-05
  Force max component initial, final = 0.099915485 1.3323487e-05
  Final line search alpha, max atom move = 1.0000000 1.3323487e-05
  Iterations, force evaluations = 216 432

MPI task timing breakdown:
Section |  min time  |  avg time  |  max time  |%varavg| %total
---------------------------------------------------------------
Pair    | 0.66157    | 1.8123     | 2.3494     |  36.1 | 73.01
Neigh   | 0          | 0          | 0          |   0.0 |  0.00
Comm    | 0.038134   | 0.40893    | 1.2634     |  53.9 | 16.47
Output  | 0          | 0          | 0          |   0.0 |  0.00
Modify  | 2.6537e-05 | 0.0035666  | 0.0076408  |   2.8 |  0.14
Other   |            | 0.2574     |            |       | 10.37

Nlocal:        2776.45 ave        3952 max           0 min
Histogram: 8 4 4 0 4 12 8 0 30 34
Nghost:        3879.11 ave        5424 max         232 min
Histogram: 8 0 8 0 16 0 8 8 16 40
Neighs:        79213.5 ave      115194 max           0 min
Histogram: 8 4 4 0 10 6 8 8 24 32

Total # of neighbors = 8238204
Ave neighs/atom = 28.530478
Neighbor list builds = 0
Dangerous builds = 0
The dot product: 1.01054064039255e-07
Setting atom values ...
  1 settings made for x
  1 settings made for y
  1 settings made for z
Setting up cg style minimization ...
  Unit style    : metal
  Current step  : 2383
Per MPI rank memory allocation (min/avg/max) = 5.441 | 5.816 | 6.074 Mbytes
Step PotEng KinEng TotEng v_fx v_fy v_fz 
    2383   -1152449.3            0   -1152449.3 0.0038651639  0.039017142  0.021898782 
    2571   -1152449.3            0   -1152449.3 -1.2131041e-05 2.6901188e-06 3.5049251e-05 
Loop time of 2.17098 on 104 procs for 188 steps with 288751 atoms

99.9% CPU use with 104 MPI tasks x 1 OpenMP threads

Minimization stats:
  Stopping criterion = energy tolerance
  Energy initial, next-to-last, final = 
     -1152449.30089223  -1152449.30295291  -1152449.30295291
  Force two-norm initial, final = 0.18109973 0.00015950173
  Force max component initial, final = 0.10521635 4.5088821e-05
  Final line search alpha, max atom move = 1.0000000 4.5088821e-05
  Iterations, force evaluations = 188 376

MPI task timing breakdown:
Section |  min time  |  avg time  |  max time  |%varavg| %total
---------------------------------------------------------------
Pair    | 0.57478    | 1.5833     | 2.0568     |  33.8 | 72.93
Neigh   | 0          | 0          | 0          |   0.0 |  0.00
Comm    | 0.033834   | 0.35253    | 1.079      |  50.5 | 16.24
Output  | 0          | 0          | 0          |   0.0 |  0.00
Modify  | 2.1734e-05 | 0.0031119  | 0.0066419  |   2.6 |  0.14
Other   |            | 0.2321     |            |       | 10.69

Nlocal:        2776.45 ave        3954 max           0 min
Histogram: 8 4 4 0 4 12 8 0 30 34
Nghost:        3879.13 ave        5424 max         232 min
Histogram: 8 0 8 0 16 0 8 8 16 40
Neighs:        79213.5 ave      115259 max           0 min
Histogram: 8 4 4 0 10 6 8 8 24 32

Total # of neighbors = 8238209
Ave neighs/atom = 28.530495
Neighbor list builds = 0
Dangerous builds = 0
The dot product: 2.9664281439303e-07
Setting atom values ...
  1 settings made for x
  1 settings made for y
  1 settings made for z
Setting up cg style minimization ...
  Unit style    : metal
  Current step  : 2571
Per MPI rank memory allocation (min/avg/max) = 5.441 | 5.816 | 6.074 Mbytes
Step PotEng KinEng TotEng v_fx v_fy v_fz 
    2571   -1152449.3            0   -1152449.3 0.0019656107  0.033482343  0.016904991 
    2761   -1152449.3            0   -1152449.3 -1.5918069e-05 1.1718077e-06 4.0771055e-05 
Loop time of 2.22234 on 104 procs for 190 steps with 288751 atoms

99.9% CPU use with 104 MPI tasks x 1 OpenMP threads

Minimization stats:
  Stopping criterion = energy tolerance
  Energy initial, next-to-last, final = 
     -1152449.28142796  -1152449.28342797  -1152449.28342797
  Force two-norm initial, final = 0.1788558 0.00014234666
  Force max component initial, final = 0.10943991 4.0771055e-05
  Final line search alpha, max atom move = 1.0000000 4.0771055e-05
  Iterations, force evaluations = 190 380

MPI task timing breakdown:
Section |  min time  |  avg time  |  max time  |%varavg| %total
---------------------------------------------------------------
Pair    | 0.58046    | 1.5963     | 2.0755     |  34.0 | 71.83
Neigh   | 0          | 0          | 0          |   0.0 |  0.00
Comm    | 0.033198   | 0.36142    | 1.0879     |  49.7 | 16.26
Output  | 0          | 0          | 0          |   0.0 |  0.00
Modify  | 2.2991e-05 | 0.0031479  | 0.0072772  |   2.7 |  0.14
Other   |            | 0.2614     |            |       | 11.76

Nlocal:        2776.45 ave        3954 max           0 min
Histogram: 8 4 4 0 4 12 8 0 30 34
Nghost:        3879.13 ave        5424 max         232 min
Histogram: 8 0 8 0 16 0 8 8 16 40
Neighs:        79213.6 ave      115261 max           0 min
Histogram: 8 4 4 0 10 6 8 8 24 32

Total # of neighbors = 8238212
Ave neighs/atom = 28.530506
Neighbor list builds = 0
Dangerous builds = 0
The dot product: 3.30396516186058e-07
Setting atom values ...
  1 settings made for x
  1 settings made for y
  1 settings made for z
Setting up cg style minimization ...
  Unit style    : metal
  Current step  : 2761
Per MPI rank memory allocation (min/avg/max) = 5.441 | 5.816 | 6.074 Mbytes
Step PotEng KinEng TotEng v_fx v_fy v_fz 
    2761   -1152449.3            0   -1152449.3 -0.00023527319  0.027820653  0.015147624 
    2947   -1152449.3            0   -1152449.3 6.8095494e-06 3.7226676e-07 -1.581106e-05 
Loop time of 2.17257 on 104 procs for 186 steps with 288751 atoms

99.9% CPU use with 104 MPI tasks x 1 OpenMP threads

Minimization stats:
  Stopping criterion = energy tolerance
  Energy initial, next-to-last, final = 
     -1152449.26076791  -1152449.26268516  -1152449.26268516
  Force two-norm initial, final = 0.17683207 0.00015445025
  Force max component initial, final = 0.11280021 2.0542196e-05
  Final line search alpha, max atom move = 1.0000000 2.0542196e-05
  Iterations, force evaluations = 186 372

MPI task timing breakdown:
Section |  min time  |  avg time  |  max time  |%varavg| %total
---------------------------------------------------------------
Pair    | 0.58399    | 1.5776     | 2.048      |  33.3 | 72.62
Neigh   | 0          | 0          | 0          |   0.0 |  0.00
Comm    | 0.03226    | 0.35483    | 1.0879     |  50.2 | 16.33
Output  | 0          | 0          | 0          |   0.0 |  0.00
Modify  | 2.2076e-05 | 0.0030619  | 0.0065846  |   2.6 |  0.14
Other   |            | 0.237      |            |       | 10.91

Nlocal:        2776.45 ave        3954 max           0 min
Histogram: 8 4 4 0 4 12 8 0 30 34
Nghost:        3879.13 ave        5424 max         232 min
Histogram: 8 0 8 0 16 0 8 8 16 40
Neighs:        79213.6 ave      115262 max           0 min
Histogram: 8 4 4 0 10 6 8 8 24 32

Total # of neighbors = 8238217
Ave neighs/atom = 28.530523
Neighbor list builds = 0
Dangerous builds = 0
The dot product: -1.23703545739892e-07
Setting atom values ...
  1 settings made for x
  1 settings made for y
  1 settings made for z
Setting up cg style minimization ...
  Unit style    : metal
  Current step  : 2947
Per MPI rank memory allocation (min/avg/max) = 5.441 | 5.816 | 6.074 Mbytes
Step PotEng KinEng TotEng v_fx v_fy v_fz 
    2947   -1152449.2            0   -1152449.2 -0.0019372616  0.022698707   0.01409763 
    3000   -1152449.2            0   -1152449.2 -9.1350725e-05 4.2049211e-05 0.0002202193 
    3124   -1152449.2            0   -1152449.2 -4.4290645e-06 2.6506604e-06 1.0941701e-05 
Loop time of 2.04718 on 104 procs for 177 steps with 288751 atoms

99.9% CPU use with 104 MPI tasks x 1 OpenMP threads

Minimization stats:
  Stopping criterion = energy tolerance
  Energy initial, next-to-last, final = 
     -1152449.23886025  -1152449.24074005  -1152449.24074005
  Force two-norm initial, final = 0.17520757 0.00020763727
  Force max component initial, final = 0.11584926 2.9494630e-05
  Final line search alpha, max atom move = 1.0000000 2.9494630e-05
  Iterations, force evaluations = 177 354

MPI task timing breakdown:
Section |  min time  |  avg time  |  max time  |%varavg| %total
---------------------------------------------------------------
Pair    | 0.54078    | 1.4853     | 1.9304     |  32.8 | 72.56
Neigh   | 0          | 0          | 0          |   0.0 |  0.00
Comm    | 0.039926   | 0.33372    | 1.0237     |  48.9 | 16.30
Output  | 0.00013716 | 0.00014362 | 0.00025763 |   0.0 |  0.01
Modify  | 2.0771e-05 | 0.0029259  | 0.0062863  |   2.6 |  0.14
Other   |            | 0.225      |            |       | 10.99

Nlocal:        2776.45 ave        3954 max           0 min
Histogram: 8 4 4 0 4 12 8 0 30 34
Nghost:        3879.12 ave        5424 max         232 min
Histogram: 8 0 8 0 16 0 8 8 16 40
Neighs:        79213.6 ave      115266 max           0 min
Histogram: 8 4 4 0 10 6 8 8 24 32

Total # of neighbors = 8238212
Ave neighs/atom = 28.530506
Neighbor list builds = 0
Dangerous builds = 0
The dot product: 1.15856011116864e-07
Setting atom values ...
  1 settings made for x
  1 settings made for y
  1 settings made for z
Setting up cg style minimization ...
  Unit style    : metal
  Current step  : 3124
Per MPI rank memory allocation (min/avg/max) = 5.441 | 5.816 | 6.074 Mbytes
Step PotEng KinEng TotEng v_fx v_fy v_fz 
    3124   -1152449.2            0   -1152449.2 -0.0040679847  0.019872576  0.015643577 
    3333   -1152449.2            0   -1152449.2 8.3783329e-06 -4.3668211e-07 -1.7601809e-05 
Loop time of 2.42929 on 104 procs for 209 steps with 288751 atoms

99.9% CPU use with 104 MPI tasks x 1 OpenMP threads

Minimization stats:
  Stopping criterion = energy tolerance
  Energy initial, next-to-last, final = 
     -1152449.21580009  -1152449.21782005  -1152449.21782005
  Force two-norm initial, final = 0.1742451 9.3817047e-05
  Force max component initial, final = 0.11865112 1.7601809e-05
  Final line search alpha, max atom move = 1.0000000 1.7601809e-05
  Iterations, force evaluations = 209 418

MPI task timing breakdown:
Section |  min time  |  avg time  |  max time  |%varavg| %total
---------------------------------------------------------------
Pair    | 0.63926    | 1.7661     | 2.3012     |  35.7 | 72.70
Neigh   | 0          | 0          | 0          |   0.0 |  0.00
Comm    | 0.037884   | 0.39891    | 1.2245     |  53.2 | 16.42
Output  | 0          | 0          | 0          |   0.0 |  0.00
Modify  | 2.6165e-05 | 0.0034469  | 0.0073756  |   2.8 |  0.14
Other   |            | 0.2609     |            |       | 10.74

Nlocal:        2776.45 ave        3954 max           0 min
Histogram: 8 4 4 0 4 12 8 0 30 34
Nghost:        3879.12 ave        5424 max         232 min
Histogram: 8 0 8 0 16 0 8 8 16 40
Neighs:        79213.6 ave      115262 max           0 min
Histogram: 8 4 4 0 10 6 8 8 24 32

Total # of neighbors = 8238211
Ave neighs/atom = 28.530502
Neighbor list builds = 0
Dangerous builds = 0
The dot product: -2.13343281985212e-07
Setting atom values ...
  1 settings made for x
  1 settings made for y
  1 settings made for z
Setting up cg style minimization ...
  Unit style    : metal
  Current step  : 3333
Per MPI rank memory allocation (min/avg/max) = 5.441 | 5.816 | 6.074 Mbytes
Step PotEng KinEng TotEng v_fx v_fy v_fz 
    3333   -1152449.2            0   -1152449.2 -0.0085942592  0.021686118  0.023043679 
    3521   -1152449.2            0   -1152449.2 2.1972286e-05 3.1028949e-06 -4.1626268e-05 
Loop time of 2.19129 on 104 procs for 188 steps with 288751 atoms

99.9% CPU use with 104 MPI tasks x 1 OpenMP threads

Minimization stats:
  Stopping criterion = energy tolerance
  Energy initial, next-to-last, final = 
     -1152449.19206351  -1152449.19428352  -1152449.19428352
  Force two-norm initial, final = 0.17435807 0.00013286585
  Force max component initial, final = 0.1211792 4.1626268e-05
  Final line search alpha, max atom move = 1.0000000 4.1626268e-05
  Iterations, force evaluations = 188 376

MPI task timing breakdown:
Section |  min time  |  avg time  |  max time  |%varavg| %total
---------------------------------------------------------------
Pair    | 0.5776     | 1.5842     | 2.0519     |  33.8 | 72.30
Neigh   | 0          | 0          | 0          |   0.0 |  0.00
Comm    | 0.033234   | 0.3583     | 1.109      |  50.6 | 16.35
Output  | 0          | 0          | 0          |   0.0 |  0.00
Modify  | 2.192e-05  | 0.0031082  | 0.0066743  |   2.6 |  0.14
Other   |            | 0.2457     |            |       | 11.21

Nlocal:        2776.45 ave        3955 max           0 min
Histogram: 8 4 4 0 4 12 8 0 30 34
Nghost:        3879.09 ave        5424 max         232 min
Histogram: 8 0 8 0 16 0 8 8 16 40
Neighs:        79213.6 ave      115294 max           0 min
Histogram: 8 4 4 0 10 6 8 8 24 32

Total # of neighbors = 8238212
Ave neighs/atom = 28.530506
Neighbor list builds = 0
Dangerous builds = 0
The dot product: -6.22997941057201e-07
Setting atom values ...
  1 settings made for x
  1 settings made for y
  1 settings made for z
Setting up cg style minimization ...
  Unit style    : metal
  Current step  : 3521
Per MPI rank memory allocation (min/avg/max) = 5.441 | 5.816 | 6.074 Mbytes
Step PotEng KinEng TotEng v_fx v_fy v_fz 
    3521   -1152449.2            0   -1152449.2 -0.013433151  0.024943073  0.029680098 
    3717   -1152449.2            0   -1152449.2 -2.0691574e-06 -1.6448719e-06 3.3021771e-06 
Loop time of 2.26319 on 104 procs for 196 steps with 288751 atoms

99.9% CPU use with 104 MPI tasks x 1 OpenMP threads

Minimization stats:
  Stopping criterion = energy tolerance
  Energy initial, next-to-last, final = 
     -1152449.16788613  -1152449.17007168  -1152449.17007168
  Force two-norm initial, final = 0.17517134 0.00010506744
  Force max component initial, final = 0.12389968 7.7034563e-06
  Final line search alpha, max atom move = 1.0000000 7.7034563e-06
  Iterations, force evaluations = 196 392

MPI task timing breakdown:
Section |  min time  |  avg time  |  max time  |%varavg| %total
---------------------------------------------------------------
Pair    | 0.59509    | 1.6464     | 2.1412     |  34.5 | 72.75
Neigh   | 0          | 0          | 0          |   0.0 |  0.00
Comm    | 0.033678   | 0.37111    | 1.1415     |  51.3 | 16.40
Output  | 0          | 0          | 0          |   0.0 |  0.00
Modify  | 2.3514e-05 | 0.0032328  | 0.0068623  |   2.7 |  0.14
Other   |            | 0.2424     |            |       | 10.71

Nlocal:        2776.45 ave        3955 max           0 min
Histogram: 8 4 4 0 4 12 8 0 30 34
Nghost:        3879.05 ave        5424 max         232 min
Histogram: 8 0 8 0 16 0 8 8 16 40
Neighs:        79213.6 ave      115288 max           0 min
Histogram: 8 4 4 0 10 6 8 8 24 32

Total # of neighbors = 8238215
Ave neighs/atom = 28.530516
Neighbor list builds = 0
Dangerous builds = 0
The dot product: 4.07004504768548e-08
Setting atom values ...
  1 settings made for x
  1 settings made for y
  1 settings made for z
Setting up cg style minimization ...
  Unit style    : metal
  Current step  : 3717
Per MPI rank memory allocation (min/avg/max) = 5.441 | 5.816 | 6.074 Mbytes
Step PotEng KinEng TotEng v_fx v_fy v_fz 
    3717   -1152449.1            0   -1152449.1 -0.014506197  0.023756059  0.028165781 
    3908   -1152449.1            0   -1152449.1 1.4712548e-05 3.3482621e-07 -2.4174902e-05 
Loop time of 2.20123 on 104 procs for 191 steps with 288751 atoms

99.9% CPU use with 104 MPI tasks x 1 OpenMP threads

Minimization stats:
  Stopping criterion = energy tolerance
  Energy initial, next-to-last, final = 
     -1152449.14281885  -1152449.14487596  -1152449.14487596
  Force two-norm initial, final = 0.17467988 0.00012379976
  Force max component initial, final = 0.12694926 3.5578986e-05
  Final line search alpha, max atom move = 1.0000000 3.5578986e-05
  Iterations, force evaluations = 191 382

MPI task timing breakdown:
Section |  min time  |  avg time  |  max time  |%varavg| %total
---------------------------------------------------------------
Pair    | 0.5805     | 1.6        | 2.0778     |  34.0 | 72.69
Neigh   | 0          | 0          | 0          |   0.0 |  0.00
Comm    | 0.039506   | 0.35964    | 1.1032     |  50.7 | 16.34
Output  | 0          | 0          | 0          |   0.0 |  0.00
Modify  | 2.2234e-05 | 0.0031538  | 0.0067584  |   2.7 |  0.14
Other   |            | 0.2384     |            |       | 10.83

Nlocal:        2776.45 ave        3955 max           0 min
Histogram: 8 4 4 0 4 12 8 0 30 34
Nghost:        3879.02 ave        5424 max         232 min
Histogram: 8 0 8 0 16 0 8 8 16 40
Neighs:        79213.6 ave      115290 max           0 min
Histogram: 8 4 4 0 10 6 8 8 24 32

Total # of neighbors = 8238215
Ave neighs/atom = 28.530516
Neighbor list builds = 0
Dangerous builds = 0
The dot product: -3.62325879796423e-07
Setting atom values ...
  1 settings made for x
  1 settings made for y
  1 settings made for z
Setting up cg style minimization ...
  Unit style    : metal
  Current step  : 3908
Per MPI rank memory allocation (min/avg/max) = 5.441 | 5.816 | 6.074 Mbytes
Step PotEng KinEng TotEng v_fx v_fy v_fz 
    3908   -1152449.1            0   -1152449.1 -0.013515994  0.020298584   0.02371366 
    4000   -1152449.1            0   -1152449.1 0.00015198719 3.627476e-05 -0.00022927281 
    4110   -1152449.1            0   -1152449.1 5.4142685e-06 3.3538493e-06 -7.8760536e-06 
Loop time of 2.33176 on 104 procs for 202 steps with 288751 atoms

99.9% CPU use with 104 MPI tasks x 1 OpenMP threads

Minimization stats:
  Stopping criterion = energy tolerance
  Energy initial, next-to-last, final = 
     -1152449.11663774  -1152449.11850432  -1152449.11850432
  Force two-norm initial, final = 0.17382291 9.4573041e-05
  Force max component initial, final = 0.129916 1.8938117e-05
  Final line search alpha, max atom move = 1.0000000 1.8938117e-05
  Iterations, force evaluations = 202 404

MPI task timing breakdown:
Section |  min time  |  avg time  |  max time  |%varavg| %total
---------------------------------------------------------------
Pair    | 0.62163    | 1.7046     | 2.2119     |  34.9 | 73.10
Neigh   | 0          | 0          | 0          |   0.0 |  0.00
Comm    | 0.033975   | 0.3832     | 1.1929     |  52.5 | 16.43
Output  | 9.4738e-05 | 0.00010557 | 0.0002359  |   0.0 |  0.00
Modify  | 2.3597e-05 | 0.0033225  | 0.0070887  |   2.7 |  0.14
Other   |            | 0.2405     |            |       | 10.32

Nlocal:        2776.45 ave        3955 max           0 min
Histogram: 8 4 4 0 4 12 8 0 30 34
Nghost:        3879.02 ave        5424 max         232 min
Histogram: 8 0 8 0 16 0 8 8 16 40
Neighs:        79213.6 ave      115285 max           0 min
Histogram: 8 4 4 0 10 6 8 8 24 32

Total # of neighbors = 8238213
Ave neighs/atom = 28.530509
Neighbor list builds = 0
Dangerous builds = 0
The dot product: -8.64554731526414e-08
Setting atom values ...
  1 settings made for x
  1 settings made for y
  1 settings made for z
Setting up cg style minimization ...
  Unit style    : metal
  Current step  : 4110
Per MPI rank memory allocation (min/avg/max) = 5.441 | 5.816 | 6.074 Mbytes
Step PotEng KinEng TotEng v_fx v_fy v_fz 
    4110   -1152449.1            0   -1152449.1 -0.010930759  0.015855006   0.01780996 
    4278   -1152449.1            0   -1152449.1 -1.2941504e-06 2.1975852e-06 2.1452774e-06 
Loop time of 1.93323 on 104 procs for 168 steps with 288751 atoms

99.9% CPU use with 104 MPI tasks x 1 OpenMP threads

Minimization stats:
  Stopping criterion = energy tolerance
  Energy initial, next-to-last, final = 
     -1152449.08911592  -1152449.09085122  -1152449.09085122
  Force two-norm initial, final = 0.17328682 0.00019473641
  Force max component initial, final = 0.13282757 1.8805546e-05
  Final line search alpha, max atom move = 1.0000000 1.8805546e-05
  Iterations, force evaluations = 168 336

MPI task timing breakdown:
Section |  min time  |  avg time  |  max time  |%varavg| %total
---------------------------------------------------------------
Pair    | 0.51404    | 1.4087     | 1.8333     |  31.9 | 72.87
Neigh   | 0          | 0          | 0          |   0.0 |  0.00
Comm    | 0.028383   | 0.31726    | 0.98045    |  47.6 | 16.41
Output  | 0          | 0          | 0          |   0.0 |  0.00
Modify  | 1.9927e-05 | 0.0027762  | 0.0059932  |   2.5 |  0.14
Other   |            | 0.2045     |            |       | 10.58

Nlocal:        2776.45 ave        3955 max           0 min
Histogram: 8 4 4 0 4 12 8 0 30 34
Nghost:        3879.01 ave        5424 max         232 min
Histogram: 8 0 8 0 16 0 8 8 16 40
Neighs:        79213.6 ave      115312 max           0 min
Histogram: 8 4 4 0 10 6 8 8 24 32

Total # of neighbors = 8238213
Ave neighs/atom = 28.530509
Neighbor list builds = 0
Dangerous builds = 0
The dot product: 3.20264139298294e-08
Setting atom values ...
  1 settings made for x
  1 settings made for y
  1 settings made for z
Setting up cg style minimization ...
  Unit style    : metal
  Current step  : 4278
Per MPI rank memory allocation (min/avg/max) = 5.441 | 5.816 | 6.074 Mbytes
Step PotEng KinEng TotEng v_fx v_fy v_fz 
    4278   -1152449.1            0   -1152449.1 -0.0080706308  0.011376908  0.012430006 
    4449   -1152449.1            0   -1152449.1 -2.6378604e-05 -1.8060901e-06 3.6868906e-05 
Loop time of 2.00329 on 104 procs for 171 steps with 288751 atoms

99.9% CPU use with 104 MPI tasks x 1 OpenMP threads

Minimization stats:
  Stopping criterion = energy tolerance
  Energy initial, next-to-last, final = 
     -1152449.06025245  -1152449.06191053  -1152449.06191053
  Force two-norm initial, final = 0.17332856 0.00018283388
  Force max component initial, final = 0.13549118 4.5762394e-05
  Final line search alpha, max atom move = 1.0000000 4.5762394e-05
  Iterations, force evaluations = 171 342

MPI task timing breakdown:
Section |  min time  |  avg time  |  max time  |%varavg| %total
---------------------------------------------------------------
Pair    | 0.5247     | 1.4489     | 1.8919     |  32.3 | 72.33
Neigh   | 0          | 0          | 0          |   0.0 |  0.00
Comm    | 0.030369   | 0.32534    | 0.99092    |  48.0 | 16.24
Output  | 0          | 0          | 0          |   0.0 |  0.00
Modify  | 1.9704e-05 | 0.0028208  | 0.0060556  |   2.5 |  0.14
Other   |            | 0.2262     |            |       | 11.29

Nlocal:        2776.45 ave        3956 max           0 min
Histogram: 8 4 4 0 4 12 8 0 30 34
Nghost:        3879.01 ave        5425 max         232 min
Histogram: 8 0 8 0 16 0 8 8 16 40
Neighs:        79213.6 ave      115348 max           0 min
Histogram: 8 4 4 0 10 6 8 8 24 32

Total # of neighbors = 8238214
Ave neighs/atom = 28.530512
Neighbor list builds = 0
Dangerous builds = 0
The dot product: 3.45276241330711e-07
Setting atom values ...
  1 settings made for x
  1 settings made for y
  1 settings made for z
Setting up cg style minimization ...
  Unit style    : metal
  Current step  : 4449
Per MPI rank memory allocation (min/avg/max) = 5.441 | 5.816 | 6.074 Mbytes
Step PotEng KinEng TotEng v_fx v_fy v_fz 
    4449     -1152449            0     -1152449 -0.0055502813 0.0074725488  0.008175798 
    4628     -1152449            0     -1152449 -2.5378422e-05 -5.769559e-06 3.3998576e-05 
Loop time of 2.06152 on 104 procs for 179 steps with 288751 atoms

99.9% CPU use with 104 MPI tasks x 1 OpenMP threads

Minimization stats:
  Stopping criterion = energy tolerance
  Energy initial, next-to-last, final = 
     -1152449.03009715  -1152449.03173816  -1152449.03173816
  Force two-norm initial, final = 0.17386545 0.00016970908
  Force max component initial, final = 0.13791012 4.2546434e-05
  Final line search alpha, max atom move = 1.0000000 4.2546434e-05
  Iterations, force evaluations = 179 358

MPI task timing breakdown:
Section |  min time  |  avg time  |  max time  |%varavg| %total
---------------------------------------------------------------
Pair    | 0.54927    | 1.5008     | 1.9532     |  32.8 | 72.80
Neigh   | 0          | 0          | 0          |   0.0 |  0.00
Comm    | 0.030678   | 0.33847    | 1.0465     |  49.0 | 16.42
Output  | 0          | 0          | 0          |   0.0 |  0.00
Modify  | 2.2461e-05 | 0.0029564  | 0.0063017  |   2.6 |  0.14
Other   |            | 0.2193     |            |       | 10.64

Nlocal:        2776.45 ave        3957 max           0 min
Histogram: 8 4 4 0 4 12 8 2 28 34
Nghost:        3878.97 ave        5425 max         232 min
Histogram: 8 0 8 0 16 0 8 8 16 40
Neighs:        79213.6 ave      115383 max           0 min
Histogram: 8 4 4 0 10 6 8 8 24 32

Total # of neighbors = 8238218
Ave neighs/atom = 28.530526
Neighbor list builds = 0
Dangerous builds = 0
The dot product: 2.77473102203988e-07
Setting atom values ...
  1 settings made for x
  1 settings made for y
  1 settings made for z
Setting up cg style minimization ...
  Unit style    : metal
  Current step  : 4628
Per MPI rank memory allocation (min/avg/max) = 5.441 | 5.816 | 6.074 Mbytes
Step PotEng KinEng TotEng v_fx v_fy v_fz 
    4628     -1152449            0     -1152449 -0.0036639125 0.0045616833 0.0051969991 
    4805     -1152449            0     -1152449 -1.6470533e-05 -6.6921083e-06 2.1258223e-05 
Loop time of 2.09275 on 104 procs for 177 steps with 288751 atoms

99.9% CPU use with 104 MPI tasks x 1 OpenMP threads

Minimization stats:
  Stopping criterion = energy tolerance
  Energy initial, next-to-last, final = 
     -1152448.99880025  -1152449.00044887  -1152449.00044887
  Force two-norm initial, final = 0.17458006 0.00018718589
  Force max component initial, final = 0.13998947 4.2037145e-05
  Final line search alpha, max atom move = 1.0000000 4.2037145e-05
  Iterations, force evaluations = 177 354

MPI task timing breakdown:
Section |  min time  |  avg time  |  max time  |%varavg| %total
---------------------------------------------------------------
Pair    | 0.54367    | 1.5003     | 1.9753     |  32.9 | 71.69
Neigh   | 0          | 0          | 0          |   0.0 |  0.00
Comm    | 0.036736   | 0.34416    | 1.0442     |  48.3 | 16.45
Output  | 0          | 0          | 0          |   0.0 |  0.00
Modify  | 2.1067e-05 | 0.0029249  | 0.0062603  |   2.6 |  0.14
Other   |            | 0.2453     |            |       | 11.72

Nlocal:        2776.45 ave        3957 max           0 min
Histogram: 8 4 4 0 4 12 8 2 28 34
Nghost:        3878.92 ave        5425 max         232 min
Histogram: 8 0 8 0 16 0 8 8 16 40
Neighs:        79213.6 ave      115378 max           0 min
Histogram: 8 4 4 0 10 6 8 8 24 32

Total # of neighbors = 8238216
Ave neighs/atom = 28.530519
Neighbor list builds = 0
Dangerous builds = 0
The dot product: 1.55339313663492e-07
Setting atom values ...
  1 settings made for x
  1 settings made for y
  1 settings made for z
Setting up cg style minimization ...
  Unit style    : metal
  Current step  : 4805
Per MPI rank memory allocation (min/avg/max) = 5.441 | 5.816 | 6.074 Mbytes
Step PotEng KinEng TotEng v_fx v_fy v_fz 
    4805     -1152449            0     -1152449 -0.0018833522 0.0025482393 0.0026179243 
    4994     -1152449            0     -1152449 -1.9150736e-05 -2.6958877e-06 2.453723e-05 
Loop time of 2.18038 on 104 procs for 189 steps with 288751 atoms

99.9% CPU use with 104 MPI tasks x 1 OpenMP threads

Minimization stats:
  Stopping criterion = energy tolerance
  Energy initial, next-to-last, final = 
     -1152448.96644305  -1152448.96810145  -1152448.96810145
  Force two-norm initial, final = 0.1754399 0.00012507052
  Force max component initial, final = 0.14191289 2.4537230e-05
  Final line search alpha, max atom move = 1.0000000 2.4537230e-05
  Iterations, force evaluations = 189 378

MPI task timing breakdown:
Section |  min time  |  avg time  |  max time  |%varavg| %total
---------------------------------------------------------------
Pair    | 0.57331    | 1.5888     | 2.0672     |  34.0 | 72.87
Neigh   | 0          | 0          | 0          |   0.0 |  0.00
Comm    | 0.032909   | 0.35662    | 1.095      |  50.8 | 16.36
Output  | 0          | 0          | 0          |   0.0 |  0.00
Modify  | 2.2023e-05 | 0.0031208  | 0.0066478  |   2.6 |  0.14
Other   |            | 0.2318     |            |       | 10.63

Nlocal:        2776.45 ave        3957 max           0 min
Histogram: 8 4 4 0 4 12 8 2 28 34
Nghost:        3878.90 ave        5425 max         232 min
Histogram: 8 0 8 0 16 0 8 8 16 40
Neighs:        79213.6 ave      115380 max           0 min
Histogram: 8 4 4 0 10 6 8 8 24 32

Total # of neighbors = 8238218
Ave neighs/atom = 28.530526
Neighbor list builds = 0
Dangerous builds = 0
The dot product: 1.71487504952714e-07
Setting atom values ...
  1 settings made for x
  1 settings made for y
  1 settings made for z
Setting up cg style minimization ...
  Unit style    : metal
  Current step  : 4994
Per MPI rank memory allocation (min/avg/max) = 5.441 | 5.816 | 6.074 Mbytes
Step PotEng KinEng TotEng v_fx v_fy v_fz 
    4994   -1152448.9            0   -1152448.9 -0.00037091636 0.0013258738 0.00056219646 
    5000   -1152448.9            0   -1152448.9 0.0042539504 -0.0019214518 -0.0055165918 
    5229   -1152448.9            0   -1152448.9 -2.0287811e-06 -5.3956091e-07 2.5289119e-06 
Loop time of 2.74743 on 104 procs for 235 steps with 288751 atoms

99.9% CPU use with 104 MPI tasks x 1 OpenMP threads

Minimization stats:
  Stopping criterion = energy tolerance
  Energy initial, next-to-last, final = 
     -1152448.93312156  -1152448.93483651  -1152448.93483651
  Force two-norm initial, final = 0.17630833 3.4252874e-05
  Force max component initial, final = 0.14364187 2.5289119e-06
  Final line search alpha, max atom move = 1.0000000 2.5289119e-06
  Iterations, force evaluations = 235 470

MPI task timing breakdown:
Section |  min time  |  avg time  |  max time  |%varavg| %total
---------------------------------------------------------------
Pair    | 0.72241    | 1.9875     | 2.5708     |  37.6 | 72.34
Neigh   | 0          | 0          | 0          |   0.0 |  0.00
Comm    | 0.043991   | 0.45594    | 1.4118     |  56.0 | 16.60
Output  | 8.5815e-05 | 9.0755e-05 | 0.00015803 |   0.0 |  0.00
Modify  | 2.8851e-05 | 0.0038779  | 0.0082498  |   2.9 |  0.14
Other   |            | 0.3        |            |       | 10.92

Nlocal:        2776.45 ave        3957 max           0 min
Histogram: 8 4 4 0 4 12 8 2 28 34
Nghost:        3878.89 ave        5425 max         232 min
Histogram: 8 0 8 0 16 0 8 8 16 40
Neighs:        79213.6 ave      115378 max           0 min
Histogram: 8 4 4 0 10 6 8 8 24 32

Total # of neighbors = 8238215
Ave neighs/atom = 28.530516
Neighbor list builds = 0
Dangerous builds = 0
The dot product: 1.68635073202613e-08
Setting atom values ...
  1 settings made for x
  1 settings made for y
  1 settings made for z
Setting up cg style minimization ...
  Unit style    : metal
  Current step  : 5229
Per MPI rank memory allocation (min/avg/max) = 5.441 | 5.816 | 6.074 Mbytes
Step PotEng KinEng TotEng v_fx v_fy v_fz 
    5229   -1152448.9            0   -1152448.9 0.0010206639 0.00066891389 -0.0012215532 
    5428   -1152448.9            0   -1152448.9 -1.1663401e-05 -1.5430637e-06 1.437708e-05 
Loop time of 2.29725 on 104 procs for 199 steps with 288751 atoms

99.9% CPU use with 104 MPI tasks x 1 OpenMP threads

Minimization stats:
  Stopping criterion = energy tolerance
  Energy initial, next-to-last, final = 
     -1152448.89898462  -1152448.90062283  -1152448.90062283
  Force two-norm initial, final = 0.17703908 9.6337817e-05
  Force max component initial, final = 0.14507483 1.4377080e-05
  Final line search alpha, max atom move = 1.0000000 1.4377080e-05
  Iterations, force evaluations = 199 398

MPI task timing breakdown:
Section |  min time  |  avg time  |  max time  |%varavg| %total
---------------------------------------------------------------
Pair    | 0.60852    | 1.6703     | 2.1687     |  34.7 | 72.71
Neigh   | 0          | 0          | 0          |   0.0 |  0.00
Comm    | 0.034607   | 0.37852    | 1.1651     |  51.7 | 16.48
Output  | 0          | 0          | 0          |   0.0 |  0.00
Modify  | 2.3836e-05 | 0.0032902  | 0.0071041  |   2.7 |  0.14
Other   |            | 0.2451     |            |       | 10.67

Nlocal:        2776.45 ave        3957 max           0 min
Histogram: 8 4 4 0 4 12 8 2 28 34
Nghost:        3878.87 ave        5425 max         232 min
Histogram: 8 0 8 0 16 0 8 8 16 40
Neighs:        79213.6 ave      115377 max           0 min
Histogram: 8 4 4 0 10 6 8 8 24 32

Total # of neighbors = 8238214
Ave neighs/atom = 28.530512
Neighbor list builds = 0
Dangerous builds = 0
The dot product: 8.10244312762487e-08
Setting atom values ...
  1 settings made for x
  1 settings made for y
  1 settings made for z
Setting up cg style minimization ...
  Unit style    : metal
  Current step  : 5428
Per MPI rank memory allocation (min/avg/max) = 5.441 | 5.816 | 6.074 Mbytes
Step PotEng KinEng TotEng v_fx v_fy v_fz 
    5428   -1152448.9            0   -1152448.9 0.0034963765 0.00028012038 -0.0042578559 
    5674   -1152448.9            0   -1152448.9 1.978171e-07 -5.9233635e-08 -2.4599786e-07 
Loop time of 2.8449 on 104 procs for 246 steps with 288751 atoms

99.9% CPU use with 104 MPI tasks x 1 OpenMP threads

Minimization stats:
  Stopping criterion = energy tolerance
  Energy initial, next-to-last, final = 
      -1152448.8637451  -1152448.86535505  -1152448.86535505
  Force two-norm initial, final = 0.17826375 1.6047425e-05
  Force max component initial, final = 0.14675298 7.6909557e-07
  Final line search alpha, max atom move = 1.0000000 7.6909557e-07
  Iterations, force evaluations = 246 492

MPI task timing breakdown:
Section |  min time  |  avg time  |  max time  |%varavg| %total
---------------------------------------------------------------
Pair    | 0.75254    | 2.0708     | 2.6913     |  38.6 | 72.79
Neigh   | 0          | 0          | 0          |   0.0 |  0.00
Comm    | 0.049149   | 0.46948    | 1.4499     |  57.3 | 16.50
Output  | 0          | 0          | 0          |   0.0 |  0.00
Modify  | 2.8615e-05 | 0.0040451  | 0.0086243  |   3.0 |  0.14
Other   |            | 0.3006     |            |       | 10.57

Nlocal:        2776.45 ave        3956 max           0 min
Histogram: 8 4 4 0 4 12 8 0 30 34
Nghost:        3878.88 ave        5425 max         232 min
Histogram: 8 0 8 0 16 0 8 8 16 40
Neighs:        79213.6 ave      115344 max           0 min
Histogram: 8 4 4 0 10 6 8 8 24 32

Total # of neighbors = 8238214
Ave neighs/atom = 28.530512
Neighbor list builds = 0
Dangerous builds = 0
The dot product: -1.10956141313571e-09
Setting atom values ...
  1 settings made for x
  1 settings made for y
  1 settings made for z
Setting up cg style minimization ...
  Unit style    : metal
  Current step  : 5674
Per MPI rank memory allocation (min/avg/max) = 5.441 | 5.816 | 6.074 Mbytes
Step PotEng KinEng TotEng v_fx v_fy v_fz 
    5674   -1152448.8            0   -1152448.8 0.0060371472 0.00022771166 -0.007283053 
    5881   -1152448.8            0   -1152448.8 -5.9590679e-06 -1.9416722e-06 7.0722417e-06 
Loop time of 2.37597 on 104 procs for 207 steps with 288751 atoms

99.9% CPU use with 104 MPI tasks x 1 OpenMP threads

Minimization stats:
  Stopping criterion = energy tolerance
  Energy initial, next-to-last, final = 
     -1152448.82743215  -1152448.82914513  -1152448.82914513
  Force two-norm initial, final = 0.17957927 8.9326509e-05
  Force max component initial, final = 0.14838076 1.4228453e-05
  Final line search alpha, max atom move = 1.0000000 1.4228453e-05
  Iterations, force evaluations = 207 414

MPI task timing breakdown:
Section |  min time  |  avg time  |  max time  |%varavg| %total
---------------------------------------------------------------
Pair    | 0.63343    | 1.7331     | 2.2519     |  35.3 | 72.94
Neigh   | 0          | 0          | 0          |   0.0 |  0.00
Comm    | 0.034989   | 0.38979    | 1.2027     |  52.7 | 16.41
Output  | 0          | 0          | 0          |   0.0 |  0.00
Modify  | 2.3875e-05 | 0.0034142  | 0.0073364  |   2.8 |  0.14
Other   |            | 0.2496     |            |       | 10.51

Nlocal:        2776.45 ave        3956 max           0 min
Histogram: 8 4 4 0 4 12 8 0 30 34
Nghost:        3878.83 ave        5425 max         232 min
Histogram: 8 0 8 0 16 0 8 8 16 40
Neighs:        79213.6 ave      115346 max           0 min
Histogram: 8 4 4 0 10 6 8 8 24 32

Total # of neighbors = 8238216
Ave neighs/atom = 28.530519
Neighbor list builds = 0
Dangerous builds = 0
The dot product: 3.06012904232128e-08
Setting atom values ...
  1 settings made for x
  1 settings made for y
  1 settings made for z
Setting up cg style minimization ...
  Unit style    : metal
  Current step  : 5881
Per MPI rank memory allocation (min/avg/max) = 5.441 | 5.816 | 6.074 Mbytes
Step PotEng KinEng TotEng v_fx v_fy v_fz 
    5881   -1152448.8            0   -1152448.8 0.0078025018 0.00047531606 -0.0093031329 
    6000   -1152448.8            0   -1152448.8 -3.7357191e-05 -2.3312166e-05 4.3103383e-05 
    6116   -1152448.8            0   -1152448.8 7.3630227e-06 1.2870666e-06 -8.7217867e-06 
Loop time of 2.7381 on 104 procs for 235 steps with 288751 atoms

99.9% CPU use with 104 MPI tasks x 1 OpenMP threads

Minimization stats:
  Stopping criterion = energy tolerance
  Energy initial, next-to-last, final = 
     -1152448.79040645  -1152448.79203015  -1152448.79203015
  Force two-norm initial, final = 0.18013714 3.3458180e-05
  Force max component initial, final = 0.14940267 8.7217867e-06
  Final line search alpha, max atom move = 1.0000000 8.7217867e-06
  Iterations, force evaluations = 235 470

MPI task timing breakdown:
Section |  min time  |  avg time  |  max time  |%varavg| %total
---------------------------------------------------------------
Pair    | 0.72205    | 1.9867     | 2.5969     |  37.8 | 72.56
Neigh   | 0          | 0          | 0          |   0.0 |  0.00
Comm    | 0.039971   | 0.44995    | 1.4029     |  56.5 | 16.43
Output  | 0.00012986 | 0.00013835 | 0.00026841 |   0.0 |  0.01
Modify  | 2.682e-05  | 0.0038675  | 0.0082533  |   2.9 |  0.14
Other   |            | 0.2975     |            |       | 10.86

Nlocal:        2776.45 ave        3955 max           0 min
Histogram: 8 4 4 0 4 12 8 0 30 34
Nghost:        3878.84 ave        5425 max         232 min
Histogram: 8 0 8 0 16 0 8 8 16 40
Neighs:        79213.6 ave      115320 max           0 min
Histogram: 8 4 4 0 10 6 8 8 24 32

Total # of neighbors = 8238213
Ave neighs/atom = 28.530509
Neighbor list builds = 0
Dangerous builds = 0
The dot product: -2.59542152375528e-08
Setting atom values ...
  1 settings made for x
  1 settings made for y
  1 settings made for z
Setting up cg style minimization ...
  Unit style    : metal
  Current step  : 6116
Per MPI rank memory allocation (min/avg/max) = 5.441 | 5.816 | 6.074 Mbytes
Step PotEng KinEng TotEng v_fx v_fy v_fz 
    6116   -1152448.8            0   -1152448.8  0.010834694  0.001031953  -0.01280333 
    6281   -1152448.8            0   -1152448.8 2.8605808e-05 7.4731555e-06 -3.3474781e-05 
Loop time of 1.90647 on 104 procs for 165 steps with 288751 atoms

99.9% CPU use with 104 MPI tasks x 1 OpenMP threads

Minimization stats:
  Stopping criterion = energy tolerance
  Energy initial, next-to-last, final = 
     -1152448.75227441  -1152448.75390334  -1152448.75390334
  Force two-norm initial, final = 0.18118792 0.000284942
  Force max component initial, final = 0.15078936 5.4075984e-05
  Final line search alpha, max atom move = 1.0000000 5.4075984e-05
  Iterations, force evaluations = 165 330

MPI task timing breakdown:
Section |  min time  |  avg time  |  max time  |%varavg| %total
---------------------------------------------------------------
Pair    | 0.50267    | 1.3827     | 1.8014     |  31.6 | 72.53
Neigh   | 0          | 0          | 0          |   0.0 |  0.00
Comm    | 0.028543   | 0.31053    | 0.94975    |  47.0 | 16.29
Output  | 0          | 0          | 0          |   0.0 |  0.00
Modify  | 2.0471e-05 | 0.002728   | 0.005836   |   2.5 |  0.14
Other   |            | 0.2105     |            |       | 11.04

Nlocal:        2776.45 ave        3954 max           0 min
Histogram: 8 4 4 0 4 12 8 0 30 34
Nghost:        3878.84 ave        5425 max         232 min
Histogram: 8 0 8 0 16 0 8 8 16 40
Neighs:        79213.6 ave      115288 max           0 min
Histogram: 8 4 4 0 10 6 8 8 24 32

Total # of neighbors = 8238212
Ave neighs/atom = 28.530506
Neighbor list builds = 0
Dangerous builds = 0
The dot product: -6.06761723068712e-08
Setting atom values ...
  1 settings made for x
  1 settings made for y
  1 settings made for z
Setting up cg style minimization ...
  Unit style    : metal
  Current step  : 6281
Per MPI rank memory allocation (min/avg/max) = 5.441 | 5.816 | 6.074 Mbytes
Step PotEng KinEng TotEng v_fx v_fy v_fz 
    6281   -1152448.7            0   -1152448.7   0.01369482 0.0018896711 -0.016077915 
    6454   -1152448.7            0   -1152448.7 3.7698984e-05 6.4287826e-06 -4.4172863e-05 
Loop time of 2.01572 on 104 procs for 173 steps with 288751 atoms

99.9% CPU use with 104 MPI tasks x 1 OpenMP threads

Minimization stats:
  Stopping criterion = energy tolerance
  Energy initial, next-to-last, final = 
     -1152448.71320951  -1152448.71499957  -1152448.71499957
  Force two-norm initial, final = 0.18174157 0.00016311201
  Force max component initial, final = 0.15193991 4.4172863e-05
  Final line search alpha, max atom move = 1.0000000 4.4172863e-05
  Iterations, force evaluations = 173 346

MPI task timing breakdown:
Section |  min time  |  avg time  |  max time  |%varavg| %total
---------------------------------------------------------------
Pair    | 0.53242    | 1.4632     | 1.9067     |  32.4 | 72.59
Neigh   | 0          | 0          | 0          |   0.0 |  0.00
Comm    | 0.029787   | 0.32997    | 1.0262     |  48.5 | 16.37
Output  | 0          | 0          | 0          |   0.0 |  0.00
Modify  | 2.0366e-05 | 0.0028561  | 0.0061713  |   2.5 |  0.14
Other   |            | 0.2197     |            |       | 10.90

Nlocal:        2776.45 ave        3953 max           0 min
Histogram: 8 4 4 0 4 12 8 0 30 34
Nghost:        3878.81 ave        5425 max         232 min
Histogram: 8 0 8 0 16 0 8 8 16 40
Neighs:        79213.6 ave      115256 max           0 min
Histogram: 8 4 4 0 10 6 8 8 24 32

Total # of neighbors = 8238212
Ave neighs/atom = 28.530506
Neighbor list builds = 0
Dangerous builds = 0
The dot product: -5.28531984574941e-08
Setting atom values ...
  1 settings made for x
  1 settings made for y
  1 settings made for z
Setting up cg style minimization ...
  Unit style    : metal
  Current step  : 6454
Per MPI rank memory allocation (min/avg/max) = 5.441 | 5.816 | 6.074 Mbytes
Step PotEng KinEng TotEng v_fx v_fy v_fz 
    6454   -1152448.7            0   -1152448.7  0.015617018 0.0025560569 -0.018257886 
    6593   -1152448.7            0   -1152448.7 -1.074456e-05 -4.2601652e-06 1.2381092e-05 
Loop time of 1.61845 on 104 procs for 139 steps with 288751 atoms

99.9% CPU use with 104 MPI tasks x 1 OpenMP threads

Minimization stats:
  Stopping criterion = energy tolerance
  Energy initial, next-to-last, final = 
     -1152448.67383496  -1152448.67557936  -1152448.67557936
  Force two-norm initial, final = 0.18061537 0.00023184698
  Force max component initial, final = 0.15193553 1.2381092e-05
  Final line search alpha, max atom move = 1.0000000 1.2381092e-05
  Iterations, force evaluations = 139 278

MPI task timing breakdown:
Section |  min time  |  avg time  |  max time  |%varavg| %total
---------------------------------------------------------------
Pair    | 0.42412    | 1.1686     | 1.5154     |  29.1 | 72.21
Neigh   | 0          | 0          | 0          |   0.0 |  0.00
Comm    | 0.023782   | 0.2664     | 0.81779    |  42.9 | 16.46
Output  | 0          | 0          | 0          |   0.0 |  0.00
Modify  | 1.7134e-05 | 0.0022966  | 0.0049422  |   2.3 |  0.14
Other   |            | 0.1811     |            |       | 11.19

Nlocal:        2776.45 ave        3953 max           0 min
Histogram: 8 4 4 0 4 12 8 0 30 34
Nghost:        3878.75 ave        5425 max         232 min
Histogram: 8 0 8 0 16 0 8 8 16 40
Neighs:        79213.5 ave      115259 max           0 min
Histogram: 8 4 4 0 10 6 8 8 24 32

Total # of neighbors = 8238205
Ave neighs/atom = 28.530481
Neighbor list builds = 0
Dangerous builds = 0
The dot product: -4.67966835269655e-10
Setting atom values ...
  1 settings made for x
  1 settings made for y
  1 settings made for z
Setting up cg style minimization ...
  Unit style    : metal
  Current step  : 6593
Per MPI rank memory allocation (min/avg/max) = 5.441 | 5.816 | 6.074 Mbytes
Step PotEng KinEng TotEng v_fx v_fy v_fz 
    6593   -1152448.6            0   -1152448.6   0.01829548 0.0037636255 -0.021343806 
    6919   -1152448.6            0   -1152448.6 -3.3390296e-06 -5.1075545e-07 3.9084846e-06 
Loop time of 3.7939 on 104 procs for 326 steps with 288751 atoms

99.9% CPU use with 104 MPI tasks x 1 OpenMP threads

Minimization stats:
  Stopping criterion = energy tolerance
  Energy initial, next-to-last, final = 
     -1152448.63408385  -1152448.63607079  -1152448.63607079
  Force two-norm initial, final = 0.17965457 1.5428033e-05
  Force max component initial, final = 0.15169572 3.9503936e-06
  Final line search alpha, max atom move = 1.0000000 3.9503936e-06
  Iterations, force evaluations = 326 652

MPI task timing breakdown:
Section |  min time  |  avg time  |  max time  |%varavg| %total
---------------------------------------------------------------
Pair    | 0.9959     | 2.747      | 3.586      |  44.5 | 72.41
Neigh   | 0          | 0          | 0          |   0.0 |  0.00
Comm    | 0.057902   | 0.61878    | 1.8599     |  65.7 | 16.31
Output  | 0          | 0          | 0          |   0.0 |  0.00
Modify  | 3.8659e-05 | 0.0053691  | 0.011461   |   3.5 |  0.14
Other   |            | 0.4228     |            |       | 11.14

Nlocal:        2776.45 ave        3953 max           0 min
Histogram: 8 4 4 0 4 12 8 0 30 34
Nghost:        3878.73 ave        5425 max         232 min
Histogram: 8 0 8 0 16 0 8 8 16 40
Neighs:        79213.5 ave      115255 max           0 min
Histogram: 8 4 4 0 10 6 8 8 24 32

Total # of neighbors = 8238200
Ave neighs/atom = 28.530464
Neighbor list builds = 0
Dangerous builds = 0
The dot product: -2.93796387413035e-09
Setting atom values ...
  1 settings made for x
  1 settings made for y
  1 settings made for z
Setting up cg style minimization ...
  Unit style    : metal
  Current step  : 6919
Per MPI rank memory allocation (min/avg/max) = 5.441 | 5.816 | 6.074 Mbytes
Step PotEng KinEng TotEng v_fx v_fy v_fz 
    6919   -1152448.6            0   -1152448.6  0.020961792  0.001418794 -0.024714687 
    7000   -1152448.6            0   -1152448.6 -0.00026358204 -3.1891141e-05 0.00030967915 
    7115   -1152448.6            0   -1152448.6 -2.9036911e-05 -5.6508291e-06 3.394876e-05 
Loop time of 2.26049 on 104 procs for 196 steps with 288751 atoms

99.9% CPU use with 104 MPI tasks x 1 OpenMP threads

Minimization stats:
  Stopping criterion = energy tolerance
  Energy initial, next-to-last, final = 
     -1152448.59530667  -1152448.59745093  -1152448.59745093
  Force two-norm initial, final = 0.17780149 0.0001757926
  Force max component initial, final = 0.14921675 3.9157490e-05
  Final line search alpha, max atom move = 1.0000000 3.9157490e-05
  Iterations, force evaluations = 196 392

MPI task timing breakdown:
Section |  min time  |  avg time  |  max time  |%varavg| %total
---------------------------------------------------------------
Pair    | 0.59876    | 1.6465     | 2.1367     |  34.5 | 72.84
Neigh   | 0          | 0          | 0          |   0.0 |  0.00
Comm    | 0.033535   | 0.37205    | 1.1479     |  51.4 | 16.46
Output  | 0.00011621 | 0.00011839 | 0.00024514 |   0.0 |  0.01
Modify  | 2.3905e-05 | 0.0032339  | 0.0068979  |   2.7 |  0.14
Other   |            | 0.2386     |            |       | 10.56

Nlocal:        2776.45 ave        3952 max           0 min
Histogram: 8 4 4 0 4 12 8 0 30 34
Nghost:        3878.73 ave        5425 max         232 min
Histogram: 8 0 8 0 16 0 8 8 16 40
Neighs:        79213.5 ave      115208 max           0 min
Histogram: 8 4 4 0 10 6 8 8 24 32

Total # of neighbors = 8238205
Ave neighs/atom = 28.530481
Neighbor list builds = 0
Dangerous builds = 0
The dot product: -1.64897945371949e-08
Setting atom values ...
  1 settings made for x
  1 settings made for y
  1 settings made for z
Setting up cg style minimization ...
  Unit style    : metal
  Current step  : 7115
Per MPI rank memory allocation (min/avg/max) = 5.441 | 5.816 | 6.074 Mbytes
Step PotEng KinEng TotEng v_fx v_fy v_fz 
    7115   -1152448.6            0   -1152448.6   0.02197449 -0.00050253782 -0.026107997 
    7396   -1152448.6            0   -1152448.6 6.6416261e-07 2.9194034e-07 -7.6398569e-07 
Loop time of 3.26113 on 104 procs for 281 steps with 288751 atoms

99.9% CPU use with 104 MPI tasks x 1 OpenMP threads

Minimization stats:
  Stopping criterion = energy tolerance
  Energy initial, next-to-last, final = 
     -1152448.55834538  -1152448.57009575  -1152448.57009575
  Force two-norm initial, final = 0.18450446 1.6363169e-05
  Force max component initial, final = 0.14661632 1.2007079e-06
  Final line search alpha, max atom move = 1.0000000 1.2007079e-06
  Iterations, force evaluations = 281 562

MPI task timing breakdown:
Section |  min time  |  avg time  |  max time  |%varavg| %total
---------------------------------------------------------------
Pair    | 0.86994    | 2.3755     | 3.0774     |  41.1 | 72.84
Neigh   | 1.0372e-05 | 0.0029583  | 0.0043008  |   2.2 |  0.09
Comm    | 0.047487   | 0.5415     | 1.6698     |  61.3 | 16.60
Output  | 0          | 0          | 0          |   0.0 |  0.00
Modify  | 3.2229e-05 | 0.0046213  | 0.0098701  |   3.2 |  0.14
Other   |            | 0.3366     |            |       | 10.32

Nlocal:        2776.45 ave        3951 max           0 min
Histogram: 8 4 4 0 4 12 8 0 30 34
Nghost:        3878.76 ave        5425 max         232 min
Histogram: 8 0 8 0 16 0 8 8 16 40
Neighs:        79213.4 ave      115196 max           0 min
Histogram: 8 4 4 0 10 6 8 8 24 32

Total # of neighbors = 8238195
Ave neighs/atom = 28.530447
Neighbor list builds = 1
Dangerous builds = 0
The dot product: -1.49271018383645e-08
Setting atom values ...
  1 settings made for x
  1 settings made for y
  1 settings made for z
Setting up cg style minimization ...
  Unit style    : metal
  Current step  : 7396
Per MPI rank memory allocation (min/avg/max) = 5.441 | 5.816 | 6.074 Mbytes
Step PotEng KinEng TotEng v_fx v_fy v_fz 
    7396   -1152448.5            0   -1152448.5  0.014513272 0.0020526343 -0.016423205 
    7747   -1152448.5            0   -1152448.5 -2.975407e-05 -3.9703696e-06 3.3689883e-05 
[...]

Nlocal:        2776.45 ave        3951 max           0 min
Histogram: 8 4 4 0 4 12 8 0 30 34
Nghost:        3879.12 ave        5424 max         232 min
Histogram: 8 0 8 0 16 0 8 8 16 40
Neighs:        79213.4 ave      115134 max           0 min
Histogram: 8 4 4 0 10 6 8 8 24 32

Total # of neighbors = 8238189
Ave neighs/atom = 28.530426
Neighbor list builds = 0
Dangerous builds = 0
The dot product: -1.65874400337756e-07
Setting atom values ...
  1 settings made for x
  1 settings made for y
  1 settings made for z
Setting up cg style minimization ...
  Unit style    : metal
  Current step  : 12310
Per MPI rank memory allocation (min/avg/max) = 5.441 | 5.816 | 6.074 Mbytes
Step PotEng KinEng TotEng v_fx v_fy v_fz 
   12310   -1152448.8            0   -1152448.8 0.0072095415 -0.006506577 -0.011541581 
   12479   -1152448.8            0   -1152448.8 -2.7351816e-05 -6.0893632e-05 -4.6820055e-05 
Loop time of 1.94688 on 104 procs for 169 steps with 288751 atoms

99.9% CPU use with 104 MPI tasks x 1 OpenMP threads

Minimization stats:
  Stopping criterion = energy tolerance
  Energy initial, next-to-last, final = 
     -1152448.77077873  -1152448.77189535  -1152448.77189535
  Force two-norm initial, final = 0.14082968 0.00017739471
  Force max component initial, final = 0.062687841 6.0893632e-05
  Final line search alpha, max atom move = 1.0000000 6.0893632e-05
  Iterations, force evaluations = 169 338

MPI task timing breakdown:
Section |  min time  |  avg time  |  max time  |%varavg| %total
---------------------------------------------------------------
Pair    | 0.51734    | 1.4164     | 1.8457     |  32.0 | 72.75
Neigh   | 0          | 0          | 0          |   0.0 |  0.00
Comm    | 0.029382   | 0.31703    | 0.95748    |  47.4 | 16.28
Output  | 0          | 0          | 0          |   0.0 |  0.00
Modify  | 2.1172e-05 | 0.0027768  | 0.005932   |   2.5 |  0.14
Other   |            | 0.2107     |            |       | 10.82

Nlocal:        2776.45 ave        3951 max           0 min
Histogram: 8 4 4 0 4 12 8 0 30 34
Nghost:        3879.14 ave        5424 max         232 min
Histogram: 8 0 8 0 16 0 8 8 16 40
Neighs:        79213.3 ave      115143 max           0 min
Histogram: 8 4 4 0 10 6 8 8 24 32

Total # of neighbors = 8238188
Ave neighs/atom = 28.530422
Neighbor list builds = 0
Dangerous builds = 0
The dot product: 1.36278554543127e-07
Setting atom values ...
  1 settings made for x
  1 settings made for y
  1 settings made for z
Setting up cg style minimization ...
  Unit style    : metal
  Current step  : 12479
Per MPI rank memory allocation (min/avg/max) = 5.441 | 5.816 | 6.074 Mbytes
Step PotEng KinEng TotEng v_fx v_fy v_fz 
   12479   -1152448.8            0   -1152448.8 0.0070529686 -0.0059449527 -0.010795097 
   12633   -1152448.8            0   -1152448.8 -5.9090804e-06 -8.0917743e-06 -4.7440077e-06 
Loop time of 1.81016 on 104 procs for 154 steps with 288751 atoms

99.9% CPU use with 104 MPI tasks x 1 OpenMP threads

Minimization stats:
  Stopping criterion = energy tolerance
  Energy initial, next-to-last, final = 
     -1152448.76669458  -1152448.76781041  -1152448.76781041
  Force two-norm initial, final = 0.14088351 0.00024140167
  Force max component initial, final = 0.062899312 2.3856851e-05
  Final line search alpha, max atom move = 1.0000000 2.3856851e-05
  Iterations, force evaluations = 154 308

MPI task timing breakdown:
Section |  min time  |  avg time  |  max time  |%varavg| %total
---------------------------------------------------------------
Pair    | 0.47017    | 1.3042     | 1.7037     |  31.0 | 72.05
Neigh   | 0          | 0          | 0          |   0.0 |  0.00
Comm    | 0.033556   | 0.2981     | 0.89312    |  44.7 | 16.47
Output  | 0          | 0          | 0          |   0.0 |  0.00
Modify  | 1.9344e-05 | 0.0025366  | 0.005395   |   2.4 |  0.14
Other   |            | 0.2053     |            |       | 11.34

Nlocal:        2776.45 ave        3951 max           0 min
Histogram: 8 4 4 0 4 12 8 0 30 34
Nghost:        3879.12 ave        5424 max         232 min
Histogram: 8 0 8 0 16 0 8 8 16 40
Neighs:        79213.4 ave      115143 max           0 min
Histogram: 8 4 4 0 10 6 8 8 24 32

Total # of neighbors = 8238190
Ave neighs/atom = 28.530429
Neighbor list builds = 0
Dangerous builds = 0
The dot product: 8.31983909995673e-09
Setting atom values ...
  1 settings made for x
  1 settings made for y
  1 settings made for z
Setting up cg style minimization ...
  Unit style    : metal
  Current step  : 12633
Per MPI rank memory allocation (min/avg/max) = 5.441 | 5.816 | 6.074 Mbytes
Step PotEng KinEng TotEng v_fx v_fy v_fz 
   12633   -1152448.8            0   -1152448.8 0.0069507504 -0.0052054698 -0.0099050896 
   12792   -1152448.8            0   -1152448.8 4.0443577e-05 9.3319793e-05 7.228661e-05 
Loop time of 1.84986 on 104 procs for 159 steps with 288751 atoms

99.9% CPU use with 104 MPI tasks x 1 OpenMP threads

Minimization stats:
  Stopping criterion = energy tolerance
  Energy initial, next-to-last, final = 
     -1152448.76163338  -1152448.76275412  -1152448.76275412
  Force two-norm initial, final = 0.14102864 0.00025754648
  Force max component initial, final = 0.063098355 9.3319793e-05
  Final line search alpha, max atom move = 1.0000000 9.3319793e-05
  Iterations, force evaluations = 159 318

MPI task timing breakdown:
Section |  min time  |  avg time  |  max time  |%varavg| %total
---------------------------------------------------------------
Pair    | 0.48684    | 1.3341     | 1.7379     |  31.0 | 72.12
Neigh   | 0          | 0          | 0          |   0.0 |  0.00
Comm    | 0.027708   | 0.29867    | 0.89944    |  45.9 | 16.15
Output  | 0          | 0          | 0          |   0.0 |  0.00
Modify  | 2.0117e-05 | 0.0026128  | 0.0055631  |   2.4 |  0.14
Other   |            | 0.2145     |            |       | 11.60

Nlocal:        2776.45 ave        3951 max           0 min
Histogram: 8 4 4 0 4 12 8 0 30 34
Nghost:        3879.12 ave        5424 max         232 min
Histogram: 8 0 8 0 16 0 8 8 16 40
Neighs:        79213.4 ave      115142 max           0 min
Histogram: 8 4 4 0 10 6 8 8 24 32

Total # of neighbors = 8238189
Ave neighs/atom = 28.530426
Neighbor list builds = 0
Dangerous builds = 0
The dot product: -1.86896076621813e-07
Setting atom values ...
  1 settings made for x
  1 settings made for y
  1 settings made for z
Setting up cg style minimization ...
  Unit style    : metal
  Current step  : 12792
Per MPI rank memory allocation (min/avg/max) = 5.441 | 5.816 | 6.074 Mbytes
Step PotEng KinEng TotEng v_fx v_fy v_fz 
   12792   -1152448.8            0   -1152448.8 0.0068427394 -0.0044334532 -0.0089847093 
   12987   -1152448.8            0   -1152448.8 4.6286756e-06 1.2748895e-05 1.0418837e-05 
Loop time of 2.26221 on 104 procs for 195 steps with 288751 atoms

99.9% CPU use with 104 MPI tasks x 1 OpenMP threads

Minimization stats:
  Stopping criterion = energy tolerance
  Energy initial, next-to-last, final = 
     -1152448.75555345   -1152448.7566849   -1152448.7566849
  Force two-norm initial, final = 0.14126744 8.2050316e-05
  Force max component initial, final = 0.063230152 2.2550799e-05
  Final line search alpha, max atom move = 1.0000000 2.2550799e-05
  Iterations, force evaluations = 195 390

MPI task timing breakdown:
Section |  min time  |  avg time  |  max time  |%varavg| %total
---------------------------------------------------------------
Pair    | 0.59721    | 1.6406     | 2.1302     |  34.5 | 72.52
Neigh   | 0          | 0          | 0          |   0.0 |  0.00
Comm    | 0.036423   | 0.36684    | 1.1166     |  51.2 | 16.22
Output  | 0          | 0          | 0          |   0.0 |  0.00
Modify  | 2.3449e-05 | 0.0032045  | 0.0068367  |   2.7 |  0.14
Other   |            | 0.2515     |            |       | 11.12

Nlocal:        2776.45 ave        3953 max           0 min
Histogram: 8 4 4 0 4 12 8 0 30 34
Nghost:        3879.12 ave        5424 max         232 min
Histogram: 8 0 8 0 16 0 8 8 16 40
Neighs:        79213.3 ave      115193 max           0 min
Histogram: 8 4 4 0 10 6 8 8 24 32

Total # of neighbors = 8238187
Ave neighs/atom = 28.530419
Neighbor list builds = 0
Dangerous builds = 0
The dot product: -2.80857781379042e-08
Setting atom values ...
  1 settings made for x
  1 settings made for y
  1 settings made for z
Setting up cg style minimization ...
  Unit style    : metal
  Current step  : 12987
Per MPI rank memory allocation (min/avg/max) = 5.441 | 5.816 | 6.074 Mbytes
Step PotEng KinEng TotEng v_fx v_fy v_fz 
   12987   -1152448.7            0   -1152448.7 0.0070659461 -0.0028389166 -0.007421112 
   13000   -1152448.7            0   -1152448.7 0.0012432283  0.002108375 0.0014171495 
   13175   -1152448.7            0   -1152448.7 1.892268e-07 -3.0245051e-06 -3.2772316e-06 
Loop time of 2.17139 on 104 procs for 188 steps with 288751 atoms

99.9% CPU use with 104 MPI tasks x 1 OpenMP threads

Minimization stats:
  Stopping criterion = energy tolerance
  Energy initial, next-to-last, final = 
     -1152448.74843094  -1152448.74955331  -1152448.74955331
  Force two-norm initial, final = 0.14137593 0.00010798289
  Force max component initial, final = 0.063334959 2.4254293e-05
  Final line search alpha, max atom move = 1.0000000 2.4254293e-05
  Iterations, force evaluations = 188 376

MPI task timing breakdown:
Section |  min time  |  avg time  |  max time  |%varavg| %total
---------------------------------------------------------------
Pair    | 0.57335    | 1.5776     | 2.0576     |  33.9 | 72.65
Neigh   | 0          | 0          | 0          |   0.0 |  0.00
Comm    | 0.033696   | 0.35106    | 1.0562     |  50.0 | 16.17
Output  | 0.00010817 | 0.00011013 | 0.00019341 |   0.0 |  0.01
Modify  | 2.3151e-05 | 0.0030997  | 0.0065788  |   2.6 |  0.14
Other   |            | 0.2395     |            |       | 11.03

Nlocal:        2776.45 ave        3953 max           0 min
Histogram: 8 4 4 0 4 12 8 0 30 34
Nghost:        3879.12 ave        5424 max         232 min
Histogram: 8 0 8 0 16 0 8 8 16 40
Neighs:        79213.4 ave      115194 max           0 min
Histogram: 8 4 4 0 10 6 8 8 24 32

Total # of neighbors = 8238190
Ave neighs/atom = 28.530429
Neighbor list builds = 0
Dangerous builds = 0
The dot product: 9.9995582419467e-09
Setting atom values ...
  1 settings made for x
  1 settings made for y
  1 settings made for z
Setting up cg style minimization ...
  Unit style    : metal
  Current step  : 13175
Per MPI rank memory allocation (min/avg/max) = 5.441 | 5.816 | 6.074 Mbytes
Step PotEng KinEng TotEng v_fx v_fy v_fz 
   13175   -1152448.7            0   -1152448.7 0.0085273344  0.001651038 -0.0036319481 
   13393   -1152448.7            0   -1152448.7 4.1111624e-06 8.8174656e-06 6.600291e-06 
Loop time of 2.52031 on 104 procs for 218 steps with 288751 atoms

99.9% CPU use with 104 MPI tasks x 1 OpenMP threads

Minimization stats:
  Stopping criterion = energy tolerance
  Energy initial, next-to-last, final = 
     -1152448.74026362  -1152448.74135734  -1152448.74135734
  Force two-norm initial, final = 0.141395 4.2220848e-05
  Force max component initial, final = 0.064172413 8.8174656e-06
  Final line search alpha, max atom move = 1.0000000 8.8174656e-06
  Iterations, force evaluations = 218 436

MPI task timing breakdown:
Section |  min time  |  avg time  |  max time  |%varavg| %total
---------------------------------------------------------------
Pair    | 0.66819    | 1.8298     | 2.3831     |  36.4 | 72.60
Neigh   | 0          | 0          | 0          |   0.0 |  0.00
Comm    | 0.037505   | 0.4125     | 1.2388     |  53.6 | 16.37
Output  | 0          | 0          | 0          |   0.0 |  0.00
Modify  | 2.722e-05  | 0.0035839  | 0.0076504  |   2.8 |  0.14
Other   |            | 0.2744     |            |       | 10.89

Nlocal:        2776.45 ave        3953 max           0 min
Histogram: 8 4 4 0 4 12 8 0 30 34
Nghost:        3879.12 ave        5424 max         232 min
Histogram: 8 0 8 0 16 0 8 8 16 40
Neighs:        79213.4 ave      115194 max           0 min
Histogram: 8 4 4 0 10 6 8 8 24 32

Total # of neighbors = 8238193
Ave neighs/atom = 28.530440
Neighbor list builds = 0
Dangerous builds = 0
The dot product: -2.96361531433271e-09
Setting atom values ...
  1 settings made for x
  1 settings made for y
  1 settings made for z
Setting up cg style minimization ...
  Unit style    : metal
  Current step  : 13393
Per MPI rank memory allocation (min/avg/max) = 5.441 | 5.816 | 6.074 Mbytes
Step PotEng KinEng TotEng v_fx v_fy v_fz 
   13393   -1152448.7            0   -1152448.7  0.010246481 0.0067822997 0.00065066845 
   13552   -1152448.7            0   -1152448.7 -8.1027504e-06 -1.2401333e-05 -7.8298306e-06 
Loop time of 1.83383 on 104 procs for 159 steps with 288751 atoms

99.9% CPU use with 104 MPI tasks x 1 OpenMP threads

Minimization stats:
  Stopping criterion = energy tolerance
  Energy initial, next-to-last, final = 
     -1152448.73111399   -1152448.7322028   -1152448.7322028
  Force two-norm initial, final = 0.14241753 0.00021973523
  Force max component initial, final = 0.065311076 5.1459947e-05
  Final line search alpha, max atom move = 1.0000000 5.1459947e-05
  Iterations, force evaluations = 159 318

MPI task timing breakdown:
Section |  min time  |  avg time  |  max time  |%varavg| %total
---------------------------------------------------------------
Pair    | 0.48915    | 1.3332     | 1.7387     |  31.0 | 72.70
Neigh   | 0          | 0          | 0          |   0.0 |  0.00
Comm    | 0.028542   | 0.29682    | 0.89125    |  45.8 | 16.19
Output  | 0          | 0          | 0          |   0.0 |  0.00
Modify  | 1.8854e-05 | 0.0026196  | 0.0055923  |   2.4 |  0.14
Other   |            | 0.2012     |            |       | 10.97

Nlocal:        2776.45 ave        3953 max           0 min
Histogram: 8 4 4 0 4 12 8 0 30 34
Nghost:        3879.12 ave        5424 max         232 min
Histogram: 8 0 8 0 16 0 8 8 16 40
Neighs:        79213.4 ave      115184 max           0 min
Histogram: 8 4 4 0 10 6 8 8 24 32

Total # of neighbors = 8238193
Ave neighs/atom = 28.530440
Neighbor list builds = 0
Dangerous builds = 0
The dot product: -2.42172700989918e-08
Setting atom values ...
  1 settings made for x
  1 settings made for y
  1 settings made for z
Setting up cg style minimization ...
  Unit style    : metal
  Current step  : 13552
Per MPI rank memory allocation (min/avg/max) = 5.441 | 5.816 | 6.074 Mbytes
Step PotEng KinEng TotEng v_fx v_fy v_fz 
   13552   -1152448.7            0   -1152448.7  0.010250111 0.0079285785 0.0018684531 
   13719   -1152448.7            0   -1152448.7 1.5460525e-05 3.4973015e-05 2.6739405e-05 
Loop time of 1.92709 on 104 procs for 167 steps with 288751 atoms

99.9% CPU use with 104 MPI tasks x 1 OpenMP threads

Minimization stats:
  Stopping criterion = energy tolerance
  Energy initial, next-to-last, final = 
     -1152448.72105681  -1152448.72215029  -1152448.72215029
  Force two-norm initial, final = 0.14299647 0.00017663328
  Force max component initial, final = 0.066480501 3.4973015e-05
  Final line search alpha, max atom move = 1.0000000 3.4973015e-05
  Iterations, force evaluations = 167 334

MPI task timing breakdown:
Section |  min time  |  avg time  |  max time  |%varavg| %total
---------------------------------------------------------------
Pair    | 0.51203    | 1.4056     | 1.8256     |  32.0 | 72.94
Neigh   | 0          | 0          | 0          |   0.0 |  0.00
Comm    | 0.029852   | 0.31691    | 0.95211    |  47.2 | 16.44
Output  | 0          | 0          | 0          |   0.0 |  0.00
Modify  | 2.1047e-05 | 0.0027478  | 0.0059452  |   2.5 |  0.14
Other   |            | 0.2018     |            |       | 10.47

Nlocal:        2776.45 ave        3953 max           0 min
Histogram: 8 4 4 0 4 12 8 0 30 34
Nghost:        3879.16 ave        5425 max         232 min
Histogram: 8 0 8 0 16 0 8 8 16 40
Neighs:        79213.4 ave      115176 max           0 min
Histogram: 8 4 4 0 10 6 8 8 24 32

Total # of neighbors = 8238193
Ave neighs/atom = 28.530440
Neighbor list builds = 0
Dangerous builds = 0
The dot product: 5.50329643543385e-08
Setting atom values ...
  1 settings made for x
  1 settings made for y
  1 settings made for z
Setting up cg style minimization ...
  Unit style    : metal
  Current step  : 13719
Per MPI rank memory allocation (min/avg/max) = 5.441 | 5.816 | 6.074 Mbytes
Step PotEng KinEng TotEng v_fx v_fy v_fz 
   13719   -1152448.7            0   -1152448.7 0.0098384595 0.0079634437 0.0021892426 
   14000   -1152448.7            0   -1152448.7 -9.5096893e-08 -1.0444426e-07 -4.97218e-08 
   14039   -1152448.7            0   -1152448.7 3.3065452e-08 4.603343e-08 2.7391866e-08 
Loop time of 3.69504 on 104 procs for 320 steps with 288751 atoms

99.9% CPU use with 104 MPI tasks x 1 OpenMP threads

Minimization stats:
  Stopping criterion = energy tolerance
  Energy initial, next-to-last, final = 
     -1152448.71002696  -1152448.71112663  -1152448.71112663
  Force two-norm initial, final = 0.14338749 1.3542475e-06
  Force max component initial, final = 0.067540046 1.7258157e-07
  Final line search alpha, max atom move = 1.0000000 1.7258157e-07
  Iterations, force evaluations = 320 640

MPI task timing breakdown:
Section |  min time  |  avg time  |  max time  |%varavg| %total
---------------------------------------------------------------
Pair    | 0.98118    | 2.6806     | 3.4952     |  43.9 | 72.55
Neigh   | 0          | 0          | 0          |   0.0 |  0.00
Comm    | 0.057332   | 0.60155    | 1.8131     |  65.0 | 16.28
Output  | 0.00019315 | 0.00020076 | 0.00037464 |   0.0 |  0.01
Modify  | 3.986e-05  | 0.0052556  | 0.011212   |   3.4 |  0.14
Other   |            | 0.4074     |            |       | 11.03

Nlocal:        2776.45 ave        3953 max           0 min
Histogram: 8 4 4 0 4 12 8 0 30 34
Nghost:        3879.16 ave        5426 max         232 min
Histogram: 8 0 8 0 16 0 8 8 16 40
Neighs:        79213.4 ave      115183 max           0 min
Histogram: 8 4 4 0 10 6 8 8 24 32

Total # of neighbors = 8238197
Ave neighs/atom = 28.530454
Neighbor list builds = 0
Dangerous builds = 0
The dot product: 9.4879857517759e-11
Setting up cg style minimization ...
  Unit style    : metal
  Current step  : 14039
Per MPI rank memory allocation (min/avg/max) = 5.441 | 5.816 | 6.074 Mbytes
Step PotEng KinEng TotEng v_fx v_fy v_fz 
   14039   -1152448.7            0   -1152448.7   0.22741659   -0.3819603   0.36738331 
   14298   -1152448.8            0   -1152448.8 1.5857084e-05 3.4917806e-05 2.7460588e-05 
Loop time of 3.02419 on 104 procs for 259 steps with 288751 atoms

99.9% CPU use with 104 MPI tasks x 1 OpenMP threads

Minimization stats:
  Stopping criterion = energy tolerance
  Energy initial, next-to-last, final = 
     -1152448.71112663  -1152448.77903516  -1152448.77903516
  Force two-norm initial, final = 0.57669963 0.00011639685
  Force max component initial, final = 0.3819603 3.4917806e-05
  Final line search alpha, max atom move = 1.0000000 3.4917806e-05
  Iterations, force evaluations = 259 518

MPI task timing breakdown:
Section |  min time  |  avg time  |  max time  |%varavg| %total
---------------------------------------------------------------
Pair    | 0.80295    | 2.1865     | 2.8305     |  39.4 | 72.30
Neigh   | 2.2132e-05 | 0.0059196  | 0.0086067  |   3.2 |  0.20
Comm    | 0.046204   | 0.49465    | 1.4703     |  58.7 | 16.36
Output  | 0          | 0          | 0          |   0.0 |  0.00
Modify  | 3.049e-05  | 0.0027742  | 0.0071405  |   3.3 |  0.09
Other   |            | 0.3344     |            |       | 11.06

Nlocal:        2776.45 ave        3952 max           0 min
Histogram: 8 4 4 0 4 12 8 0 30 34
Nghost:        3879.16 ave        5427 max         232 min
Histogram: 8 0 8 0 16 0 8 8 16 40
Neighs:        79213.5 ave      115161 max           0 min
Histogram: 8 4 4 0 10 6 8 8 24 32

Total # of neighbors = 8238205
Ave neighs/atom = 28.530481
Neighbor list builds = 2
Dangerous builds = 1
