LAMMPS (29 Oct 2020)
OMP_NUM_THREADS environment is not set. Defaulting to 1 thread. (../comm.cpp:94)
  using 1 OpenMP thread(s) per MPI task
OMP_NUM_THREADS environment is not set. Defaulting to 1 thread. (../comm.cpp:94)
  using 1 OpenMP thread(s) per MPI task
Reading data file ...
  orthogonal box = (-122.39241 -121.13707 -37.090501) to (122.39241 121.13707 37.090501)
  13 by 4 by 2 MPI processor grid
  reading atoms ...
  288751 atoms
  read_data CPU = 0.385 seconds
199981 atoms in group inner
88770 atoms in group outer
1 atoms in group carbon
Neighbor list info ...
  update every 1 steps, delay 0 steps, check yes
  max neighbors/atom: 2000, page size: 100000
  master list distance cutoff = 5.6
  ghost atom cutoff = 5.6
  binsize = 2.8, bins = 88 87 27
  1 neighbor lists, perpetual/occasional/extra = 1 0 0
  (1) pair eam/alloy, perpetual
      attributes: half, newton on
      pair build: half/bin/atomonly/newton
      stencil: half/bin/3d/newton
      bin: standard
Setting up cg style minimization ...
  Unit style    : metal
  Current step  : 0
Per MPI rank memory allocation (min/avg/max) = 5.441 | 5.816 | 6.074 Mbytes
Step v_fx v_fy v_fz PotEng KinEng TotEng 
       0    26.338656    15.634631   -51.743228   -1152432.9            0   -1152432.9 
     177 1.0703729e-05 1.4438762e-05 4.9794746e-06   -1152449.5            0   -1152449.5 
Loop time of 2.08505 on 104 procs for 177 steps with 288751 atoms

99.8% CPU use with 104 MPI tasks x 1 OpenMP threads

Minimization stats:
  Stopping criterion = energy tolerance
  Energy initial, next-to-last, final = 
     -1152432.86981749  -1152449.45035261  -1152449.45035261
  Force two-norm initial, final = 89.914731 6.4664397e-05
  Force max component initial, final = 58.806435 1.5158808e-05
  Final line search alpha, max atom move = 1.0000000 1.5158808e-05
  Iterations, force evaluations = 177 345

MPI task timing breakdown:
Section |  min time  |  avg time  |  max time  |%varavg| %total
---------------------------------------------------------------
Pair    | 0.55412    | 1.464      | 1.9009     |  31.9 | 70.22
Neigh   | 5.1467e-05 | 0.014672   | 0.021399   |   5.0 |  0.70
Comm    | 0.034924   | 0.33671    | 0.98534    |  46.4 | 16.15
Output  | 0          | 0          | 0          |   0.0 |  0.00
Modify  | 2.0668e-05 | 0.0018715  | 0.0047778  |   2.7 |  0.09
Other   |            | 0.2678     |            |       | 12.84

Nlocal:        2776.45 ave        3961 max           0 min
Histogram: 8 4 4 0 6 10 8 2 28 34
Nghost:        3879.01 ave        5425 max         232 min
Histogram: 8 0 8 0 16 0 8 8 16 40
Neighs:        79213.5 ave      115456 max           0 min
Histogram: 8 4 4 0 10 6 8 8 24 32

Total # of neighbors = 8238207
Ave neighs/atom = 28.530488
Neighbor list builds = 5
Dangerous builds = 0
Setting atom values ...
  1 settings made for x
  1 settings made for y
  1 settings made for z
Setting up cg style minimization ...
  Unit style    : metal
  Current step  : 177
Per MPI rank memory allocation (min/avg/max) = 5.441 | 5.816 | 6.074 Mbytes
Step PotEng KinEng TotEng v_fx v_fy v_fz 
     177   -1152449.4            0   -1152449.4 0.0074218781 -0.015050958 -0.024554906 
     338   -1152449.5            0   -1152449.5 -2.1365149e-06 -4.6594821e-05 -3.6497538e-05 
Loop time of 1.91688 on 104 procs for 161 steps with 288751 atoms

99.9% CPU use with 104 MPI tasks x 1 OpenMP threads

Minimization stats:
  Stopping criterion = energy tolerance
  Energy initial, next-to-last, final = 
      -1152449.4496529   -1152449.4500793   -1152449.4500793
  Force two-norm initial, final = 0.094084245 0.00018268599
  Force max component initial, final = 0.043962061 4.7269286e-05
  Final line search alpha, max atom move = 1.0000000 4.7269286e-05
  Iterations, force evaluations = 161 322

MPI task timing breakdown:
Section |  min time  |  avg time  |  max time  |%varavg| %total
---------------------------------------------------------------
Pair    | 0.49186    | 1.3666     | 1.778      |  31.6 | 71.29
Neigh   | 0          | 0          | 0          |   0.0 |  0.00
Comm    | 0.032922   | 0.31193    | 0.92188    |  45.5 | 16.27
Output  | 0          | 0          | 0          |   0.0 |  0.00
Modify  | 1.9617e-05 | 0.0026693  | 0.0056895  |   2.4 |  0.14
Other   |            | 0.2357     |            |       | 12.29

Nlocal:        2776.45 ave        3961 max           0 min
Histogram: 8 4 4 0 6 10 8 2 28 34
Nghost:        3879.01 ave        5424 max         232 min
Histogram: 8 0 8 0 16 0 8 8 16 40
Neighs:        79213.4 ave      115455 max           0 min
Histogram: 8 4 4 0 10 6 8 8 24 32

Total # of neighbors = 8238197
Ave neighs/atom = 28.530454
Neighbor list builds = 0
Dangerous builds = 0
Setting atom values ...
  1 settings made for x
  1 settings made for y
  1 settings made for z
Setting up cg style minimization ...
  Unit style    : metal
  Current step  : 338
Per MPI rank memory allocation (min/avg/max) = 5.441 | 5.816 | 6.074 Mbytes
Step PotEng KinEng TotEng v_fx v_fy v_fz 
     338   -1152449.4            0   -1152449.4 0.0084267748 -0.017037892  -0.03889355 
     508   -1152449.4            0   -1152449.4 -1.7178354e-05 -4.6634352e-05 -2.4425648e-05 
Loop time of 2.03902 on 104 procs for 170 steps with 288751 atoms

99.9% CPU use with 104 MPI tasks x 1 OpenMP threads

Minimization stats:
  Stopping criterion = energy tolerance
  Energy initial, next-to-last, final = 
      -1152449.4469633  -1152449.44825574  -1152449.44825574
  Force two-norm initial, final = 0.16107205 0.00021686439
  Force max component initial, final = 0.087276141 5.8313049e-05
  Final line search alpha, max atom move = 1.0000000 5.8313049e-05
  Iterations, force evaluations = 170 340

MPI task timing breakdown:
Section |  min time  |  avg time  |  max time  |%varavg| %total
---------------------------------------------------------------
Pair    | 0.52296    | 1.4344     | 1.8841     |  32.3 | 70.35
Neigh   | 0          | 0          | 0          |   0.0 |  0.00
Comm    | 0.031933   | 0.33078    | 0.96949    |  46.1 | 16.22
Output  | 0          | 0          | 0          |   0.0 |  0.00
Modify  | 2.2156e-05 | 0.0028171  | 0.0059805  |   2.5 |  0.14
Other   |            | 0.271      |            |       | 13.29

Nlocal:        2776.45 ave        3961 max           0 min
Histogram: 8 4 4 0 6 10 8 2 28 34
Nghost:        3878.99 ave        5424 max         232 min
Histogram: 8 0 8 0 16 0 8 8 16 40
Neighs:        79213.4 ave      115455 max           0 min
Histogram: 8 4 4 0 10 6 8 8 24 32

Total # of neighbors = 8238196
Ave neighs/atom = 28.530450
Neighbor list builds = 0
Dangerous builds = 0
The dot product: 1.03744259083399e-07
Setting atom values ...
  1 settings made for x
  1 settings made for y
  1 settings made for z
Setting up cg style minimization ...
  Unit style    : metal
  Current step  : 508
Per MPI rank memory allocation (min/avg/max) = 5.441 | 5.816 | 6.074 Mbytes
Step PotEng KinEng TotEng v_fx v_fy v_fz 
     508   -1152449.4            0   -1152449.4 0.0058497889 -0.0096678764 -0.031361012 
     763   -1152449.4            0   -1152449.4 2.0277414e-07 1.340568e-06 1.7549978e-06 
Loop time of 3.00171 on 104 procs for 255 steps with 288751 atoms

99.9% CPU use with 104 MPI tasks x 1 OpenMP threads

Minimization stats:
  Stopping criterion = energy tolerance
  Energy initial, next-to-last, final = 
     -1152449.44358835  -1152449.44482277  -1152449.44482277
  Force two-norm initial, final = 0.15523164 5.5928666e-06
  Force max component initial, final = 0.092362887 1.7549978e-06
  Final line search alpha, max atom move = 1.0000000 1.7549978e-06
  Iterations, force evaluations = 255 510

MPI task timing breakdown:
Section |  min time  |  avg time  |  max time  |%varavg| %total
---------------------------------------------------------------
Pair    | 0.78108    | 2.1583     | 2.8009     |  39.6 | 71.90
Neigh   | 0          | 0          | 0          |   0.0 |  0.00
Comm    | 0.051062   | 0.49105    | 1.4762     |  58.0 | 16.36
Output  | 0          | 0          | 0          |   0.0 |  0.00
Modify  | 3.1195e-05 | 0.004219   | 0.0090458  |   3.1 |  0.14
Other   |            | 0.3481     |            |       | 11.60

Nlocal:        2776.45 ave        3961 max           0 min
Histogram: 8 4 4 0 6 10 8 2 28 34
Nghost:        3878.99 ave        5424 max         232 min
Histogram: 8 0 8 0 16 0 8 8 16 40
Neighs:        79213.4 ave      115457 max           0 min
Histogram: 8 4 4 0 10 6 8 8 24 32

Total # of neighbors = 8238193
Ave neighs/atom = 28.530440
Neighbor list builds = 0
Dangerous builds = 0
The dot product: -4.46456490116107e-09
Setting atom values ...
  1 settings made for x
  1 settings made for y
  1 settings made for z
Setting up cg style minimization ...
  Unit style    : metal
  Current step  : 763
Per MPI rank memory allocation (min/avg/max) = 5.441 | 5.816 | 6.074 Mbytes
Step PotEng KinEng TotEng v_fx v_fy v_fz 
     763   -1152449.4            0   -1152449.4 0.0022954146 -0.0090035899 -0.024866395 
     890   -1152449.4            0   -1152449.4 8.8895886e-06 1.763182e-05 8.8065668e-06 
Loop time of 1.53104 on 104 procs for 127 steps with 288751 atoms

99.9% CPU use with 104 MPI tasks x 1 OpenMP threads

Minimization stats:
  Stopping criterion = energy tolerance
  Energy initial, next-to-last, final = 
     -1152449.43869525  -1152449.43988066  -1152449.43988066
  Force two-norm initial, final = 0.15169336 0.0001398542
  Force max component initial, final = 0.096006971 2.1192788e-05
  Final line search alpha, max atom move = 1.0000000 2.1192788e-05
  Iterations, force evaluations = 127 254

MPI task timing breakdown:
Section |  min time  |  avg time  |  max time  |%varavg| %total
---------------------------------------------------------------
Pair    | 0.38686    | 1.0693     | 1.3997     |  27.9 | 69.84
Neigh   | 0          | 0          | 0          |   0.0 |  0.00
Comm    | 0.025266   | 0.24471    | 0.71902    |  40.0 | 15.98
Output  | 0          | 0          | 0          |   0.0 |  0.00
Modify  | 1.5644e-05 | 0.0021063  | 0.004486   |   2.1 |  0.14
Other   |            | 0.2149     |            |       | 14.04

Nlocal:        2776.45 ave        3960 max           0 min
Histogram: 8 4 4 0 4 12 8 2 28 34
Nghost:        3878.99 ave        5424 max         232 min
Histogram: 8 0 8 0 16 0 8 8 16 40
Neighs:        79213.4 ave      115434 max           0 min
Histogram: 8 4 4 0 10 6 8 8 24 32

Total # of neighbors = 8238194
Ave neighs/atom = 28.530443
Neighbor list builds = 0
Dangerous builds = 0
The dot product: -3.04547983978429e-08
Setting atom values ...
  1 settings made for x
  1 settings made for y
  1 settings made for z
Setting up cg style minimization ...
  Unit style    : metal
  Current step  : 890
Per MPI rank memory allocation (min/avg/max) = 5.441 | 5.816 | 6.074 Mbytes
Step PotEng KinEng TotEng v_fx v_fy v_fz 
     890   -1152449.4            0   -1152449.4 -0.0028704516 -0.012822558 -0.019478075 
    1000   -1152449.4            0   -1152449.4 -1.2822387e-05 -3.0101486e-05 -2.5755942e-05 
    1004   -1152449.4            0   -1152449.4 4.4732524e-06 4.9690385e-06 -3.4835159e-06 
Loop time of 1.3404 on 104 procs for 114 steps with 288751 atoms

99.9% CPU use with 104 MPI tasks x 1 OpenMP threads

Minimization stats:
  Stopping criterion = energy tolerance
  Energy initial, next-to-last, final = 
     -1152449.43236544   -1152449.4335319   -1152449.4335319
  Force two-norm initial, final = 0.15011046 0.00022332802
  Force max component initial, final = 0.099033982 3.4867308e-05
  Final line search alpha, max atom move = 1.0000000 3.4867308e-05
  Iterations, force evaluations = 114 228

MPI task timing breakdown:
Section |  min time  |  avg time  |  max time  |%varavg| %total
---------------------------------------------------------------
Pair    | 0.34719    | 0.96428    | 1.255      |  26.5 | 71.94
Neigh   | 0          | 0          | 0          |   0.0 |  0.00
Comm    | 0.020537   | 0.21746    | 0.64637    |  38.7 | 16.22
Output  | 0.00026393 | 0.00026718 | 0.0004066  |   0.0 |  0.02
Modify  | 1.4066e-05 | 0.0018876  | 0.0040261  |   2.0 |  0.14
Other   |            | 0.1565     |            |       | 11.68

Nlocal:        2776.45 ave        3960 max           0 min
Histogram: 8 4 4 0 4 12 8 2 28 34
Nghost:        3878.99 ave        5424 max         232 min
Histogram: 8 0 8 0 16 0 8 8 16 40
Neighs:        79213.4 ave      115434 max           0 min
Histogram: 8 4 4 0 10 6 8 8 24 32

Total # of neighbors = 8238194
Ave neighs/atom = 28.530443
Neighbor list builds = 0
Dangerous builds = 0
The dot product: -1.24130762813413e-08
Setting atom values ...
  1 settings made for x
  1 settings made for y
  1 settings made for z
Setting up cg style minimization ...
  Unit style    : metal
  Current step  : 1004
Per MPI rank memory allocation (min/avg/max) = 5.441 | 5.816 | 6.074 Mbytes
Step PotEng KinEng TotEng v_fx v_fy v_fz 
    1004   -1152449.4            0   -1152449.4 -0.0078526309 -0.016504715 -0.014568692 
    1151   -1152449.4            0   -1152449.4 8.2385125e-06 2.219202e-05 2.7589643e-05 
Loop time of 1.71691 on 104 procs for 147 steps with 288751 atoms

99.9% CPU use with 104 MPI tasks x 1 OpenMP threads

Minimization stats:
  Stopping criterion = energy tolerance
  Energy initial, next-to-last, final = 
     -1152449.42472276  -1152449.42589691  -1152449.42589691
  Force two-norm initial, final = 0.14952178 0.00017473154
  Force max component initial, final = 0.1016788 2.7589643e-05
  Final line search alpha, max atom move = 1.0000000 2.7589643e-05
  Iterations, force evaluations = 147 294

MPI task timing breakdown:
Section |  min time  |  avg time  |  max time  |%varavg| %total
---------------------------------------------------------------
Pair    | 0.44984    | 1.2343     | 1.6023     |  29.8 | 71.89
Neigh   | 0          | 0          | 0          |   0.0 |  0.00
Comm    | 0.03091    | 0.2788     | 0.83565    |  43.9 | 16.24
Output  | 0          | 0          | 0          |   0.0 |  0.00
Modify  | 1.808e-05  | 0.002436   | 0.0051881  |   2.3 |  0.14
Other   |            | 0.2014     |            |       | 11.73

Nlocal:        2776.45 ave        3959 max           0 min
Histogram: 8 4 4 0 4 12 8 2 28 34
Nghost:        3878.99 ave        5424 max         232 min
Histogram: 8 0 8 0 16 0 8 8 16 40
Neighs:        79213.4 ave      115401 max           0 min
Histogram: 8 4 4 0 10 6 8 8 24 32

Total # of neighbors = 8238194
Ave neighs/atom = 28.530443
Neighbor list builds = 0
Dangerous builds = 0
The dot product: -1.37484073689623e-07
Setting atom values ...
  1 settings made for x
  1 settings made for y
  1 settings made for z
Setting up cg style minimization ...
  Unit style    : metal
  Current step  : 1151
Per MPI rank memory allocation (min/avg/max) = 5.441 | 5.816 | 6.074 Mbytes
Step PotEng KinEng TotEng v_fx v_fy v_fz 
    1151   -1152449.4            0   -1152449.4 -0.010862101 -0.017275912 -0.010300324 
    1288   -1152449.4            0   -1152449.4 -6.7943203e-06 -1.9041636e-06 1.8480859e-05 
Loop time of 1.61161 on 104 procs for 137 steps with 288751 atoms

99.9% CPU use with 104 MPI tasks x 1 OpenMP threads

Minimization stats:
  Stopping criterion = energy tolerance
  Energy initial, next-to-last, final = 
     -1152449.41580173  -1152449.41698567  -1152449.41698567
  Force two-norm initial, final = 0.14932176 0.00014432416
  Force max component initial, final = 0.10382829 2.1440755e-05
  Final line search alpha, max atom move = 1.0000000 2.1440755e-05
  Iterations, force evaluations = 137 274

MPI task timing breakdown:
Section |  min time  |  avg time  |  max time  |%varavg| %total
---------------------------------------------------------------
Pair    | 0.41649    | 1.1563     | 1.5049     |  29.0 | 71.75
Neigh   | 0          | 0          | 0          |   0.0 |  0.00
Comm    | 0.024832   | 0.26129    | 0.78184    |  42.5 | 16.21
Output  | 0          | 0          | 0          |   0.0 |  0.00
Modify  | 1.719e-05  | 0.0022703  | 0.0048314  |   2.2 |  0.14
Other   |            | 0.1917     |            |       | 11.90

Nlocal:        2776.45 ave        3959 max           0 min
Histogram: 8 4 4 0 4 12 8 2 28 34
Nghost:        3878.99 ave        5424 max         232 min
Histogram: 8 0 8 0 16 0 8 8 16 40
Neighs:        79213.4 ave      115405 max           0 min
Histogram: 8 4 4 0 10 6 8 8 24 32

Total # of neighbors = 8238193
Ave neighs/atom = 28.530440
Neighbor list builds = 0
Dangerous builds = 0
The dot product: 1.47982780950853e-08
Setting atom values ...
  1 settings made for x
  1 settings made for y
  1 settings made for z
Setting up cg style minimization ...
  Unit style    : metal
  Current step  : 1288
Per MPI rank memory allocation (min/avg/max) = 5.441 | 5.816 | 6.074 Mbytes
Step PotEng KinEng TotEng v_fx v_fy v_fz 
    1288   -1152449.4            0   -1152449.4  -0.01165628 -0.015626068 -0.0070119577 
    1458   -1152449.4            0   -1152449.4 -2.874057e-06 -4.1836046e-06 -2.7404362e-06 
Loop time of 1.98881 on 104 procs for 170 steps with 288751 atoms

99.9% CPU use with 104 MPI tasks x 1 OpenMP threads

Minimization stats:
  Stopping criterion = energy tolerance
  Energy initial, next-to-last, final = 
      -1152449.4055882   -1152449.4067739   -1152449.4067739
  Force two-norm initial, final = 0.14942291 0.00014371979
  Force max component initial, final = 0.1055946 1.8923648e-05
  Final line search alpha, max atom move = 1.0000000 1.8923648e-05
  Iterations, force evaluations = 170 340

MPI task timing breakdown:
Section |  min time  |  avg time  |  max time  |%varavg| %total
---------------------------------------------------------------
Pair    | 0.51687    | 1.4278     | 1.8569     |  32.2 | 71.79
Neigh   | 0          | 0          | 0          |   0.0 |  0.00
Comm    | 0.032067   | 0.32146    | 0.96276    |  47.2 | 16.16
Output  | 0          | 0          | 0          |   0.0 |  0.00
Modify  | 2.045e-05  | 0.0028168  | 0.0065377  |   2.5 |  0.14
Other   |            | 0.2367     |            |       | 11.90

Nlocal:        2776.45 ave        3958 max           0 min
Histogram: 8 4 4 0 4 12 8 2 28 34
Nghost:        3878.99 ave        5424 max         232 min
Histogram: 8 0 8 0 16 0 8 8 16 40
Neighs:        79213.4 ave      115368 max           0 min
Histogram: 8 4 4 0 10 6 8 8 24 32

Total # of neighbors = 8238195
Ave neighs/atom = 28.530447
Neighbor list builds = 0
Dangerous builds = 0
The dot product: 3.24706128032595e-08
Setting atom values ...
  1 settings made for x
  1 settings made for y
  1 settings made for z
Setting up cg style minimization ...
  Unit style    : metal
  Current step  : 1458
Per MPI rank memory allocation (min/avg/max) = 5.441 | 5.816 | 6.074 Mbytes
Step PotEng KinEng TotEng v_fx v_fy v_fz 
    1458   -1152449.4            0   -1152449.4 -0.010512482 -0.012449188 -0.0044722387 
    1591   -1152449.4            0   -1152449.4 1.2378542e-05 1.6817034e-05 1.2352416e-05 
Loop time of 1.57395 on 104 procs for 133 steps with 288751 atoms

99.9% CPU use with 104 MPI tasks x 1 OpenMP threads

Minimization stats:
  Stopping criterion = energy tolerance
  Energy initial, next-to-last, final = 
     -1152449.39404849  -1152449.39522644  -1152449.39522644
  Force two-norm initial, final = 0.14972063 0.00013446428
  Force max component initial, final = 0.10709495 2.1640753e-05
  Final line search alpha, max atom move = 1.0000000 2.1640753e-05
  Iterations, force evaluations = 133 266

MPI task timing breakdown:
Section |  min time  |  avg time  |  max time  |%varavg| %total
---------------------------------------------------------------
Pair    | 0.4045     | 1.1256     | 1.4666     |  28.6 | 71.52
Neigh   | 0          | 0          | 0          |   0.0 |  0.00
Comm    | 0.023233   | 0.2566     | 0.76668    |  41.5 | 16.30
Output  | 0          | 0          | 0          |   0.0 |  0.00
Modify  | 1.6245e-05 | 0.0022052  | 0.0046967  |   2.2 |  0.14
Other   |            | 0.1895     |            |       | 12.04

Nlocal:        2776.45 ave        3957 max           0 min
Histogram: 8 4 4 0 4 12 8 2 28 34
Nghost:        3878.99 ave        5424 max         232 min
Histogram: 8 0 8 0 16 0 8 8 16 40
Neighs:        79213.4 ave      115333 max           0 min
Histogram: 8 4 4 0 10 6 8 8 24 32

Total # of neighbors = 8238196
Ave neighs/atom = 28.530450
Neighbor list builds = 0
Dangerous builds = 0
The dot product: -1.27038437526443e-07
Setting atom values ...
  1 settings made for x
  1 settings made for y
  1 settings made for z
Setting up cg style minimization ...
  Unit style    : metal
  Current step  : 1591
Per MPI rank memory allocation (min/avg/max) = 5.441 | 5.816 | 6.074 Mbytes
Step PotEng KinEng TotEng v_fx v_fy v_fz 
    1591   -1152449.4            0   -1152449.4 -0.0079416584 -0.0086121938 -0.0027185434 
    1741   -1152449.4            0   -1152449.4 7.6405593e-06 4.9785491e-06 -8.8866379e-06 
Loop time of 1.76756 on 104 procs for 150 steps with 288751 atoms

99.9% CPU use with 104 MPI tasks x 1 OpenMP threads

Minimization stats:
  Stopping criterion = energy tolerance
  Energy initial, next-to-last, final = 
     -1152449.38114542  -1152449.38231244  -1152449.38231244
  Force two-norm initial, final = 0.15019849 0.00017456715
  Force max component initial, final = 0.10842617 1.9478993e-05
  Final line search alpha, max atom move = 1.0000000 1.9478993e-05
  Iterations, force evaluations = 150 300

MPI task timing breakdown:
Section |  min time  |  avg time  |  max time  |%varavg| %total
---------------------------------------------------------------
Pair    | 0.45738    | 1.2635     | 1.6586     |  30.3 | 71.48
Neigh   | 0          | 0          | 0          |   0.0 |  0.00
Comm    | 0.028456   | 0.28837    | 0.86283    |  44.1 | 16.31
Output  | 0          | 0          | 0          |   0.0 |  0.00
Modify  | 1.8348e-05 | 0.0024852  | 0.0052899  |   2.3 |  0.14
Other   |            | 0.2132     |            |       | 12.06

Nlocal:        2776.45 ave        3952 max           0 min
Histogram: 8 4 4 0 4 12 8 0 30 34
Nghost:        3878.99 ave        5424 max         232 min
Histogram: 8 0 8 0 16 0 8 8 16 40
Neighs:        79213.4 ave      115196 max           0 min
Histogram: 8 4 4 0 10 6 8 8 24 32

Total # of neighbors = 8238193
Ave neighs/atom = 28.530440
Neighbor list builds = 0
Dangerous builds = 0
The dot product: -3.62458582290131e-08
Setting atom values ...
  1 settings made for x
  1 settings made for y
  1 settings made for z
Setting up cg style minimization ...
  Unit style    : metal
  Current step  : 1741
Per MPI rank memory allocation (min/avg/max) = 5.441 | 5.816 | 6.074 Mbytes
Step PotEng KinEng TotEng v_fx v_fy v_fz 
    1741   -1152449.4            0   -1152449.4 -0.0045148468 -0.0046395392 -0.0015030025 
    1867   -1152449.4            0   -1152449.4 -7.2742256e-06 -1.5975127e-05 -3.3393017e-05 
Loop time of 1.46647 on 104 procs for 126 steps with 288751 atoms

99.9% CPU use with 104 MPI tasks x 1 OpenMP threads

Minimization stats:
  Stopping criterion = energy tolerance
  Energy initial, next-to-last, final = 
     -1152449.36685523  -1152449.36801217  -1152449.36801217
  Force two-norm initial, final = 0.1509174 0.00017323099
  Force max component initial, final = 0.10983167 3.3393017e-05
  Final line search alpha, max atom move = 1.0000000 3.3393017e-05
  Iterations, force evaluations = 126 252

MPI task timing breakdown:
Section |  min time  |  avg time  |  max time  |%varavg| %total
---------------------------------------------------------------
Pair    | 0.38183    | 1.0643     | 1.3782     |  27.8 | 72.58
Neigh   | 0          | 0          | 0          |   0.0 |  0.00
Comm    | 0.023338   | 0.24093    | 0.72049    |  40.7 | 16.43
Output  | 0          | 0          | 0          |   0.0 |  0.00
Modify  | 1.5309e-05 | 0.0020852  | 0.0044604  |   2.1 |  0.14
Other   |            | 0.1591     |            |       | 10.85

Nlocal:        2776.45 ave        3949 max           0 min
Histogram: 8 4 4 0 4 12 8 0 28 36
Nghost:        3879.01 ave        5424 max         232 min
Histogram: 8 0 8 0 16 0 8 8 16 40
Neighs:        79213.4 ave      115090 max           0 min
Histogram: 8 4 4 0 10 6 8 8 24 32

Total # of neighbors = 8238192
Ave neighs/atom = 28.530436
Neighbor list builds = 0
Dangerous builds = 0
The dot product: 9.14002686023376e-08
Setting atom values ...
  1 settings made for x
  1 settings made for y
  1 settings made for z
Setting up cg style minimization ...
  Unit style    : metal
  Current step  : 1867
Per MPI rank memory allocation (min/avg/max) = 5.441 | 5.816 | 6.074 Mbytes
Step PotEng KinEng TotEng v_fx v_fy v_fz 
    1867   -1152449.4            0   -1152449.4 -0.0006963465 -0.00081972256 -0.00072408335 
    1984   -1152449.4            0   -1152449.4 -4.2124014e-06 8.4679586e-06 4.6470598e-05 
Loop time of 1.37768 on 104 procs for 117 steps with 288751 atoms

99.9% CPU use with 104 MPI tasks x 1 OpenMP threads

Minimization stats:
  Stopping criterion = energy tolerance
  Energy initial, next-to-last, final = 
     -1152449.35116267  -1152449.35230773  -1152449.35230773
  Force two-norm initial, final = 0.15187503 0.00023212808
  Force max component initial, final = 0.11136368 4.6470598e-05
  Final line search alpha, max atom move = 1.0000000 4.6470598e-05
  Iterations, force evaluations = 117 234

MPI task timing breakdown:
Section |  min time  |  avg time  |  max time  |%varavg| %total
---------------------------------------------------------------
Pair    | 0.3583     | 0.98348    | 1.2892     |  26.7 | 71.39
Neigh   | 0          | 0          | 0          |   0.0 |  0.00
Comm    | 0.022863   | 0.22404    | 0.66321    |  38.7 | 16.26
Output  | 0          | 0          | 0          |   0.0 |  0.00
Modify  | 1.4549e-05 | 0.0019393  | 0.0041304  |   2.1 |  0.14
Other   |            | 0.1682     |            |       | 12.21

Nlocal:        2776.45 ave        3947 max           0 min
Histogram: 8 4 4 0 4 12 8 0 28 36
Nghost:        3879.01 ave        5424 max         232 min
Histogram: 8 0 8 0 16 0 8 8 16 40
Neighs:        79213.4 ave      115030 max           0 min
Histogram: 8 4 4 0 10 6 8 8 24 32

Total # of neighbors = 8238192
Ave neighs/atom = 28.530436
Neighbor list builds = 0
Dangerous builds = 0
The dot product: -4.84333936976377e-08
Setting atom values ...
  1 settings made for x
  1 settings made for y
  1 settings made for z
Setting up cg style minimization ...
  Unit style    : metal
  Current step  : 1984
Per MPI rank memory allocation (min/avg/max) = 5.441 | 5.816 | 6.074 Mbytes
Step PotEng KinEng TotEng v_fx v_fy v_fz 
    1984   -1152449.3            0   -1152449.3 0.0030430869 0.0027242064 0.00015878537 
    2000   -1152449.3            0   -1152449.3 -0.00033922399 -0.00046412846 -0.00064432359 
    2134   -1152449.3            0   -1152449.3 -1.8390511e-05 -3.0667438e-05 -5.6431791e-05 
Loop time of 1.74512 on 104 procs for 150 steps with 288751 atoms

99.9% CPU use with 104 MPI tasks x 1 OpenMP threads

Minimization stats:
  Stopping criterion = energy tolerance
  Energy initial, next-to-last, final = 
     -1152449.33404373  -1152449.33518029  -1152449.33518029
  Force two-norm initial, final = 0.15306251 0.00020318922
  Force max component initial, final = 0.11305597 5.6431791e-05
  Final line search alpha, max atom move = 1.0000000 5.6431791e-05
  Iterations, force evaluations = 150 300

MPI task timing breakdown:
Section |  min time  |  avg time  |  max time  |%varavg| %total
---------------------------------------------------------------
Pair    | 0.45621    | 1.2635     | 1.6326     |  30.2 | 72.40
Neigh   | 0          | 0          | 0          |   0.0 |  0.00
Comm    | 0.026508   | 0.28249    | 0.85243    |  44.9 | 16.19
Output  | 0.00014707 | 0.0001556  | 0.000232   |   0.0 |  0.01
Modify  | 1.8453e-05 | 0.0024781  | 0.0052849  |   2.3 |  0.14
Other   |            | 0.1965     |            |       | 11.26

Nlocal:        2776.45 ave        3942 max           0 min
Histogram: 8 4 4 0 4 12 8 0 28 36
Nghost:        3879.01 ave        5424 max         232 min
Histogram: 8 0 8 0 16 0 8 8 16 40
Neighs:        79213.4 ave      114891 max           0 min
Histogram: 8 4 4 0 10 6 8 8 22 34

Total # of neighbors = 8238191
Ave neighs/atom = 28.530433
Neighbor list builds = 0
Dangerous builds = 0
The dot product: 9.51658150540472e-08
Setting atom values ...
  1 settings made for x
  1 settings made for y
  1 settings made for z
Setting up cg style minimization ...
  Unit style    : metal
  Current step  : 2134
Per MPI rank memory allocation (min/avg/max) = 5.441 | 5.816 | 6.074 Mbytes
Step PotEng KinEng TotEng v_fx v_fy v_fz 
    2134   -1152449.3            0   -1152449.3 0.0065431727 0.0059383823 0.00094634576 
    2299   -1152449.3            0   -1152449.3 -5.2564451e-07 5.6799775e-06 2.4508481e-05 
Loop time of 1.90908 on 104 procs for 165 steps with 288751 atoms

99.9% CPU use with 104 MPI tasks x 1 OpenMP threads

Minimization stats:
  Stopping criterion = energy tolerance
  Energy initial, next-to-last, final = 
     -1152449.31547909  -1152449.31661458  -1152449.31661458
  Force two-norm initial, final = 0.15453904 0.00017426297
  Force max component initial, final = 0.11498942 3.8595690e-05
  Final line search alpha, max atom move = 1.0000000 3.8595690e-05
  Iterations, force evaluations = 165 330

MPI task timing breakdown:
Section |  min time  |  avg time  |  max time  |%varavg| %total
---------------------------------------------------------------
Pair    | 0.49891    | 1.3838     | 1.7953     |  31.8 | 72.49
Neigh   | 0          | 0          | 0          |   0.0 |  0.00
Comm    | 0.030751   | 0.31086    | 0.93097    |  46.6 | 16.28
Output  | 0          | 0          | 0          |   0.0 |  0.00
Modify  | 2.0041e-05 | 0.0027322  | 0.0058119  |   2.5 |  0.14
Other   |            | 0.2117     |            |       | 11.09

Nlocal:        2776.45 ave        3932 max           0 min
Histogram: 8 4 4 0 4 12 8 0 26 38
Nghost:        3878.99 ave        5424 max         232 min
Histogram: 8 0 8 0 16 0 8 8 16 40
Neighs:        79213.4 ave      114565 max           0 min
Histogram: 8 4 4 0 8 8 8 8 20 36

Total # of neighbors = 8238191
Ave neighs/atom = 28.530433
Neighbor list builds = 0
Dangerous builds = 0
The dot product: -1.78999140643946e-08
Setting atom values ...
  1 settings made for x
  1 settings made for y
  1 settings made for z
Setting up cg style minimization ...
  Unit style    : metal
  Current step  : 2299
Per MPI rank memory allocation (min/avg/max) = 5.441 | 5.816 | 6.074 Mbytes
Step PotEng KinEng TotEng v_fx v_fy v_fz 
    2299   -1152449.3            0   -1152449.3 0.0099104482 0.0090461518 0.0017485767 
    2421   -1152449.3            0   -1152449.3 -1.7770542e-05 -1.8200108e-05 -1.1156131e-05 
Loop time of 1.42791 on 104 procs for 122 steps with 288751 atoms

99.9% CPU use with 104 MPI tasks x 1 OpenMP threads

Minimization stats:
  Stopping criterion = energy tolerance
  Energy initial, next-to-last, final = 
     -1152449.29545773  -1152449.29660039  -1152449.29660039
  Force two-norm initial, final = 0.15629268 0.00017321554
  Force max component initial, final = 0.11706505 2.9724142e-05
  Final line search alpha, max atom move = 1.0000000 2.9724142e-05
  Iterations, force evaluations = 122 244

MPI task timing breakdown:
Section |  min time  |  avg time  |  max time  |%varavg| %total
---------------------------------------------------------------
Pair    | 0.37041    | 1.0284     | 1.3334     |  27.3 | 72.02
Neigh   | 0          | 0          | 0          |   0.0 |  0.00
Comm    | 0.021588   | 0.23085    | 0.69517    |  40.5 | 16.17
Output  | 0          | 0          | 0          |   0.0 |  0.00
Modify  | 1.5215e-05 | 0.0020182  | 0.0043034  |   2.1 |  0.14
Other   |            | 0.1666     |            |       | 11.67

Nlocal:        2776.45 ave        3930 max           0 min
Histogram: 8 4 4 0 4 12 8 0 26 38
Nghost:        3879.07 ave        5424 max         232 min
Histogram: 8 0 8 0 16 0 8 8 16 40
Neighs:        79213.4 ave      114486 max           0 min
Histogram: 8 4 4 0 8 8 8 8 20 36

Total # of neighbors = 8238191
Ave neighs/atom = 28.530433
Neighbor list builds = 0
Dangerous builds = 0
The dot product: -1.42443578601955e-08
Setting atom values ...
  1 settings made for x
  1 settings made for y
  1 settings made for z
Setting up cg style minimization ...
  Unit style    : metal
  Current step  : 2421
Per MPI rank memory allocation (min/avg/max) = 5.441 | 5.816 | 6.074 Mbytes
Step PotEng KinEng TotEng v_fx v_fy v_fz 
    2421   -1152449.3            0   -1152449.3  0.013138776  0.012020288 0.0021785987 
    2578   -1152449.3            0   -1152449.3 1.1939817e-05 2.5234763e-05 6.0482943e-05 
Loop time of 1.82314 on 104 procs for 157 steps with 288751 atoms

99.9% CPU use with 104 MPI tasks x 1 OpenMP threads

Minimization stats:
  Stopping criterion = energy tolerance
  Energy initial, next-to-last, final = 
       -1152449.273973  -1152449.27513296  -1152449.27513296
  Force two-norm initial, final = 0.15845125 0.00019106905
  Force max component initial, final = 0.11941111 6.0482943e-05
  Final line search alpha, max atom move = 1.0000000 6.0482943e-05
  Iterations, force evaluations = 157 314

MPI task timing breakdown:
Section |  min time  |  avg time  |  max time  |%varavg| %total
---------------------------------------------------------------
Pair    | 0.47542    | 1.3166     | 1.708      |  30.9 | 72.21
Neigh   | 0          | 0          | 0          |   0.0 |  0.00
Comm    | 0.029057   | 0.29625    | 0.88762    |  45.4 | 16.25
Output  | 0          | 0          | 0          |   0.0 |  0.00
Modify  | 1.9064e-05 | 0.002593   | 0.0055495  |   2.4 |  0.14
Other   |            | 0.2077     |            |       | 11.39

Nlocal:        2776.45 ave        3930 max           0 min
Histogram: 8 4 4 0 4 12 8 0 26 38
Nghost:        3879.09 ave        5424 max         232 min
Histogram: 8 0 8 0 16 0 8 8 16 40
Neighs:        79213.3 ave      114486 max           0 min
Histogram: 8 4 4 0 8 8 8 8 20 36

Total # of neighbors = 8238188
Ave neighs/atom = 28.530422
Neighbor list builds = 0
Dangerous builds = 0
The dot product: 1.9483858655266e-08
Setting atom values ...
  1 settings made for x
  1 settings made for y
  1 settings made for z
Setting up cg style minimization ...
  Unit style    : metal
  Current step  : 2578
Per MPI rank memory allocation (min/avg/max) = 5.441 | 5.816 | 6.074 Mbytes
Step PotEng KinEng TotEng v_fx v_fy v_fz 
    2578   -1152449.3            0   -1152449.3   0.01626566  0.015024605 0.0025361216 
    2685   -1152449.3            0   -1152449.3 -2.9046119e-08 7.9380126e-06 3.2667586e-05 
Loop time of 1.2511 on 104 procs for 107 steps with 288751 atoms

99.9% CPU use with 104 MPI tasks x 1 OpenMP threads

Minimization stats:
  Stopping criterion = energy tolerance
  Energy initial, next-to-last, final = 
     -1152449.25102526  -1152449.25221176  -1152449.25221176
  Force two-norm initial, final = 0.16100355 0.00027006412
  Force max component initial, final = 0.12186667 3.2952154e-05
  Final line search alpha, max atom move = 1.0000000 3.2952154e-05
  Iterations, force evaluations = 107 214

MPI task timing breakdown:
Section |  min time  |  avg time  |  max time  |%varavg| %total
---------------------------------------------------------------
Pair    | 0.32401    | 0.90571    | 1.1752     |  25.7 | 72.39
Neigh   | 0          | 0          | 0          |   0.0 |  0.00
Comm    | 0.019843   | 0.20469    | 0.6168     |  37.7 | 16.36
Output  | 0          | 0          | 0          |   0.0 |  0.00
Modify  | 1.3138e-05 | 0.0017742  | 0.003779   |   2.0 |  0.14
Other   |            | 0.1389     |            |       | 11.10

Nlocal:        2776.45 ave        3930 max           0 min
Histogram: 8 4 4 0 4 12 8 0 26 38
Nghost:        3879.07 ave        5424 max         232 min
Histogram: 8 0 8 0 16 0 8 8 16 40
Neighs:        79213.3 ave      114486 max           0 min
Histogram: 8 4 4 0 8 8 8 8 20 36

Total # of neighbors = 8238188
Ave neighs/atom = 28.530422
Neighbor list builds = 0
Dangerous builds = 0
The dot product: 2.91289558508831e-10
Setting atom values ...
  1 settings made for x
  1 settings made for y
  1 settings made for z
Setting up cg style minimization ...
  Unit style    : metal
  Current step  : 2685
Per MPI rank memory allocation (min/avg/max) = 5.441 | 5.816 | 6.074 Mbytes
Step PotEng KinEng TotEng v_fx v_fy v_fz 
    2685   -1152449.2            0   -1152449.2  0.019170667   0.01790649 0.0024609459 
    2818   -1152449.2            0   -1152449.2 3.1552014e-06 1.9292646e-05 6.7440703e-05 
Loop time of 1.54949 on 104 procs for 133 steps with 288751 atoms

99.9% CPU use with 104 MPI tasks x 1 OpenMP threads

Minimization stats:
  Stopping criterion = energy tolerance
  Energy initial, next-to-last, final = 
     -1152449.22661761  -1152449.22784184  -1152449.22784184
  Force two-norm initial, final = 0.16397549 0.0002079635
  Force max component initial, final = 0.1244913 6.7440703e-05
  Final line search alpha, max atom move = 1.0000000 6.7440703e-05
  Iterations, force evaluations = 133 266

MPI task timing breakdown:
Section |  min time  |  avg time  |  max time  |%varavg| %total
---------------------------------------------------------------
Pair    | 0.40409    | 1.1186     | 1.4572     |  28.5 | 72.19
Neigh   | 0          | 0          | 0          |   0.0 |  0.00
Comm    | 0.024743   | 0.25312    | 0.75745    |  41.8 | 16.34
Output  | 0          | 0          | 0          |   0.0 |  0.00
Modify  | 1.6329e-05 | 0.0021991  | 0.0046895  |   2.2 |  0.14
Other   |            | 0.1755     |            |       | 11.33

Nlocal:        2776.45 ave        3930 max           0 min
Histogram: 8 4 4 0 4 12 8 0 26 38
Nghost:        3879.07 ave        5424 max         232 min
Histogram: 8 0 8 0 16 0 8 8 16 40
Neighs:        79213.3 ave      114486 max           0 min
Histogram: 8 4 4 0 8 8 8 8 20 36

Total # of neighbors = 8238187
Ave neighs/atom = 28.530419
Neighbor list builds = 0
Dangerous builds = 0
The dot product: 3.03063897536126e-08
Setting atom values ...
  1 settings made for x
  1 settings made for y
  1 settings made for z
Setting up cg style minimization ...
  Unit style    : metal
  Current step  : 2818
Per MPI rank memory allocation (min/avg/max) = 5.441 | 5.816 | 6.074 Mbytes
Step PotEng KinEng TotEng v_fx v_fy v_fz 
    2818   -1152449.2            0   -1152449.2  0.021795576  0.020720394 0.0022906125 
    2958   -1152449.2            0   -1152449.2 -2.8052085e-05 -3.0940868e-05 -2.0418639e-05 
Loop time of 1.66116 on 104 procs for 140 steps with 288751 atoms

99.9% CPU use with 104 MPI tasks x 1 OpenMP threads

Minimization stats:
  Stopping criterion = energy tolerance
  Energy initial, next-to-last, final = 
     -1152449.20076302  -1152449.20203461  -1152449.20203461
  Force two-norm initial, final = 0.16739812 0.00018144148
  Force max component initial, final = 0.12731531 3.8669481e-05
  Final line search alpha, max atom move = 1.0000000 3.8669481e-05
  Iterations, force evaluations = 140 280

MPI task timing breakdown:
Section |  min time  |  avg time  |  max time  |%varavg| %total
---------------------------------------------------------------
Pair    | 0.42561    | 1.1847     | 1.5325     |  29.3 | 71.32
Neigh   | 0          | 0          | 0          |   0.0 |  0.00
Comm    | 0.024844   | 0.27059    | 0.8093     |  42.5 | 16.29
Output  | 0          | 0          | 0          |   0.0 |  0.00
Modify  | 1.7277e-05 | 0.0023243  | 0.0049552  |   2.3 |  0.14
Other   |            | 0.2035     |            |       | 12.25

Nlocal:        2776.45 ave        3930 max           0 min
Histogram: 8 4 4 0 4 12 8 0 26 38
Nghost:        3879.07 ave        5424 max         232 min
Histogram: 8 0 8 0 16 0 8 8 16 40
Neighs:        79213.3 ave      114487 max           0 min
Histogram: 8 4 4 0 8 8 8 8 20 36

Total # of neighbors = 8238183
Ave neighs/atom = 28.530405
Neighbor list builds = 0
Dangerous builds = 0
The dot product: -2.08812872619738e-07
Setting atom values ...
  1 settings made for x
  1 settings made for y
  1 settings made for z
Setting up cg style minimization ...
  Unit style    : metal
  Current step  : 2958
Per MPI rank memory allocation (min/avg/max) = 5.441 | 5.816 | 6.074 Mbytes
Step PotEng KinEng TotEng v_fx v_fy v_fz 
    2958   -1152449.2            0   -1152449.2  0.025193261  0.024342275 0.0014411107 
    3000   -1152449.2            0   -1152449.2 4.3559996e-06 -5.8795641e-05 -0.00025612383 
    3069   -1152449.2            0   -1152449.2 2.3781445e-05 1.7940902e-05 -1.913681e-05 
Loop time of 1.31055 on 104 procs for 111 steps with 288751 atoms

99.9% CPU use with 104 MPI tasks x 1 OpenMP threads

Minimization stats:
  Stopping criterion = energy tolerance
  Energy initial, next-to-last, final = 
     -1152449.17348599  -1152449.17482733  -1152449.17482733
  Force two-norm initial, final = 0.17143909 0.00026607439
  Force max component initial, final = 0.1302725 2.3781445e-05
  Final line search alpha, max atom move = 1.0000000 2.3781445e-05
  Iterations, force evaluations = 111 222

MPI task timing breakdown:
Section |  min time  |  avg time  |  max time  |%varavg| %total
---------------------------------------------------------------
Pair    | 0.33833    | 0.93814    | 1.2176     |  26.2 | 71.58
Neigh   | 0          | 0          | 0          |   0.0 |  0.00
Comm    | 0.022757   | 0.21349    | 0.63289    |  38.2 | 16.29
Output  | 0.00021522 | 0.00022441 | 0.00031771 |   0.0 |  0.02
Modify  | 1.3817e-05 | 0.0018404  | 0.0039314  |   2.0 |  0.14
Other   |            | 0.1569     |            |       | 11.97

Nlocal:        2776.45 ave        3930 max           0 min
Histogram: 8 4 4 0 4 12 8 0 26 38
Nghost:        3879.07 ave        5424 max         232 min
Histogram: 8 0 8 0 16 0 8 8 16 40
Neighs:        79213.3 ave      114487 max           0 min
Histogram: 8 4 4 0 8 8 8 8 20 36

Total # of neighbors = 8238183
Ave neighs/atom = 28.530405
Neighbor list builds = 0
Dangerous builds = 0
The dot product: 2.25740541368479e-07
Setting atom values ...
  1 settings made for x
  1 settings made for y
  1 settings made for z
Setting up cg style minimization ...
  Unit style    : metal
  Current step  : 3069
Per MPI rank memory allocation (min/avg/max) = 5.441 | 5.816 | 6.074 Mbytes
Step PotEng KinEng TotEng v_fx v_fy v_fz 
    3069   -1152449.1            0   -1152449.1   0.03037037  0.029082804 -0.0036927846 
    3235   -1152449.1            0   -1152449.1 2.3502754e-07 6.2761603e-06 2.4481294e-05 
Loop time of 1.92066 on 104 procs for 166 steps with 288751 atoms

99.9% CPU use with 104 MPI tasks x 1 OpenMP threads

Minimization stats:
  Stopping criterion = energy tolerance
  Energy initial, next-to-last, final = 
      -1152449.1448239  -1152449.14628878  -1152449.14628878
  Force two-norm initial, final = 0.17601808 0.00018286047
  Force max component initial, final = 0.13339264 2.4481294e-05
  Final line search alpha, max atom move = 1.0000000 2.4481294e-05
  Iterations, force evaluations = 166 332

MPI task timing breakdown:
Section |  min time  |  avg time  |  max time  |%varavg| %total
---------------------------------------------------------------
Pair    | 0.50192    | 1.3962     | 1.8086     |  31.8 | 72.70
Neigh   | 0          | 0          | 0          |   0.0 |  0.00
Comm    | 0.030011   | 0.31219    | 0.9428     |  47.0 | 16.25
Output  | 0          | 0          | 0          |   0.0 |  0.00
Modify  | 2.2059e-05 | 0.0027451  | 0.0058607  |   2.5 |  0.14
Other   |            | 0.2095     |            |       | 10.91

Nlocal:        2776.45 ave        3930 max           0 min
Histogram: 8 4 4 0 4 12 8 0 26 38
Nghost:        3879.07 ave        5424 max         232 min
Histogram: 8 0 8 0 16 0 8 8 16 40
Neighs:        79213.3 ave      114487 max           0 min
Histogram: 8 4 4 0 8 8 8 8 20 36

Total # of neighbors = 8238185
Ave neighs/atom = 28.530412
Neighbor list builds = 0
Dangerous builds = 0
The dot product: -8.32327459957643e-09
Setting atom values ...
  1 settings made for x
  1 settings made for y
  1 settings made for z
Setting up cg style minimization ...
  Unit style    : metal
  Current step  : 3235
Per MPI rank memory allocation (min/avg/max) = 5.441 | 5.816 | 6.074 Mbytes
Step PotEng KinEng TotEng v_fx v_fy v_fz 
    3235   -1152449.1            0   -1152449.1  0.038998471  0.036327756 -0.017016487 
    3360   -1152449.1            0   -1152449.1 -1.0813268e-05 -1.9731892e-05 -3.4676394e-05 
Loop time of 1.45726 on 104 procs for 125 steps with 288751 atoms

99.9% CPU use with 104 MPI tasks x 1 OpenMP threads

Minimization stats:
  Stopping criterion = energy tolerance
  Energy initial, next-to-last, final = 
     -1152449.11471687  -1152449.11645711  -1152449.11645711
  Force two-norm initial, final = 0.18326147 0.00014259921
  Force max component initial, final = 0.13707461 3.4676394e-05
  Final line search alpha, max atom move = 1.0000000 3.4676394e-05
  Iterations, force evaluations = 125 250

MPI task timing breakdown:
Section |  min time  |  avg time  |  max time  |%varavg| %total
---------------------------------------------------------------
Pair    | 0.38102    | 1.0502     | 1.3614     |  27.6 | 72.07
Neigh   | 0          | 0          | 0          |   0.0 |  0.00
Comm    | 0.025086   | 0.23728    | 0.70851    |  40.4 | 16.28
Output  | 0          | 0          | 0          |   0.0 |  0.00
Modify  | 1.5443e-05 | 0.0020768  | 0.0043985  |   2.1 |  0.14
Other   |            | 0.1677     |            |       | 11.51

Nlocal:        2776.45 ave        3930 max           0 min
Histogram: 8 4 4 0 4 12 8 0 26 38
Nghost:        3879.10 ave        5425 max         232 min
Histogram: 8 0 8 0 16 0 8 8 16 40
Neighs:        79213.3 ave      114487 max           0 min
Histogram: 8 4 4 0 8 8 8 8 20 36

Total # of neighbors = 8238183
Ave neighs/atom = 28.530405
Neighbor list builds = 0
Dangerous builds = 0
The dot product: -1.440110777591e-07
Setting atom values ...
  1 settings made for x
  1 settings made for y
  1 settings made for z
Setting up cg style minimization ...
  Unit style    : metal
  Current step  : 3360
Per MPI rank memory allocation (min/avg/max) = 5.441 | 5.816 | 6.074 Mbytes
Step PotEng KinEng TotEng v_fx v_fy v_fz 
    3360   -1152449.1            0   -1152449.1  0.047932759  0.046379847 -0.029225663 
    3501   -1152449.1            0   -1152449.1 -4.7061649e-06 -5.3295694e-06 -4.0685807e-07 
Loop time of 1.64306 on 104 procs for 141 steps with 288751 atoms

99.9% CPU use with 104 MPI tasks x 1 OpenMP threads

Minimization stats:
  Stopping criterion = energy tolerance
  Energy initial, next-to-last, final = 
     -1152449.08328285  -1152449.08534814  -1152449.08534814
  Force two-norm initial, final = 0.19293224 6.1418721e-05
  Force max component initial, final = 0.14125042 9.0695593e-06
  Final line search alpha, max atom move = 1.0000000 9.0695593e-06
  Iterations, force evaluations = 141 282

MPI task timing breakdown:
Section |  min time  |  avg time  |  max time  |%varavg| %total
---------------------------------------------------------------
Pair    | 0.42914    | 1.1908     | 1.5356     |  29.4 | 72.47
Neigh   | 0          | 0          | 0          |   0.0 |  0.00
Comm    | 0.025385   | 0.26764    | 0.80151    |  43.4 | 16.29
Output  | 0          | 0          | 0          |   0.0 |  0.00
Modify  | 1.723e-05  | 0.0023297  | 0.0049695  |   2.3 |  0.14
Other   |            | 0.1823     |            |       | 11.10

Nlocal:        2776.45 ave        3930 max           0 min
Histogram: 8 4 4 0 4 12 8 0 26 38
Nghost:        3879.11 ave        5425 max         232 min
Histogram: 8 0 8 0 16 0 8 8 16 40
Neighs:        79213.3 ave      114487 max           0 min
Histogram: 8 4 4 0 8 8 8 8 20 36

Total # of neighbors = 8238183
Ave neighs/atom = 28.530405
Neighbor list builds = 0
Dangerous builds = 0
The dot product: -1.22621479886747e-07
Setting atom values ...
  1 settings made for x
  1 settings made for y
  1 settings made for z
Setting up cg style minimization ...
  Unit style    : metal
  Current step  : 3501
Per MPI rank memory allocation (min/avg/max) = 5.441 | 5.816 | 6.074 Mbytes
Step PotEng KinEng TotEng v_fx v_fy v_fz 
    3501   -1152449.1            0   -1152449.1  0.053131003  0.055557643 -0.037844989 
    3631   -1152449.1            0   -1152449.1 5.0057264e-06 5.0282582e-06 -4.4916439e-06 
Loop time of 1.50856 on 104 procs for 130 steps with 288751 atoms

99.9% CPU use with 104 MPI tasks x 1 OpenMP threads

Minimization stats:
  Stopping criterion = energy tolerance
  Energy initial, next-to-last, final = 
     -1152449.05062935  -1152449.05296245  -1152449.05296245
  Force two-norm initial, final = 0.20169067 0.00021446808
  Force max component initial, final = 0.14559885 5.8708527e-05
  Final line search alpha, max atom move = 1.0000000 5.8708527e-05
  Iterations, force evaluations = 130 260

MPI task timing breakdown:
Section |  min time  |  avg time  |  max time  |%varavg| %total
---------------------------------------------------------------
Pair    | 0.39714    | 1.0926     | 1.4169     |  28.1 | 72.43
Neigh   | 0          | 0          | 0          |   0.0 |  0.00
Comm    | 0.025795   | 0.24553    | 0.73416    |  41.3 | 16.28
Output  | 0          | 0          | 0          |   0.0 |  0.00
Modify  | 1.6052e-05 | 0.0021499  | 0.004581   |   2.2 |  0.14
Other   |            | 0.1682     |            |       | 11.15

Nlocal:        2776.45 ave        3930 max           0 min
Histogram: 8 4 4 0 4 12 8 0 26 38
Nghost:        3879.11 ave        5425 max         232 min
Histogram: 8 0 8 0 16 0 8 8 16 40
Neighs:        79213.3 ave      114487 max           0 min
Histogram: 8 4 4 0 8 8 8 8 20 36

Total # of neighbors = 8238182
Ave neighs/atom = 28.530402
Neighbor list builds = 0
Dangerous builds = 0
The dot product: 1.78944620522518e-07
Setting atom values ...
  1 settings made for x
  1 settings made for y
  1 settings made for z
Setting up cg style minimization ...
  Unit style    : metal
  Current step  : 3631
Per MPI rank memory allocation (min/avg/max) = 5.441 | 5.816 | 6.074 Mbytes
Step PotEng KinEng TotEng v_fx v_fy v_fz 
    3631     -1152449            0     -1152449  0.055096111  0.062073534  -0.05034291 
    3804     -1152449            0     -1152449 -3.6516284e-06 -6.5370028e-06 -8.6678313e-06 
Loop time of 2.05097 on 104 procs for 173 steps with 288751 atoms

99.9% CPU use with 104 MPI tasks x 1 OpenMP threads

Minimization stats:
  Stopping criterion = energy tolerance
  Energy initial, next-to-last, final = 
     -1152449.01682359  -1152449.01940837  -1152449.01940837
  Force two-norm initial, final = 0.20989816 0.00023573626
  Force max component initial, final = 0.1496186 4.0930385e-05
  Final line search alpha, max atom move = 1.0000000 4.0930385e-05
  Iterations, force evaluations = 173 346

MPI task timing breakdown:
Section |  min time  |  avg time  |  max time  |%varavg| %total
---------------------------------------------------------------
Pair    | 0.52966    | 1.4669     | 1.9025     |  32.6 | 71.52
Neigh   | 0          | 0          | 0          |   0.0 |  0.00
Comm    | 0.031486   | 0.33241    | 0.99532    |  47.9 | 16.21
Output  | 0          | 0          | 0          |   0.0 |  0.00
Modify  | 2.1157e-05 | 0.0028636  | 0.0061188  |   2.5 |  0.14
Other   |            | 0.2488     |            |       | 12.13

Nlocal:        2776.45 ave        3930 max           0 min
Histogram: 8 4 4 0 4 12 8 0 26 38
Nghost:        3879.11 ave        5425 max         232 min
Histogram: 8 0 8 0 16 0 8 8 16 40
Neighs:        79213.2 ave      114487 max           0 min
Histogram: 8 4 4 0 8 8 8 8 20 36

Total # of neighbors = 8238178
Ave neighs/atom = 28.530388
Neighbor list builds = 0
Dangerous builds = 0
The dot product: -3.63770069449942e-08
Setting atom values ...
  1 settings made for x
  1 settings made for y
  1 settings made for z
Setting up cg style minimization ...
  Unit style    : metal
  Current step  : 3804
Per MPI rank memory allocation (min/avg/max) = 5.441 | 5.816 | 6.074 Mbytes
Step PotEng KinEng TotEng v_fx v_fy v_fz 
    3804     -1152449            0     -1152449  0.053621687  0.065098462 -0.068635649 
    4000     -1152449            0     -1152449 1.3890848e-05 1.8151113e-05 -1.0088871e-05 
    4001     -1152449            0     -1152449 -1.6401897e-05 -2.2024781e-05 8.372269e-06 
Loop time of 2.28748 on 104 procs for 197 steps with 288751 atoms

99.9% CPU use with 104 MPI tasks x 1 OpenMP threads

Minimization stats:
  Stopping criterion = energy tolerance
  Energy initial, next-to-last, final = 
     -1152448.98211282  -1152448.98489367  -1152448.98489367
  Force two-norm initial, final = 0.21848194 0.00011122041
  Force max component initial, final = 0.1536155 2.2024781e-05
  Final line search alpha, max atom move = 1.0000000 2.2024781e-05
  Iterations, force evaluations = 197 394

MPI task timing breakdown:
Section |  min time  |  avg time  |  max time  |%varavg| %total
---------------------------------------------------------------
Pair    | 0.60018    | 1.6521     | 2.1525     |  34.6 | 72.22
Neigh   | 0          | 0          | 0          |   0.0 |  0.00
Comm    | 0.036376   | 0.37272    | 1.1156     |  50.8 | 16.29
Output  | 0.0002501  | 0.00025302 | 0.00041323 |   0.0 |  0.01
Modify  | 2.3926e-05 | 0.0032553  | 0.0069444  |   2.7 |  0.14
Other   |            | 0.2591     |            |       | 11.33

Nlocal:        2776.45 ave        3930 max           0 min
Histogram: 8 4 4 0 4 12 8 0 26 38
Nghost:        3879.00 ave        5425 max         232 min
Histogram: 8 0 8 0 16 0 8 8 16 40
Neighs:        79213.2 ave      114486 max           0 min
Histogram: 8 4 4 0 8 8 8 8 20 36

Total # of neighbors = 8238178
Ave neighs/atom = 28.530388
Neighbor list builds = 0
Dangerous builds = 0
The dot product: -6.55968136760505e-07
Setting atom values ...
  1 settings made for x
  1 settings made for y
  1 settings made for z
Setting up cg style minimization ...
  Unit style    : metal
  Current step  : 4001
Per MPI rank memory allocation (min/avg/max) = 5.441 | 5.816 | 6.074 Mbytes
Step PotEng KinEng TotEng v_fx v_fy v_fz 
    4001   -1152448.9            0   -1152448.9  0.047396016  0.063578762  -0.08174281 
    4324     -1152449            0     -1152449 -2.3071035e-06 -1.3527242e-05 -8.3455915e-05 
Loop time of 3.76105 on 104 procs for 323 steps with 288751 atoms

99.9% CPU use with 104 MPI tasks x 1 OpenMP threads

Minimization stats:
  Stopping criterion = energy tolerance
  Energy initial, next-to-last, final = 
     -1152448.94672964  -1152448.98110299  -1152448.98110299
  Force two-norm initial, final = 0.22435934 0.00025897213
  Force max component initial, final = 0.15707778 8.3455915e-05
  Final line search alpha, max atom move = 1.0000000 8.3455915e-05
  Iterations, force evaluations = 323 644

MPI task timing breakdown:
Section |  min time  |  avg time  |  max time  |%varavg| %total
---------------------------------------------------------------
Pair    | 0.99369    | 2.7217     | 3.5177     |  44.0 | 72.36
Neigh   | 3.1991e-05 | 0.0088104  | 0.012829   |   3.9 |  0.23
Comm    | 0.058351   | 0.61617    | 1.8701     |  65.4 | 16.38
Output  | 0          | 0          | 0          |   0.0 |  0.00
Modify  | 3.8376e-05 | 0.0053189  | 0.011383   |   3.4 |  0.14
Other   |            | 0.4091     |            |       | 10.88

Nlocal:        2776.45 ave        3944 max           0 min
Histogram: 8 4 4 0 4 12 8 0 28 36
Nghost:        3879.00 ave        5426 max         232 min
Histogram: 8 0 8 0 16 0 8 8 16 40
Neighs:        79213.2 ave      114916 max           0 min
Histogram: 8 4 4 0 10 6 8 8 23 33

Total # of neighbors = 8238177
Ave neighs/atom = 28.530384
Neighbor list builds = 3
Dangerous builds = 0
The dot product: 5.00912068887573e-06
Setting atom values ...
  1 settings made for x
  1 settings made for y
  1 settings made for z
Setting up cg style minimization ...
  Unit style    : metal
  Current step  : 4324
Per MPI rank memory allocation (min/avg/max) = 5.441 | 5.816 | 6.074 Mbytes
Step PotEng KinEng TotEng v_fx v_fy v_fz 
    4324     -1152449            0     -1152449  0.021509198  0.051698079  -0.14006217 
    4503     -1152449            0     -1152449 4.4846688e-07 -1.4356708e-06 2.0722715e-05 
Loop time of 2.10107 on 104 procs for 179 steps with 288751 atoms

99.9% CPU use with 104 MPI tasks x 1 OpenMP threads

Minimization stats:
  Stopping criterion = energy tolerance
  Energy initial, next-to-last, final = 
     -1152448.95875176   -1152448.9626324   -1152448.9626324
  Force two-norm initial, final = 0.25577264 0.00022916009
  Force max component initial, final = 0.16440066 7.4068958e-05
  Final line search alpha, max atom move = 1.0000000 7.4068958e-05
  Iterations, force evaluations = 179 358

MPI task timing breakdown:
Section |  min time  |  avg time  |  max time  |%varavg| %total
---------------------------------------------------------------
Pair    | 0.54098    | 1.5082     | 1.9658     |  33.3 | 71.78
Neigh   | 0          | 0          | 0          |   0.0 |  0.00
Comm    | 0.031615   | 0.3425     | 1.0185     |  48.3 | 16.30
Output  | 0          | 0          | 0          |   0.0 |  0.00
Modify  | 2.1707e-05 | 0.0029617  | 0.0063196  |   2.6 |  0.14
Other   |            | 0.2475     |            |       | 11.78

Nlocal:        2776.45 ave        3945 max           0 min
Histogram: 8 4 4 0 4 12 8 0 28 36
Nghost:        3879.01 ave        5424 max         232 min
Histogram: 8 0 8 0 16 0 8 8 16 40
Neighs:        79213.3 ave      114957 max           0 min
Histogram: 8 4 4 0 10 6 8 8 24 32

Total # of neighbors = 8238183
Ave neighs/atom = 28.530405
Neighbor list builds = 0
Dangerous builds = 0
The dot product: -5.85650350354078e-07
Setting atom values ...
  1 settings made for x
  1 settings made for y
  1 settings made for z
Setting up cg style minimization ...
  Unit style    : metal
  Current step  : 4503
Per MPI rank memory allocation (min/avg/max) = 5.441 | 5.816 | 6.074 Mbytes
Step PotEng KinEng TotEng v_fx v_fy v_fz 
    4503   -1152448.9            0   -1152448.9  0.005900896  0.025038241 -0.068527537 
    4664   -1152448.9            0   -1152448.9 3.8405677e-06 -1.2730192e-06 3.8374796e-05 
Loop time of 1.88043 on 104 procs for 161 steps with 288751 atoms

99.9% CPU use with 104 MPI tasks x 1 OpenMP threads

Minimization stats:
  Stopping criterion = energy tolerance
  Energy initial, next-to-last, final = 
     -1152448.94019062  -1152448.94255479  -1152448.94255479
  Force two-norm initial, final = 0.22368089 0.00012510056
  Force max component initial, final = 0.16602078 3.8374796e-05
  Final line search alpha, max atom move = 1.0000000 3.8374796e-05
  Iterations, force evaluations = 161 322

MPI task timing breakdown:
Section |  min time  |  avg time  |  max time  |%varavg| %total
---------------------------------------------------------------
Pair    | 0.48886    | 1.3584     | 1.7583     |  31.4 | 72.24
Neigh   | 0          | 0          | 0          |   0.0 |  0.00
Comm    | 0.03362    | 0.30715    | 0.92149    |  46.2 | 16.33
Output  | 0          | 0          | 0          |   0.0 |  0.00
Modify  | 1.9461e-05 | 0.0026636  | 0.0056881  |   2.4 |  0.14
Other   |            | 0.2122     |            |       | 11.28

Nlocal:        2776.45 ave        3949 max           0 min
Histogram: 8 4 4 0 4 12 8 0 28 36
Nghost:        3879.03 ave        5427 max         232 min
Histogram: 8 0 8 0 16 0 8 8 16 40
Neighs:        79213.3 ave      115071 max           0 min
Histogram: 8 4 4 0 10 6 8 8 24 32

Total # of neighbors = 8238184
Ave neighs/atom = 28.530409
Neighbor list builds = 0
Dangerous builds = 0
The dot product: -5.13457948588228e-07
Setting atom values ...
  1 settings made for x
  1 settings made for y
  1 settings made for z
Setting up cg style minimization ...
  Unit style    : metal
  Current step  : 4664
Per MPI rank memory allocation (min/avg/max) = 5.441 | 5.816 | 6.074 Mbytes
Step PotEng KinEng TotEng v_fx v_fy v_fz 
    4664   -1152448.9            0   -1152448.9  0.001049212  0.012794901 -0.041421515 
    4795   -1152448.9            0   -1152448.9 1.0408124e-05 2.5850543e-05 -2.6497833e-05 
Loop time of 1.52591 on 104 procs for 131 steps with 288751 atoms

99.9% CPU use with 104 MPI tasks x 1 OpenMP threads

Minimization stats:
  Stopping criterion = energy tolerance
  Energy initial, next-to-last, final = 
     -1152448.92010753  -1152448.92239508  -1152448.92239508
  Force two-norm initial, final = 0.22079777 0.00025530496
  Force max component initial, final = 0.16764784 6.7172159e-05
  Final line search alpha, max atom move = 1.0000000 6.7172159e-05
  Iterations, force evaluations = 131 262

MPI task timing breakdown:
Section |  min time  |  avg time  |  max time  |%varavg| %total
---------------------------------------------------------------
Pair    | 0.39765    | 1.1021     | 1.4328     |  28.3 | 72.23
Neigh   | 0          | 0          | 0          |   0.0 |  0.00
Comm    | 0.024536   | 0.24859    | 0.74351    |  41.6 | 16.29
Output  | 0          | 0          | 0          |   0.0 |  0.00
Modify  | 1.6136e-05 | 0.0021679  | 0.0046171  |   2.2 |  0.14
Other   |            | 0.173      |            |       | 11.34

Nlocal:        2776.45 ave        3949 max           0 min
Histogram: 8 4 4 0 4 12 8 0 28 36
Nghost:        3879.03 ave        5425 max         232 min
Histogram: 8 0 8 0 16 0 8 8 16 40
Neighs:        79213.3 ave      115071 max           0 min
Histogram: 8 4 4 0 10 6 8 8 24 32

Total # of neighbors = 8238185
Ave neighs/atom = 28.530412
Neighbor list builds = 0
Dangerous builds = 0
The dot product: 2.76212809822618e-07
Setting atom values ...
  1 settings made for x
  1 settings made for y
  1 settings made for z
Setting up cg style minimization ...
  Unit style    : metal
  Current step  : 4795
Per MPI rank memory allocation (min/avg/max) = 5.441 | 5.816 | 6.074 Mbytes
Step PotEng KinEng TotEng v_fx v_fy v_fz 
    4795   -1152448.9            0   -1152448.9 -0.00053038824  0.007932189 -0.030290085 
    4969   -1152448.9            0   -1152448.9 1.0407642e-06 3.1796066e-06 -4.3433226e-06 
Loop time of 2.02057 on 104 procs for 174 steps with 288751 atoms

99.9% CPU use with 104 MPI tasks x 1 OpenMP threads

Minimization stats:
  Stopping criterion = energy tolerance
  Energy initial, next-to-last, final = 
     -1152448.90014052  -1152448.90212944  -1152448.90212944
  Force two-norm initial, final = 0.22074419 0.00012288488
  Force max component initial, final = 0.16959978 2.9109617e-05
  Final line search alpha, max atom move = 1.0000000 2.9109617e-05
  Iterations, force evaluations = 174 348

MPI task timing breakdown:
Section |  min time  |  avg time  |  max time  |%varavg| %total
---------------------------------------------------------------
Pair    | 0.52753    | 1.4648     | 1.8984     |  32.6 | 72.49
Neigh   | 0          | 0          | 0          |   0.0 |  0.00
Comm    | 0.031905   | 0.3289     | 0.9907     |  48.1 | 16.28
Output  | 0          | 0          | 0          |   0.0 |  0.00
Modify  | 2.1427e-05 | 0.0028746  | 0.0061362  |   2.5 |  0.14
Other   |            | 0.224      |            |       | 11.09

Nlocal:        2776.45 ave        3951 max           0 min
Histogram: 8 4 4 0 4 12 8 0 30 34
Nghost:        3879.05 ave        5425 max         232 min
Histogram: 8 0 8 0 16 0 8 8 16 40
Neighs:        79213.3 ave      115135 max           0 min
Histogram: 8 4 4 0 10 6 8 8 24 32

Total # of neighbors = 8238182
Ave neighs/atom = 28.530402
Neighbor list builds = 0
Dangerous builds = 0
The dot product: 2.40165652914523e-08
Setting atom values ...
  1 settings made for x
  1 settings made for y
  1 settings made for z
Setting up cg style minimization ...
  Unit style    : metal
  Current step  : 4969
Per MPI rank memory allocation (min/avg/max) = 5.441 | 5.816 | 6.074 Mbytes
Step PotEng KinEng TotEng v_fx v_fy v_fz 
    4969   -1152448.9            0   -1152448.9 -0.00044623916  0.005517461 -0.020352344 
    5000   -1152448.9            0   -1152448.9 5.2131817e-05 5.8434737e-05 0.00011949599 
    5107   -1152448.9            0   -1152448.9 2.897909e-06 9.9925873e-06 -1.5021046e-05 
Loop time of 1.59836 on 104 procs for 138 steps with 288751 atoms

99.9% CPU use with 104 MPI tasks x 1 OpenMP threads

Minimization stats:
  Stopping criterion = energy tolerance
  Energy initial, next-to-last, final = 
     -1152448.87881284   -1152448.8806207   -1152448.8806207
  Force two-norm initial, final = 0.21933818 0.00024587495
  Force max component initial, final = 0.17178541 8.5008882e-05
  Final line search alpha, max atom move = 1.0000000 8.5008882e-05
  Iterations, force evaluations = 138 276

MPI task timing breakdown:
Section |  min time  |  avg time  |  max time  |%varavg| %total
---------------------------------------------------------------
Pair    | 0.41968    | 1.1562     | 1.5058     |  28.9 | 72.34
Neigh   | 0          | 0          | 0          |   0.0 |  0.00
Comm    | 0.025081   | 0.26002    | 0.77752    |  42.5 | 16.27
Output  | 0.00014855 | 0.00015567 | 0.00024605 |   0.0 |  0.01
Modify  | 1.7002e-05 | 0.0022855  | 0.0048701  |   2.2 |  0.14
Other   |            | 0.1797     |            |       | 11.24

Nlocal:        2776.45 ave        3949 max           0 min
Histogram: 8 4 4 0 4 12 8 0 28 36
Nghost:        3879.01 ave        5425 max         232 min
Histogram: 8 0 8 0 16 0 8 8 16 40
Neighs:        79213.3 ave      115071 max           0 min
Histogram: 8 4 4 0 10 6 8 8 24 32

Total # of neighbors = 8238180
Ave neighs/atom = 28.530395
Neighbor list builds = 0
Dangerous builds = 0
The dot product: 3.1708369008889e-08
Setting atom values ...
  1 settings made for x
  1 settings made for y
  1 settings made for z
Setting up cg style minimization ...
  Unit style    : metal
  Current step  : 5107
Per MPI rank memory allocation (min/avg/max) = 5.441 | 5.816 | 6.074 Mbytes
Step PotEng KinEng TotEng v_fx v_fy v_fz 
    5107   -1152448.9            0   -1152448.9 -0.00022244918 0.0038621177 -0.013411837 
    5322   -1152448.9            0   -1152448.9 -1.8834641e-08 -3.0586411e-07 8.5218444e-07 
Loop time of 2.51467 on 104 procs for 215 steps with 288751 atoms

99.9% CPU use with 104 MPI tasks x 1 OpenMP threads

Minimization stats:
  Stopping criterion = energy tolerance
  Energy initial, next-to-last, final = 
     -1152448.85530521  -1152448.85722532  -1152448.85722532
  Force two-norm initial, final = 0.22322834 4.9158201e-05
  Force max component initial, final = 0.17401512 1.3217864e-05
  Final line search alpha, max atom move = 1.0000000 1.3217864e-05
  Iterations, force evaluations = 215 430

MPI task timing breakdown:
Section |  min time  |  avg time  |  max time  |%varavg| %total
---------------------------------------------------------------
Pair    | 0.6513     | 1.8154     | 2.3734     |  36.4 | 72.19
Neigh   | 0          | 0          | 0          |   0.0 |  0.00
Comm    | 0.038332   | 0.41167    | 1.2272     |  53.2 | 16.37
Output  | 0          | 0          | 0          |   0.0 |  0.00
Modify  | 2.6062e-05 | 0.0035447  | 0.0075744  |   2.8 |  0.14
Other   |            | 0.2841     |            |       | 11.30

Nlocal:        2776.45 ave        3948 max           0 min
Histogram: 8 4 4 0 4 12 8 0 28 36
Nghost:        3878.99 ave        5425 max         232 min
Histogram: 8 0 8 0 16 0 8 8 16 40
Neighs:        79213.3 ave      115037 max           0 min
Histogram: 8 4 4 0 10 6 8 8 24 32

Total # of neighbors = 8238179
Ave neighs/atom = 28.530391
Neighbor list builds = 0
Dangerous builds = 0
The dot product: -5.16607652139144e-10
Setting atom values ...
  1 settings made for x
  1 settings made for y
  1 settings made for z
Setting up cg style minimization ...
  Unit style    : metal
  Current step  : 5322
Per MPI rank memory allocation (min/avg/max) = 5.441 | 5.816 | 6.074 Mbytes
Step PotEng KinEng TotEng v_fx v_fy v_fz 
    5322   -1152448.8            0   -1152448.8 -0.00011667618 0.0029548885 -0.0098888531 
    5487   -1152448.8            0   -1152448.8 -1.7522978e-06 -8.3605292e-06 1.6083969e-05 
Loop time of 1.92696 on 104 procs for 165 steps with 288751 atoms

99.9% CPU use with 104 MPI tasks x 1 OpenMP threads

Minimization stats:
  Stopping criterion = energy tolerance
  Energy initial, next-to-last, final = 
     -1152448.82967909  -1152448.83171015  -1152448.83171015
  Force two-norm initial, final = 0.22779929 0.00022605243
  Force max component initial, final = 0.17617445 8.5378386e-05
  Final line search alpha, max atom move = 1.0000000 8.5378386e-05
  Iterations, force evaluations = 165 330

MPI task timing breakdown:
Section |  min time  |  avg time  |  max time  |%varavg| %total
---------------------------------------------------------------
Pair    | 0.50134    | 1.3843     | 1.8122     |  31.7 | 71.84
Neigh   | 0          | 0          | 0          |   0.0 |  0.00
Comm    | 0.029877   | 0.3135     | 0.93432    |  46.3 | 16.27
Output  | 0          | 0          | 0          |   0.0 |  0.00
Modify  | 2.0073e-05 | 0.0027282  | 0.0058022  |   2.5 |  0.14
Other   |            | 0.2264     |            |       | 11.75

Nlocal:        2776.45 ave        3945 max           0 min
Histogram: 8 4 4 0 4 12 8 0 28 36
Nghost:        3878.99 ave        5425 max         232 min
Histogram: 8 0 8 0 16 0 8 8 16 40
Neighs:        79213.2 ave      114938 max           0 min
Histogram: 8 4 4 0 10 6 8 8 22 34

Total # of neighbors = 8238177
Ave neighs/atom = 28.530384
Neighbor list builds = 0
Dangerous builds = 0
The dot product: 5.62891093890113e-09
Setting atom values ...
  1 settings made for x
  1 settings made for y
  1 settings made for z
Setting up cg style minimization ...
  Unit style    : metal
  Current step  : 5487
Per MPI rank memory allocation (min/avg/max) = 5.441 | 5.816 | 6.074 Mbytes
Step PotEng KinEng TotEng v_fx v_fy v_fz 
    5487   -1152448.8            0   -1152448.8 3.5109958e-05 0.0025173209 -0.0076689362 
    5645   -1152448.8            0   -1152448.8 -1.3659262e-05 -2.5944835e-05 3.1784032e-06 
Loop time of 1.84057 on 104 procs for 158 steps with 288751 atoms

99.9% CPU use with 104 MPI tasks x 1 OpenMP threads

Minimization stats:
  Stopping criterion = energy tolerance
  Energy initial, next-to-last, final = 
     -1152448.80181967  -1152448.80395035  -1152448.80395035
  Force two-norm initial, final = 0.23232122 0.00025623545
  Force max component initial, final = 0.17843022 7.7479898e-05
  Final line search alpha, max atom move = 1.0000000 7.7479898e-05
  Iterations, force evaluations = 158 316

MPI task timing breakdown:
Section |  min time  |  avg time  |  max time  |%varavg| %total
---------------------------------------------------------------
Pair    | 0.47967    | 1.3357     | 1.7337     |  31.2 | 72.57
Neigh   | 0          | 0          | 0          |   0.0 |  0.00
Comm    | 0.027996   | 0.30049    | 0.90515    |  46.0 | 16.33
Output  | 0          | 0          | 0          |   0.0 |  0.00
Modify  | 1.9422e-05 | 0.0026105  | 0.0055792  |   2.4 |  0.14
Other   |            | 0.2018     |            |       | 10.96

Nlocal:        2776.45 ave        3940 max           0 min
Histogram: 8 4 4 0 4 12 8 0 28 36
Nghost:        3878.99 ave        5425 max         232 min
Histogram: 8 0 8 0 16 0 8 8 16 40
Neighs:        79213.2 ave      114786 max           0 min
Histogram: 8 4 4 0 10 6 8 8 22 34

Total # of neighbors = 8238176
Ave neighs/atom = 28.530381
Neighbor list builds = 0
Dangerous builds = 0
The dot product: 2.72611676919557e-08
Setting atom values ...
  1 settings made for x
  1 settings made for y
  1 settings made for z
Setting up cg style minimization ...
  Unit style    : metal
  Current step  : 5645
Per MPI rank memory allocation (min/avg/max) = 5.441 | 5.816 | 6.074 Mbytes
Step PotEng KinEng TotEng v_fx v_fy v_fz 
    5645   -1152448.8            0   -1152448.8 0.00026489441 0.0025269748 -0.0064267921 
    5849   -1152448.8            0   -1152448.8 6.2599466e-06 1.2696307e-05 -4.1073363e-06 
Loop time of 2.36083 on 104 procs for 204 steps with 288751 atoms

99.9% CPU use with 104 MPI tasks x 1 OpenMP threads

Minimization stats:
  Stopping criterion = energy tolerance
  Energy initial, next-to-last, final = 
      -1152448.7716515  -1152448.77385958  -1152448.77385958
  Force two-norm initial, final = 0.23644175 7.9303316e-05
  Force max component initial, final = 0.18096861 2.5435178e-05
  Final line search alpha, max atom move = 1.0000000 2.5435178e-05
  Iterations, force evaluations = 204 408

MPI task timing breakdown:
Section |  min time  |  avg time  |  max time  |%varavg| %total
---------------------------------------------------------------
Pair    | 0.62206    | 1.7154     | 2.2238     |  35.3 | 72.66
Neigh   | 0          | 0          | 0          |   0.0 |  0.00
Comm    | 0.040421   | 0.38417    | 1.1542     |  52.0 | 16.27
Output  | 0          | 0          | 0          |   0.0 |  0.00
Modify  | 2.4861e-05 | 0.0033695  | 0.0072034  |   2.7 |  0.14
Other   |            | 0.2579     |            |       | 10.92

Nlocal:        2776.45 ave        3930 max           0 min
Histogram: 8 4 4 0 4 12 8 0 26 38
Nghost:        3879.03 ave        5425 max         232 min
Histogram: 8 0 8 0 16 0 8 8 16 40
Neighs:        79213.2 ave      114461 max           0 min
Histogram: 8 4 4 0 8 8 8 8 20 36

Total # of neighbors = 8238169
Ave neighs/atom = 28.530357
Neighbor list builds = 0
Dangerous builds = 0
The dot product: -1.46795600117224e-08
Setting atom values ...
  1 settings made for x
  1 settings made for y
  1 settings made for z
Setting up cg style minimization ...
  Unit style    : metal
  Current step  : 5849
Per MPI rank memory allocation (min/avg/max) = 5.441 | 5.816 | 6.074 Mbytes
Step PotEng KinEng TotEng v_fx v_fy v_fz 
    5849   -1152448.7            0   -1152448.7 0.00055768796 0.0028701951 -0.0058808428 
    6000   -1152448.7            0   -1152448.7 -4.3724881e-06 -1.0590533e-05 8.4131797e-06 
    6004   -1152448.7            0   -1152448.7 8.9492951e-06 1.8642529e-05 -7.6211384e-06 
Loop time of 1.83127 on 104 procs for 155 steps with 288751 atoms

99.9% CPU use with 104 MPI tasks x 1 OpenMP threads

Minimization stats:
  Stopping criterion = energy tolerance
  Energy initial, next-to-last, final = 
     -1152448.73912091  -1152448.74138109  -1152448.74138109
  Force two-norm initial, final = 0.23961815 0.000194943
  Force max component initial, final = 0.1833138 5.1196863e-05
  Final line search alpha, max atom move = 1.0000000 5.1196863e-05
  Iterations, force evaluations = 155 310

MPI task timing breakdown:
Section |  min time  |  avg time  |  max time  |%varavg| %total
---------------------------------------------------------------
Pair    | 0.47147    | 1.3133     | 1.7072     |  31.0 | 71.71
Neigh   | 0          | 0          | 0          |   0.0 |  0.00
Comm    | 0.026937   | 0.29672    | 0.89136    |  45.1 | 16.20
Output  | 0.00025505 | 0.0002609  | 0.00041921 |   0.0 |  0.01
Modify  | 1.9014e-05 | 0.0025632  | 0.0055003  |   2.4 |  0.14
Other   |            | 0.2185     |            |       | 11.93

Nlocal:        2776.45 ave        3930 max           0 min
Histogram: 8 4 4 0 4 12 8 0 26 38
Nghost:        3879.03 ave        5425 max         232 min
Histogram: 8 0 8 0 16 0 8 8 16 40
Neighs:        79213.1 ave      114461 max           0 min
Histogram: 8 4 4 0 8 8 8 8 20 36

Total # of neighbors = 8238166
Ave neighs/atom = 28.530346
Neighbor list builds = 0
Dangerous builds = 0
The dot product: -2.24840710873068e-08
Setting atom values ...
  1 settings made for x
  1 settings made for y
  1 settings made for z
Setting up cg style minimization ...
  Unit style    : metal
  Current step  : 6004
Per MPI rank memory allocation (min/avg/max) = 5.441 | 5.816 | 6.074 Mbytes
Step PotEng KinEng TotEng v_fx v_fy v_fz 
    6004   -1152448.7            0   -1152448.7 0.00087093811  0.003347623 -0.0056527918 
    6193   -1152448.7            0   -1152448.7 8.276267e-06 1.3858979e-05 3.5517192e-06 
Loop time of 2.1836 on 104 procs for 189 steps with 288751 atoms

99.9% CPU use with 104 MPI tasks x 1 OpenMP threads

Minimization stats:
  Stopping criterion = energy tolerance
  Energy initial, next-to-last, final = 
     -1152448.70419477  -1152448.70648642  -1152448.70648642
  Force two-norm initial, final = 0.24206627 0.00015163397
  Force max component initial, final = 0.18565844 5.1317556e-05
  Final line search alpha, max atom move = 1.0000000 5.1317556e-05
  Iterations, force evaluations = 189 378

MPI task timing breakdown:
Section |  min time  |  avg time  |  max time  |%varavg| %total
---------------------------------------------------------------
Pair    | 0.57259    | 1.5865     | 2.0589     |  34.0 | 72.65
Neigh   | 0          | 0          | 0          |   0.0 |  0.00
Comm    | 0.03424    | 0.35609    | 1.071      |  50.1 | 16.31
Output  | 0          | 0          | 0          |   0.0 |  0.00
Modify  | 2.3211e-05 | 0.0031212  | 0.0066592  |   2.6 |  0.14
Other   |            | 0.2379     |            |       | 10.90

Nlocal:        2776.45 ave        3930 max           0 min
Histogram: 8 4 4 0 4 12 8 0 26 38
Nghost:        3878.93 ave        5425 max         232 min
Histogram: 8 0 8 0 16 0 8 8 16 40
Neighs:        79213.1 ave      114461 max           0 min
Histogram: 8 4 4 0 8 8 8 8 20 36

Total # of neighbors = 8238166
Ave neighs/atom = 28.530346
Neighbor list builds = 0
Dangerous builds = 0
The dot product: -9.63585883674746e-09
Setting atom values ...
  1 settings made for x
  1 settings made for y
  1 settings made for z
Setting up cg style minimization ...
  Unit style    : metal
  Current step  : 6193
Per MPI rank memory allocation (min/avg/max) = 5.441 | 5.816 | 6.074 Mbytes
Step PotEng KinEng TotEng v_fx v_fy v_fz 
    6193   -1152448.7            0   -1152448.7 0.0011814093 0.0039989554 -0.0060037609 
    6345   -1152448.7            0   -1152448.7 5.8546458e-06 1.0351379e-05 6.9142185e-07 
Loop time of 1.77002 on 104 procs for 152 steps with 288751 atoms

99.9% CPU use with 104 MPI tasks x 1 OpenMP threads

Minimization stats:
  Stopping criterion = energy tolerance
  Energy initial, next-to-last, final = 
     -1152448.66686492  -1152448.66916998  -1152448.66916998
  Force two-norm initial, final = 0.24403422 0.00019012834
  Force max component initial, final = 0.18810345 7.4065022e-05
  Final line search alpha, max atom move = 1.0000000 7.4065022e-05
  Iterations, force evaluations = 152 304

MPI task timing breakdown:
Section |  min time  |  avg time  |  max time  |%varavg| %total
---------------------------------------------------------------
Pair    | 0.46861    | 1.286      | 1.6624     |  30.3 | 72.65
Neigh   | 0          | 0          | 0          |   0.0 |  0.00
Comm    | 0.026225   | 0.28955    | 0.86969    |  45.0 | 16.36
Output  | 0          | 0          | 0          |   0.0 |  0.00
Modify  | 1.858e-05  | 0.0025125  | 0.0053967  |   2.4 |  0.14
Other   |            | 0.192      |            |       | 10.85

Nlocal:        2776.45 ave        3930 max           0 min
Histogram: 8 4 4 0 4 12 8 0 26 38
Nghost:        3878.92 ave        5426 max         232 min
Histogram: 8 0 8 0 16 0 8 8 16 40
Neighs:        79213.1 ave      114461 max           0 min
Histogram: 8 4 4 0 8 8 8 8 20 36

Total # of neighbors = 8238163
Ave neighs/atom = 28.530336
Neighbor list builds = 0
Dangerous builds = 0
The dot product: -7.21580227854414e-09
Setting atom values ...
  1 settings made for x
  1 settings made for y
  1 settings made for z
Setting up cg style minimization ...
  Unit style    : metal
  Current step  : 6345
Per MPI rank memory allocation (min/avg/max) = 5.441 | 5.816 | 6.074 Mbytes
Step PotEng KinEng TotEng v_fx v_fy v_fz 
    6345   -1152448.6            0   -1152448.6 0.0015437214 0.0048000626 -0.0065510513 
    6514   -1152448.6            0   -1152448.6 1.1057264e-06 -1.5212775e-06 1.1395182e-05 
Loop time of 1.96924 on 104 procs for 169 steps with 288751 atoms

99.9% CPU use with 104 MPI tasks x 1 OpenMP threads

[...]
Histogram: 8 4 4 0 4 12 8 2 28 34
Nghost:        3879.09 ave        5425 max         232 min
Histogram: 8 0 8 0 16 0 8 8 16 40
Neighs:        79213.3 ave      115432 max           0 min
Histogram: 8 4 4 0 10 6 8 8 24 32

Total # of neighbors = 8238186
Ave neighs/atom = 28.530415
Neighbor list builds = 0
Dangerous builds = 0
The dot product: -1.85627897624031e-08
Setting atom values ...
  1 settings made for x
  1 settings made for y
  1 settings made for z
Setting up cg style minimization ...
  Unit style    : metal
  Current step  : 25729
Per MPI rank memory allocation (min/avg/max) = 5.441 | 5.816 | 6.074 Mbytes
Step PotEng KinEng TotEng v_fx v_fy v_fz 
   25729   -1152449.2            0   -1152449.2  0.012091258 -0.0029543491  0.016906668 
   25910   -1152449.2            0   -1152449.2 -1.9893919e-05 -3.2393719e-05 -2.8097484e-05 
Loop time of 2.12843 on 104 procs for 181 steps with 288751 atoms

99.9% CPU use with 104 MPI tasks x 1 OpenMP threads

Minimization stats:
  Stopping criterion = energy tolerance
  Energy initial, next-to-last, final = 
     -1152449.24575572  -1152449.24722028  -1152449.24722028
  Force two-norm initial, final = 0.16606444 0.00015569787
  Force max component initial, final = 0.071401021 3.2393719e-05
  Final line search alpha, max atom move = 1.0000000 3.2393719e-05
  Iterations, force evaluations = 181 362

MPI task timing breakdown:
Section |  min time  |  avg time  |  max time  |%varavg| %total
---------------------------------------------------------------
Pair    | 0.55064    | 1.5242     | 1.9878     |  33.1 | 71.61
Neigh   | 0          | 0          | 0          |   0.0 |  0.00
Comm    | 0.034531   | 0.34505    | 1.0237     |  48.3 | 16.21
Output  | 0          | 0          | 0          |   0.0 |  0.00
Modify  | 2.2899e-05 | 0.0029945  | 0.0063462  |   2.6 |  0.14
Other   |            | 0.2562     |            |       | 12.04

Nlocal:        2776.45 ave        3960 max           0 min
Histogram: 8 4 4 0 4 12 8 2 28 34
Nghost:        3879.07 ave        5425 max         232 min
Histogram: 8 0 8 0 16 0 8 8 16 40
Neighs:        79213.3 ave      115422 max           0 min
Histogram: 8 4 4 0 10 6 8 8 24 32

Total # of neighbors = 8238186
Ave neighs/atom = 28.530415
Neighbor list builds = 0
Dangerous builds = 0
The dot product: -2.85445963542802e-08
Setting atom values ...
  1 settings made for x
  1 settings made for y
  1 settings made for z
Setting up cg style minimization ...
  Unit style    : metal
  Current step  : 25910
Per MPI rank memory allocation (min/avg/max) = 5.441 | 5.816 | 6.074 Mbytes
Step PotEng KinEng TotEng v_fx v_fy v_fz 
   25910   -1152449.2            0   -1152449.2  0.012137834 -0.0028049752  0.016997129 
   26000   -1152449.2            0   -1152449.2 -0.00015109473 -0.00027506886 -0.00021372799 
   26096   -1152449.2            0   -1152449.2 -2.2228894e-05 -4.0660095e-05 -3.1444761e-05 
Loop time of 2.21145 on 104 procs for 186 steps with 288751 atoms

99.9% CPU use with 104 MPI tasks x 1 OpenMP threads

Minimization stats:
  Stopping criterion = energy tolerance
  Energy initial, next-to-last, final = 
     -1152449.23725577  -1152449.23872275  -1152449.23872275
  Force two-norm initial, final = 0.1659139 0.00013351856
  Force max component initial, final = 0.071887779 4.0660095e-05
  Final line search alpha, max atom move = 1.0000000 4.0660095e-05
  Iterations, force evaluations = 186 372

MPI task timing breakdown:
Section |  min time  |  avg time  |  max time  |%varavg| %total
---------------------------------------------------------------
Pair    | 0.56467    | 1.5717     | 2.0697     |  33.9 | 71.07
Neigh   | 0          | 0          | 0          |   0.0 |  0.00
Comm    | 0.034221   | 0.36113    | 1.0673     |  48.9 | 16.33
Output  | 0.00016546 | 0.00018215 | 0.00035373 |   0.0 |  0.01
Modify  | 2.2949e-05 | 0.0030791  | 0.0065619  |   2.6 |  0.14
Other   |            | 0.2754     |            |       | 12.45

Nlocal:        2776.45 ave        3960 max           0 min
Histogram: 8 4 4 0 4 12 8 2 28 34
Nghost:        3879.12 ave        5426 max         232 min
Histogram: 8 0 8 0 16 0 8 8 16 40
Neighs:        79213.3 ave      115422 max           0 min
Histogram: 8 4 4 0 10 6 8 8 24 32

Total # of neighbors = 8238184
Ave neighs/atom = 28.530409
Neighbor list builds = 0
Dangerous builds = 0
The dot product: -2.89648632782099e-08
Setting atom values ...
  1 settings made for x
  1 settings made for y
  1 settings made for z
Setting up cg style minimization ...
  Unit style    : metal
  Current step  : 26096
Per MPI rank memory allocation (min/avg/max) = 5.441 | 5.816 | 6.074 Mbytes
Step PotEng KinEng TotEng v_fx v_fy v_fz 
   26096   -1152449.2            0   -1152449.2  0.013776754 8.0604782e-06  0.019343144 
   26267   -1152449.2            0   -1152449.2 -2.4056643e-05 -4.3853511e-05 -3.4047494e-05 
Loop time of 2.01885 on 104 procs for 171 steps with 288751 atoms

99.9% CPU use with 104 MPI tasks x 1 OpenMP threads

Minimization stats:
  Stopping criterion = energy tolerance
  Energy initial, next-to-last, final = 
     -1152449.22725473  -1152449.22870508  -1152449.22870508
  Force two-norm initial, final = 0.16575822 0.00021806831
  Force max component initial, final = 0.072302183 5.7056962e-05
  Final line search alpha, max atom move = 1.0000000 5.7056962e-05
  Iterations, force evaluations = 171 342

MPI task timing breakdown:
Section |  min time  |  avg time  |  max time  |%varavg| %total
---------------------------------------------------------------
Pair    | 0.52027    | 1.4391     | 1.8812     |  32.2 | 71.28
Neigh   | 0          | 0          | 0          |   0.0 |  0.00
Comm    | 0.03482    | 0.32795    | 0.97043    |  46.9 | 16.24
Output  | 0          | 0          | 0          |   0.0 |  0.00
Modify  | 2.1286e-05 | 0.0028308  | 0.0060151  |   2.5 |  0.14
Other   |            | 0.2489     |            |       | 12.33

Nlocal:        2776.45 ave        3960 max           0 min
Histogram: 8 4 4 0 4 12 8 3 27 34
Nghost:        3879.14 ave        5426 max         232 min
Histogram: 8 0 8 0 16 0 8 8 16 40
Neighs:        79213.3 ave      115431 max           0 min
Histogram: 8 4 4 0 10 6 8 8 24 32

Total # of neighbors = 8238181
Ave neighs/atom = 28.530398
Neighbor list builds = 0
Dangerous builds = 0
The dot product: -7.87043885918897e-08
Setting atom values ...
  1 settings made for x
  1 settings made for y
  1 settings made for z
Setting up cg style minimization ...
  Unit style    : metal
  Current step  : 26267
Per MPI rank memory allocation (min/avg/max) = 5.441 | 5.816 | 6.074 Mbytes
Step PotEng KinEng TotEng v_fx v_fy v_fz 
   26267   -1152449.2            0   -1152449.2  0.016361521 0.0044643642  0.023045209 
   26421   -1152449.2            0   -1152449.2 -9.4084722e-06 -1.152848e-05 -1.3302068e-05 
Loop time of 1.80666 on 104 procs for 154 steps with 288751 atoms

99.9% CPU use with 104 MPI tasks x 1 OpenMP threads

Minimization stats:
  Stopping criterion = energy tolerance
  Energy initial, next-to-last, final = 
     -1152449.21592259  -1152449.21737006  -1152449.21737006
  Force two-norm initial, final = 0.16654201 0.00024137571
  Force max component initial, final = 0.072646216 1.3302068e-05
  Final line search alpha, max atom move = 1.0000000 1.3302068e-05
  Iterations, force evaluations = 154 308

MPI task timing breakdown:
Section |  min time  |  avg time  |  max time  |%varavg| %total
---------------------------------------------------------------
Pair    | 0.46621    | 1.2973     | 1.7046     |  30.8 | 71.81
Neigh   | 0          | 0          | 0          |   0.0 |  0.00
Comm    | 0.026492   | 0.29624    | 0.87868    |  44.9 | 16.40
Output  | 0          | 0          | 0          |   0.0 |  0.00
Modify  | 1.8886e-05 | 0.0025511  | 0.005454   |   2.4 |  0.14
Other   |            | 0.2106     |            |       | 11.65

Nlocal:        2776.45 ave        3960 max           0 min
Histogram: 8 4 4 0 4 12 8 4 26 34
Nghost:        3879.09 ave        5426 max         232 min
Histogram: 8 0 8 0 16 0 8 8 16 40
Neighs:        79213.3 ave      115431 max           0 min
Histogram: 8 4 4 0 10 6 8 8 24 32

Total # of neighbors = 8238181
Ave neighs/atom = 28.530398
Neighbor list builds = 0
Dangerous builds = 0
The dot product: -7.1953106718789e-08
Setting atom values ...
  1 settings made for x
  1 settings made for y
  1 settings made for z
Setting up cg style minimization ...
  Unit style    : metal
  Current step  : 26421
Per MPI rank memory allocation (min/avg/max) = 5.441 | 5.816 | 6.074 Mbytes
Step PotEng KinEng TotEng v_fx v_fy v_fz 
   26421   -1152449.2            0   -1152449.2  0.016920922 0.0056483937  0.023914668 
   26593   -1152449.2            0   -1152449.2 3.9384659e-06 6.1658306e-06 5.5929907e-06 
Loop time of 1.99838 on 104 procs for 172 steps with 288751 atoms

99.9% CPU use with 104 MPI tasks x 1 OpenMP threads

Minimization stats:
  Stopping criterion = energy tolerance
  Energy initial, next-to-last, final = 
     -1152449.20345528  -1152449.20490906  -1152449.20490906
  Force two-norm initial, final = 0.16658772 0.00013735278
  Force max component initial, final = 0.072947837 2.3281799e-05
  Final line search alpha, max atom move = 1.0000000 2.3281799e-05
  Iterations, force evaluations = 172 344

MPI task timing breakdown:
Section |  min time  |  avg time  |  max time  |%varavg| %total
---------------------------------------------------------------
Pair    | 0.52036    | 1.4446     | 1.8816     |  32.3 | 72.29
Neigh   | 0          | 0          | 0          |   0.0 |  0.00
Comm    | 0.029773   | 0.32621    | 0.98311    |  47.4 | 16.32
Output  | 0          | 0          | 0          |   0.0 |  0.00
Modify  | 2.1362e-05 | 0.0028458  | 0.0060352  |   2.5 |  0.14
Other   |            | 0.2248     |            |       | 11.25

Nlocal:        2776.45 ave        3960 max           0 min
Histogram: 8 4 4 0 4 12 8 4 26 34
Nghost:        3879.09 ave        5426 max         232 min
Histogram: 8 0 8 0 16 0 8 8 16 40
Neighs:        79213.3 ave      115431 max           0 min
Histogram: 8 4 4 0 10 6 8 8 24 32

Total # of neighbors = 8238180
Ave neighs/atom = 28.530395
Neighbor list builds = 0
Dangerous builds = 0
The dot product: 3.44285811499327e-08
Setting atom values ...
  1 settings made for x
  1 settings made for y
  1 settings made for z
Setting up cg style minimization ...
  Unit style    : metal
  Current step  : 26593
Per MPI rank memory allocation (min/avg/max) = 5.441 | 5.816 | 6.074 Mbytes
Step PotEng KinEng TotEng v_fx v_fy v_fz 
   26593   -1152449.2            0   -1152449.2  0.016210845 0.0048353614  0.022990664 
   26750   -1152449.2            0   -1152449.2 -1.8742666e-06 -3.264243e-06 -2.6727711e-06 
Loop time of 1.84474 on 104 procs for 157 steps with 288751 atoms

99.9% CPU use with 104 MPI tasks x 1 OpenMP threads

Minimization stats:
  Stopping criterion = energy tolerance
  Energy initial, next-to-last, final = 
     -1152449.18986886  -1152449.19131399  -1152449.19131399
  Force two-norm initial, final = 0.16585434 0.00021148107
  Force max component initial, final = 0.073709936 6.4366474e-06
  Final line search alpha, max atom move = 1.0000000 6.4366474e-06
  Iterations, force evaluations = 157 314

MPI task timing breakdown:
Section |  min time  |  avg time  |  max time  |%varavg| %total
---------------------------------------------------------------
Pair    | 0.47538    | 1.3218     | 1.7308     |  31.0 | 71.65
Neigh   | 0          | 0          | 0          |   0.0 |  0.00
Comm    | 0.02862    | 0.3021     | 0.89543    |  45.2 | 16.38
Output  | 0          | 0          | 0          |   0.0 |  0.00
Modify  | 1.932e-05  | 0.0025986  | 0.0055045  |   2.4 |  0.14
Other   |            | 0.2182     |            |       | 11.83

Nlocal:        2776.45 ave        3960 max           0 min
Histogram: 8 4 4 0 4 12 8 4 26 34
Nghost:        3879.09 ave        5426 max         232 min
Histogram: 8 0 8 0 16 0 8 8 16 40
Neighs:        79213.2 ave      115431 max           0 min
Histogram: 8 4 4 0 10 6 8 8 24 32

Total # of neighbors = 8238177
Ave neighs/atom = 28.530384
Neighbor list builds = 0
Dangerous builds = 0
The dot product: -1.58296041641763e-08
Setting atom values ...
  1 settings made for x
  1 settings made for y
  1 settings made for z
Setting up cg style minimization ...
  Unit style    : metal
  Current step  : 26750
Per MPI rank memory allocation (min/avg/max) = 5.441 | 5.816 | 6.074 Mbytes
Step PotEng KinEng TotEng v_fx v_fy v_fz 
   26750   -1152449.2            0   -1152449.2  0.014034054 0.0017890453  0.019963551 
   26928   -1152449.2            0   -1152449.2 2.2741681e-06 3.9309466e-06 3.2538092e-06 
Loop time of 2.09652 on 104 procs for 178 steps with 288751 atoms

99.9% CPU use with 104 MPI tasks x 1 OpenMP threads

Minimization stats:
  Stopping criterion = energy tolerance
  Energy initial, next-to-last, final = 
     -1152449.17517077  -1152449.17657911  -1152449.17657911
  Force two-norm initial, final = 0.16445507 0.00010787814
  Force max component initial, final = 0.074429846 3.9309466e-06
  Final line search alpha, max atom move = 1.0000000 3.9309466e-06
  Iterations, force evaluations = 178 356

MPI task timing breakdown:
Section |  min time  |  avg time  |  max time  |%varavg| %total
---------------------------------------------------------------
Pair    | 0.55308    | 1.5006     | 1.9602     |  32.6 | 71.58
Neigh   | 0          | 0          | 0          |   0.0 |  0.00
Comm    | 0.031575   | 0.34051    | 1.0127     |  48.0 | 16.24
Output  | 0          | 0          | 0          |   0.0 |  0.00
Modify  | 2.2148e-05 | 0.0029447  | 0.0062317  |   2.5 |  0.14
Other   |            | 0.2524     |            |       | 12.04

Nlocal:        2776.45 ave        3960 max           0 min
Histogram: 8 4 4 0 4 12 8 4 26 34
Nghost:        3879.09 ave        5426 max         232 min
Histogram: 8 0 8 0 16 0 8 8 16 40
Neighs:        79213.2 ave      115431 max           0 min
Histogram: 8 4 4 0 10 6 8 8 24 32

Total # of neighbors = 8238176
Ave neighs/atom = 28.530381
Neighbor list builds = 0
Dangerous builds = 0
The dot product: 1.58317753092243e-08
Setting atom values ...
  1 settings made for x
  1 settings made for y
  1 settings made for z
Setting up cg style minimization ...
  Unit style    : metal
  Current step  : 26928
Per MPI rank memory allocation (min/avg/max) = 5.441 | 5.816 | 6.074 Mbytes
Step PotEng KinEng TotEng v_fx v_fy v_fz 
   26928   -1152449.2            0   -1152449.2  0.010894088 -0.0023581788  0.015532565 
   27000   -1152449.2            0   -1152449.2 -4.6920134e-06 6.8192882e-06 -6.6631279e-06 
   27070   -1152449.2            0   -1152449.2 2.3083173e-05 4.1079516e-05 3.3123066e-05 
Loop time of 1.66271 on 104 procs for 142 steps with 288751 atoms

99.9% CPU use with 104 MPI tasks x 1 OpenMP threads

Minimization stats:
  Stopping criterion = energy tolerance
  Energy initial, next-to-last, final = 
     -1152449.15942009   -1152449.1607884   -1152449.1607884
  Force two-norm initial, final = 0.16350074 0.00024481339
  Force max component initial, final = 0.075162142 4.6341593e-05
  Final line search alpha, max atom move = 1.0000000 4.6341593e-05
  Iterations, force evaluations = 142 284

MPI task timing breakdown:
Section |  min time  |  avg time  |  max time  |%varavg| %total
---------------------------------------------------------------
Pair    | 0.43172    | 1.1963     | 1.5688     |  29.4 | 71.95
Neigh   | 0          | 0          | 0          |   0.0 |  0.00
Comm    | 0.024679   | 0.27272    | 0.80949    |  43.0 | 16.40
Output  | 0.00016317 | 0.00016592 | 0.00033513 |   0.0 |  0.01
Modify  | 1.7706e-05 | 0.0023536  | 0.0050347  |   2.3 |  0.14
Other   |            | 0.1911     |            |       | 11.49

Nlocal:        2776.45 ave        3960 max           0 min
Histogram: 8 4 4 0 4 12 8 4 26 34
Nghost:        3879.10 ave        5426 max         232 min
Histogram: 8 0 8 0 16 0 8 8 16 40
Neighs:        79213.2 ave      115422 max           0 min
Histogram: 8 4 4 0 10 6 8 8 24 32

Total # of neighbors = 8238174
Ave neighs/atom = 28.530374
Neighbor list builds = 0
Dangerous builds = 0
The dot product: 6.57427503132738e-08
Setting atom values ...
  1 settings made for x
  1 settings made for y
  1 settings made for z
Setting up cg style minimization ...
  Unit style    : metal
  Current step  : 27070
Per MPI rank memory allocation (min/avg/max) = 5.441 | 5.816 | 6.074 Mbytes
Step PotEng KinEng TotEng v_fx v_fy v_fz 
   27070   -1152449.1            0   -1152449.1 0.0085101636 -0.004014904  0.012154644 
   27315   -1152449.1            0   -1152449.1 -4.2943907e-07 -7.1434998e-07 -6.1672614e-07 
Loop time of 2.86304 on 104 procs for 245 steps with 288751 atoms

99.9% CPU use with 104 MPI tasks x 1 OpenMP threads

Minimization stats:
  Stopping criterion = energy tolerance
  Energy initial, next-to-last, final = 
     -1152449.14268846  -1152449.14404064  -1152449.14404064
  Force two-norm initial, final = 0.16301549 6.3729498e-06
  Force max component initial, final = 0.07583135 7.2040701e-07
  Final line search alpha, max atom move = 1.0000000 7.2040701e-07
  Iterations, force evaluations = 245 490

MPI task timing breakdown:
Section |  min time  |  avg time  |  max time  |%varavg| %total
---------------------------------------------------------------
Pair    | 0.74173    | 2.0546     | 2.6928     |  38.6 | 71.76
Neigh   | 0          | 0          | 0          |   0.0 |  0.00
Comm    | 0.047675   | 0.46523    | 1.3901     |  56.6 | 16.25
Output  | 0          | 0          | 0          |   0.0 |  0.00
Modify  | 3.0168e-05 | 0.0040487  | 0.0086132  |   3.0 |  0.14
Other   |            | 0.3392     |            |       | 11.85

Nlocal:        2776.45 ave        3960 max           0 min
Histogram: 8 4 4 0 4 12 8 4 26 34
Nghost:        3879.10 ave        5426 max         232 min
Histogram: 8 0 8 0 16 0 8 8 16 40
Neighs:        79213.2 ave      115422 max           0 min
Histogram: 8 4 4 0 10 6 8 8 24 32

Total # of neighbors = 8238174
Ave neighs/atom = 28.530374
Neighbor list builds = 0
Dangerous builds = 0
The dot product: -3.01413622016276e-11
Setting up cg style minimization ...
  Unit style    : metal
  Current step  : 27315
Per MPI rank memory allocation (min/avg/max) = 5.441 | 5.816 | 6.074 Mbytes
Step PotEng KinEng TotEng v_fx v_fy v_fz 
   27315   -1152449.1            0   -1152449.1  -0.70609049 -0.0018206167   0.49377237 
   27689   -1152449.3            0   -1152449.3 -2.4783876e-07 -5.8768048e-07 -4.9526567e-07 
Loop time of 4.40607 on 104 procs for 374 steps with 288751 atoms

99.9% CPU use with 104 MPI tasks x 1 OpenMP threads

Minimization stats:
  Stopping criterion = linesearch alpha is zero
  Energy initial, next-to-last, final = 
     -1152449.14404064  -1152449.26566369  -1152449.26566369
  Force two-norm initial, final = 0.86161375 2.3149162e-06
  Force max component initial, final = 0.70609049 5.8768048e-07
  Final line search alpha, max atom move = 0.5 2.9384024e-07
  Iterations, force evaluations = 374 749

MPI task timing breakdown:
Section |  min time  |  avg time  |  max time  |%varavg| %total
---------------------------------------------------------------
Pair    | 1.1376     | 3.1529     | 4.1388     |  47.8 | 71.56
Neigh   | 2.0369e-05 | 0.0058856  | 0.0085963  |   3.2 |  0.13
Comm    | 0.065704   | 0.72459    | 2.1292     |  69.2 | 16.45
Output  | 0          | 0          | 0          |   0.0 |  0.00
Modify  | 4.2821e-05 | 0.0040319  | 0.010338   |   3.9 |  0.09
Other   |            | 0.5187     |            |       | 11.77

Nlocal:        2776.45 ave        3960 max           0 min
Histogram: 8 4 4 0 4 12 8 5 25 34
Nghost:        3879.11 ave        5427 max         232 min
Histogram: 8 0 8 0 16 0 8 8 16 40
Neighs:        79213.4 ave      115430 max           0 min
Histogram: 8 4 4 0 10 6 8 8 24 32

Total # of neighbors = 8238192
Ave neighs/atom = 28.530436
Neighbor list builds = 2
Dangerous builds = 0
