LAMMPS (29 Oct 2020)
OMP_NUM_THREADS environment is not set. Defaulting to 1 thread. (../comm.cpp:94)
  using 1 OpenMP thread(s) per MPI task
OMP_NUM_THREADS environment is not set. Defaulting to 1 thread. (../comm.cpp:94)
  using 1 OpenMP thread(s) per MPI task
Reading data file ...
  orthogonal box = (-122.39241 -121.13707 -37.090501) to (122.39241 121.13707 37.090501)
  13 by 4 by 1 MPI processor grid
  reading atoms ...
  288751 atoms
  read_data CPU = 0.440 seconds
199981 atoms in group inner
88770 atoms in group outer
1 atoms in group carbon
Neighbor list info ...
  update every 1 steps, delay 0 steps, check yes
  max neighbors/atom: 2000, page size: 100000
  master list distance cutoff = 5.6
  ghost atom cutoff = 5.6
  binsize = 2.8, bins = 88 87 27
  1 neighbor lists, perpetual/occasional/extra = 1 0 0
  (1) pair eam/alloy, perpetual
      attributes: half, newton on
      pair build: half/bin/atomonly/newton
      stencil: half/bin/3d/newton
      bin: standard
Setting up cg style minimization ...
  Unit style    : metal
  Current step  : 0
Per MPI rank memory allocation (min/avg/max) = 5.465 | 6.344 | 6.728 Mbytes
Step v_fx v_fy v_fz PotEng KinEng TotEng 
       0   0.58689573 -0.058645921   0.60456594   -1152447.8            0   -1152447.8 
     164 -7.7991694e-06 1.2373264e-05 4.6899975e-06   -1152449.5            0   -1152449.5 
Loop time of 3.66647 on 52 procs for 164 steps with 288751 atoms

99.9% CPU use with 52 MPI tasks x 1 OpenMP threads

Minimization stats:
  Stopping criterion = linesearch alpha is zero
  Energy initial, next-to-last, final = 
     -1152447.84418862   -1152449.4503526   -1152449.4503526
  Force two-norm initial, final = 9.8148683 9.7034633e-05
  Force max component initial, final = 4.5345719 1.2373264e-05
  Final line search alpha, max atom move = 0.5 6.1866322e-06
  Iterations, force evaluations = 164 328

MPI task timing breakdown:
Section |  min time  |  avg time  |  max time  |%varavg| %total
---------------------------------------------------------------
Pair    | 0.96185    | 2.6302     | 3.4324     |  44.1 | 71.74
Neigh   | 4.6449e-05 | 0.013047   | 0.01912    |   4.8 |  0.36
Comm    | 0.058897   | 0.58976    | 1.8417     |  68.1 | 16.09
Output  | 0          | 0          | 0          |   0.0 |  0.00
Modify  | 4.743e-05  | 0.0036592  | 0.0091287  |   3.6 |  0.10
Other   |            | 0.4298     |            |       | 11.72

Nlocal:        5552.90 ave        7916 max           0 min
Histogram: 4 2 2 0 2 6 4 1 14 17
Nghost:        6213.54 ave        8769 max         412 min
Histogram: 4 0 4 0 8 0 4 5 7 20
Neighs:       158427.0 ave      230753 max           0 min
Histogram: 4 2 2 0 5 3 4 4 12 16

Total # of neighbors = 8238197
Ave neighs/atom = 28.530454
Neighbor list builds = 2
Dangerous builds = 1
Setting atom values ...
  1 settings made for x
  1 settings made for y
  1 settings made for z
Setting up cg style minimization ...
  Unit style    : metal
  Current step  : 164
Per MPI rank memory allocation (min/avg/max) = 5.465 | 6.344 | 6.728 Mbytes
Step PotEng KinEng TotEng v_fx v_fy v_fz 
     164   -1152449.4            0   -1152449.4  0.015516095   0.00587403 -0.019392109 
     335   -1152449.5            0   -1152449.5 6.7268309e-06 -1.5277407e-05 -2.3654855e-05 
Loop time of 3.83759 on 52 procs for 171 steps with 288751 atoms

99.8% CPU use with 52 MPI tasks x 1 OpenMP threads

Minimization stats:
  Stopping criterion = linesearch alpha is zero
  Energy initial, next-to-last, final = 
     -1152449.44949178  -1152449.45006453  -1152449.45006453
  Force two-norm initial, final = 0.11249795 0.00012491703
  Force max component initial, final = 0.050076021 2.7154331e-05
  Final line search alpha, max atom move = 0.5 1.3577165e-05
  Iterations, force evaluations = 171 343

MPI task timing breakdown:
Section |  min time  |  avg time  |  max time  |%varavg| %total
---------------------------------------------------------------
Pair    | 0.9702     | 2.7331     | 3.5876     |  45.6 | 71.22
Neigh   | 0          | 0          | 0          |   0.0 |  0.00
Comm    | 0.067067   | 0.61491    | 1.9169     |  69.2 | 16.02
Output  | 0          | 0          | 0          |   0.0 |  0.00
Modify  | 5.7764e-05 | 0.0057811  | 0.012193   |   3.5 |  0.15
Other   |            | 0.4838     |            |       | 12.61

Nlocal:        5552.90 ave        7910 max           0 min
Histogram: 4 2 2 0 2 6 4 0 15 17
Nghost:        6213.54 ave        8769 max         412 min
Histogram: 4 0 4 0 8 0 4 5 7 20
Neighs:       158427.0 ave      230554 max           0 min
Histogram: 4 2 2 0 5 3 4 4 12 16

Total # of neighbors = 8238197
Ave neighs/atom = 28.530454
Neighbor list builds = 0
Dangerous builds = 0
Setting atom values ...
  1 settings made for x
  1 settings made for y
  1 settings made for z
Setting up cg style minimization ...
  Unit style    : metal
  Current step  : 335
Per MPI rank memory allocation (min/avg/max) = 5.465 | 6.344 | 6.728 Mbytes
Step PotEng KinEng TotEng v_fx v_fy v_fz 
     335   -1152449.4            0   -1152449.4  0.027306586 0.0091108002 -0.042713644 
     523   -1152449.4            0   -1152449.4 -6.6915198e-08 -5.3826369e-06 -6.2938262e-06 
Loop time of 4.1656 on 52 procs for 188 steps with 288751 atoms

99.9% CPU use with 52 MPI tasks x 1 OpenMP threads

Minimization stats:
  Stopping criterion = energy tolerance
  Energy initial, next-to-last, final = 
     -1152449.44631819  -1152449.44814974  -1152449.44814974
  Force two-norm initial, final = 0.20347606 9.1273801e-05
  Force max component initial, final = 0.090320981 1.1062354e-05
  Final line search alpha, max atom move = 1.0000000 1.1062354e-05
  Iterations, force evaluations = 188 376

MPI task timing breakdown:
Section |  min time  |  avg time  |  max time  |%varavg| %total
---------------------------------------------------------------
Pair    | 1.0597     | 2.9838     | 3.9222     |  47.7 | 71.63
Neigh   | 0          | 0          | 0          |   0.0 |  0.00
Comm    | 0.05988    | 0.66562    | 2.0896     |  72.9 | 15.98
Output  | 0          | 0          | 0          |   0.0 |  0.00
Modify  | 6.8098e-05 | 0.0063029  | 0.013314   |   3.7 |  0.15
Other   |            | 0.5098     |            |       | 12.24

Nlocal:        5552.90 ave        7909 max           0 min
Histogram: 4 2 2 0 2 6 4 0 15 17
Nghost:        6213.54 ave        8769 max         412 min
Histogram: 4 0 4 0 8 0 4 5 7 20
Neighs:       158427.0 ave      230527 max           0 min
Histogram: 4 2 2 0 5 3 4 4 12 16

Total # of neighbors = 8238197
Ave neighs/atom = 28.530454
Neighbor list builds = 0
Dangerous builds = 0
The dot product: 2.68769235891382e-08
Setting atom values ...
  1 settings made for x
  1 settings made for y
  1 settings made for z
Setting up cg style minimization ...
  Unit style    : metal
  Current step  : 523
Per MPI rank memory allocation (min/avg/max) = 5.465 | 6.344 | 6.728 Mbytes
Step PotEng KinEng TotEng v_fx v_fy v_fz 
     523   -1152449.4            0   -1152449.4  0.027323055  0.011853322 -0.052167368 
     645   -1152449.4            0   -1152449.4 8.0510369e-06 -4.7121238e-06 -2.9599965e-05 
Loop time of 2.71949 on 52 procs for 122 steps with 288751 atoms

99.9% CPU use with 52 MPI tasks x 1 OpenMP threads

Minimization stats:
  Stopping criterion = energy tolerance
  Energy initial, next-to-last, final = 
     -1152449.44288436  -1152449.44468953  -1152449.44468953
  Force two-norm initial, final = 0.20379602 0.00013732941
  Force max component initial, final = 0.0893014 3.1642477e-05
  Final line search alpha, max atom move = 1.0000000 3.1642477e-05
  Iterations, force evaluations = 122 244

MPI task timing breakdown:
Section |  min time  |  avg time  |  max time  |%varavg| %total
---------------------------------------------------------------
Pair    | 0.70096    | 1.9504     | 2.5599     |  38.4 | 71.72
Neigh   | 0          | 0          | 0          |   0.0 |  0.00
Comm    | 0.040962   | 0.43395    | 1.3614     |  58.8 | 15.96
Output  | 0          | 0          | 0          |   0.0 |  0.00
Modify  | 4.473e-05  | 0.0041161  | 0.0087191  |   3.0 |  0.15
Other   |            | 0.3311     |            |       | 12.17

Nlocal:        5552.90 ave        7909 max           0 min
Histogram: 4 2 2 0 2 6 4 0 15 17
Nghost:        6213.54 ave        8769 max         412 min
Histogram: 4 0 4 0 8 0 4 5 7 20
Neighs:       158427.0 ave      230531 max           0 min
Histogram: 4 2 2 0 5 3 4 4 12 16

Total # of neighbors = 8238196
Ave neighs/atom = 28.530450
Neighbor list builds = 0
Dangerous builds = 0
The dot product: 1.72884054047542e-07
Setting atom values ...
  1 settings made for x
  1 settings made for y
  1 settings made for z
Setting up cg style minimization ...
  Unit style    : metal
  Current step  : 645
Per MPI rank memory allocation (min/avg/max) = 5.465 | 6.344 | 6.728 Mbytes
Step PotEng KinEng TotEng v_fx v_fy v_fz 
     645   -1152449.4            0   -1152449.4  0.026369784   0.02041383 -0.054846504 
     755   -1152449.4            0   -1152449.4 4.3732357e-06 3.0481112e-06 -1.0020778e-05 
Loop time of 2.46794 on 52 procs for 110 steps with 288751 atoms

99.8% CPU use with 52 MPI tasks x 1 OpenMP threads

Minimization stats:
  Stopping criterion = energy tolerance
  Energy initial, next-to-last, final = 
     -1152449.43812927  -1152449.43991206  -1152449.43991206
  Force two-norm initial, final = 0.20174009 0.00020524686
  Force max component initial, final = 0.085668567 3.7077673e-05
  Final line search alpha, max atom move = 1.0000000 3.7077673e-05
  Iterations, force evaluations = 110 220

MPI task timing breakdown:
Section |  min time  |  avg time  |  max time  |%varavg| %total
---------------------------------------------------------------
Pair    | 0.61733    | 1.7506     | 2.2989     |  36.6 | 70.94
Neigh   | 0          | 0          | 0          |   0.0 |  0.00
Comm    | 0.037891   | 0.39351    | 1.2242     |  55.6 | 15.94
Output  | 0          | 0          | 0          |   0.0 |  0.00
Modify  | 3.6021e-05 | 0.0036889  | 0.007796   |   2.8 |  0.15
Other   |            | 0.3201     |            |       | 12.97

Nlocal:        5552.90 ave        7908 max           0 min
Histogram: 4 2 2 0 2 6 4 0 15 17
Nghost:        6213.54 ave        8769 max         412 min
Histogram: 4 0 4 0 8 0 4 5 7 20
Neighs:       158427.0 ave      230505 max           0 min
Histogram: 4 2 2 0 5 3 4 4 12 16

Total # of neighbors = 8238201
Ave neighs/atom = 28.530467
Neighbor list builds = 0
Dangerous builds = 0
The dot product: 7.31939762629627e-08
Setting atom values ...
  1 settings made for x
  1 settings made for y
  1 settings made for z
Setting up cg style minimization ...
  Unit style    : metal
  Current step  : 755
Per MPI rank memory allocation (min/avg/max) = 5.465 | 6.344 | 6.728 Mbytes
Step PotEng KinEng TotEng v_fx v_fy v_fz 
     755   -1152449.4            0   -1152449.4  0.023556932  0.027374111 -0.051148062 
     877   -1152449.4            0   -1152449.4 5.3314569e-07 3.9095413e-06 1.5295588e-05 
Loop time of 2.70593 on 52 procs for 122 steps with 288751 atoms

99.9% CPU use with 52 MPI tasks x 1 OpenMP threads

Minimization stats:
  Stopping criterion = energy tolerance
  Energy initial, next-to-last, final = 
      -1152449.4320642  -1152449.43379988  -1152449.43379988
  Force two-norm initial, final = 0.19752992 0.00027893226
  Force max component initial, final = 0.080746308 6.5362978e-05
  Final line search alpha, max atom move = 1.0000000 6.5362978e-05
  Iterations, force evaluations = 122 244

MPI task timing breakdown:
Section |  min time  |  avg time  |  max time  |%varavg| %total
---------------------------------------------------------------
Pair    | 0.68043    | 1.9437     | 2.5472     |  38.7 | 71.83
Neigh   | 0          | 0          | 0          |   0.0 |  0.00
Comm    | 0.038173   | 0.43243    | 1.3617     |  59.1 | 15.98
Output  | 0          | 0          | 0          |   0.0 |  0.00
Modify  | 3.9995e-05 | 0.0040843  | 0.0086774  |   2.9 |  0.15
Other   |            | 0.3257     |            |       | 12.04

Nlocal:        5552.90 ave        7907 max           0 min
Histogram: 4 2 2 0 2 6 4 0 15 17
Nghost:        6213.54 ave        8769 max         412 min
Histogram: 4 0 4 0 8 0 4 5 7 20
Neighs:       158427.0 ave      230478 max           0 min
Histogram: 4 2 2 0 5 3 4 4 12 16

Total # of neighbors = 8238198
Ave neighs/atom = 28.530457
Neighbor list builds = 0
Dangerous builds = 0
The dot product: -9.15151616510196e-08
Setting atom values ...
  1 settings made for x
  1 settings made for y
  1 settings made for z
Setting up cg style minimization ...
  Unit style    : metal
  Current step  : 877
Per MPI rank memory allocation (min/avg/max) = 5.465 | 6.344 | 6.728 Mbytes
Step PotEng KinEng TotEng v_fx v_fy v_fz 
     877   -1152449.4            0   -1152449.4  0.020004883   0.03048029 -0.044451919 
    1000   -1152449.4            0   -1152449.4 -9.2159823e-06 -8.5087647e-06 9.9459335e-05 
    1015   -1152449.4            0   -1152449.4 1.0233153e-05 8.3025848e-06 -0.00012678493 
Loop time of 3.05354 on 52 procs for 138 steps with 288751 atoms

99.9% CPU use with 52 MPI tasks x 1 OpenMP threads

Minimization stats:
  Stopping criterion = energy tolerance
  Energy initial, next-to-last, final = 
     -1152449.42463032  -1152449.42631001  -1152449.42631001
  Force two-norm initial, final = 0.1927817 0.00034348515
  Force max component initial, final = 0.075860269 0.00012678493
  Final line search alpha, max atom move = 1.0000000 0.00012678493
  Iterations, force evaluations = 138 276

MPI task timing breakdown:
Section |  min time  |  avg time  |  max time  |%varavg| %total
---------------------------------------------------------------
Pair    | 0.79646    | 2.1959     | 2.8836     |  40.5 | 71.91
Neigh   | 0          | 0          | 0          |   0.0 |  0.00
Comm    | 0.042595   | 0.48528    | 1.5312     |  62.7 | 15.89
Output  | 0.00022293 | 0.00022721 | 0.00039473 |   0.0 |  0.01
Modify  | 4.6338e-05 | 0.0046637  | 0.0098493  |   3.1 |  0.15
Other   |            | 0.3675     |            |       | 12.04

Nlocal:        5552.90 ave        7905 max           0 min
Histogram: 4 2 2 0 2 6 4 0 15 17
Nghost:        6213.54 ave        8769 max         412 min
Histogram: 4 0 4 0 8 0 4 5 7 20
Neighs:       158427.0 ave      230421 max           0 min
Histogram: 4 2 2 0 5 3 4 4 12 16

Total # of neighbors = 8238199
Ave neighs/atom = 28.530461
Neighbor list builds = 0
Dangerous builds = 0
The dot product: 7.75666666840034e-07
Setting atom values ...
  1 settings made for x
  1 settings made for y
  1 settings made for z
Setting up cg style minimization ...
  Unit style    : metal
  Current step  : 1015
Per MPI rank memory allocation (min/avg/max) = 5.465 | 6.344 | 6.728 Mbytes
Step PotEng KinEng TotEng v_fx v_fy v_fz 
    1015   -1152449.4            0   -1152449.4  0.016490105  0.030193038 -0.037576514 
    1199   -1152449.4            0   -1152449.4 -3.6867424e-07 -9.3849617e-07 8.6048777e-06 
Loop time of 4.10888 on 52 procs for 184 steps with 288751 atoms

99.8% CPU use with 52 MPI tasks x 1 OpenMP threads

Minimization stats:
  Stopping criterion = linesearch alpha is zero
  Energy initial, next-to-last, final = 
     -1152449.41577593  -1152449.41740411  -1152449.41740411
  Force two-norm initial, final = 0.18848771 0.00010818154
  Force max component initial, final = 0.071745578 1.3710677e-05
  Final line search alpha, max atom move = 0.5 6.8553386e-06
  Iterations, force evaluations = 184 369

MPI task timing breakdown:
Section |  min time  |  avg time  |  max time  |%varavg| %total
---------------------------------------------------------------
Pair    | 1.0315     | 2.9361     | 3.8498     |  47.5 | 71.46
Neigh   | 0          | 0          | 0          |   0.0 |  0.00
Comm    | 0.065622   | 0.65839    | 2.0627     |  72.3 | 16.02
Output  | 0          | 0          | 0          |   0.0 |  0.00
Modify  | 6.0921e-05 | 0.0061781  | 0.013092   |   3.6 |  0.15
Other   |            | 0.5083     |            |       | 12.37

Nlocal:        5552.90 ave        7905 max           0 min
Histogram: 4 2 2 0 2 6 4 0 15 17
Nghost:        6213.54 ave        8769 max         412 min
Histogram: 4 0 4 0 8 0 4 5 7 20
Neighs:       158427.0 ave      230410 max           0 min
Histogram: 4 2 2 0 5 3 4 4 12 16

Total # of neighbors = 8238200
Ave neighs/atom = 28.530464
Neighbor list builds = 0
Dangerous builds = 0
The dot product: -4.74018183440559e-08
Setting atom values ...
  1 settings made for x
  1 settings made for y
  1 settings made for z
Setting up cg style minimization ...
  Unit style    : metal
  Current step  : 1199
Per MPI rank memory allocation (min/avg/max) = 5.465 | 6.344 | 6.728 Mbytes
Step PotEng KinEng TotEng v_fx v_fy v_fz 
    1199   -1152449.4            0   -1152449.4  0.012882255  0.026912896 -0.031486361 
    1385   -1152449.4            0   -1152449.4 -8.255578e-07 -1.3484886e-06 -1.1777148e-06 
Loop time of 4.10384 on 52 procs for 186 steps with 288751 atoms

99.9% CPU use with 52 MPI tasks x 1 OpenMP threads

Minimization stats:
  Stopping criterion = energy tolerance
  Energy initial, next-to-last, final = 
     -1152449.40546709   -1152449.4070628   -1152449.4070628
  Force two-norm initial, final = 0.18479454 9.3540868e-05
  Force max component initial, final = 0.068384319 7.4562587e-06
  Final line search alpha, max atom move = 1.0000000 7.4562587e-06
  Iterations, force evaluations = 186 372

MPI task timing breakdown:
Section |  min time  |  avg time  |  max time  |%varavg| %total
---------------------------------------------------------------
Pair    | 1.0396     | 2.9469     | 3.8771     |  47.5 | 71.81
Neigh   | 0          | 0          | 0          |   0.0 |  0.00
Comm    | 0.055685   | 0.65578    | 2.0613     |  72.8 | 15.98
Output  | 0          | 0          | 0          |   0.0 |  0.00
Modify  | 6.1354e-05 | 0.0062031  | 0.013157   |   3.6 |  0.15
Other   |            | 0.4949     |            |       | 12.06

Nlocal:        5552.90 ave        7903 max           0 min
Histogram: 4 2 2 0 2 6 4 0 15 17
Nghost:        6213.54 ave        8769 max         412 min
Histogram: 4 0 4 0 8 0 4 5 7 20
Neighs:       158427.0 ave      230352 max           0 min
Histogram: 4 2 2 0 5 3 4 4 12 16

Total # of neighbors = 8238204
Ave neighs/atom = 28.530478
Neighbor list builds = 0
Dangerous builds = 0
The dot product: 5.66454109657737e-09
Setting atom values ...
  1 settings made for x
  1 settings made for y
  1 settings made for z
Setting up cg style minimization ...
  Unit style    : metal
  Current step  : 1385
Per MPI rank memory allocation (min/avg/max) = 5.465 | 6.344 | 6.728 Mbytes
Step PotEng KinEng TotEng v_fx v_fy v_fz 
    1385   -1152449.4            0   -1152449.4 0.0085373379  0.020392547 -0.027102503 
    1581   -1152449.4            0   -1152449.4 -4.6730909e-07 1.2935273e-06 -1.1586168e-05 
Loop time of 4.37925 on 52 procs for 196 steps with 288751 atoms

99.9% CPU use with 52 MPI tasks x 1 OpenMP threads

Minimization stats:
  Stopping criterion = energy tolerance
  Energy initial, next-to-last, final = 
     -1152449.39371028  -1152449.39530778  -1152449.39530778
  Force two-norm initial, final = 0.18185856 7.4757505e-05
  Force max component initial, final = 0.070862765 1.1950318e-05
  Final line search alpha, max atom move = 1.0000000 1.1950318e-05
  Iterations, force evaluations = 196 394

MPI task timing breakdown:
Section |  min time  |  avg time  |  max time  |%varavg| %total
---------------------------------------------------------------
Pair    | 1.1332     | 3.1456     | 4.1276     |  48.7 | 71.83
Neigh   | 0          | 0          | 0          |   0.0 |  0.00
Comm    | 0.061856   | 0.69823    | 2.1955     |  74.8 | 15.94
Output  | 0          | 0          | 0          |   0.0 |  0.00
Modify  | 7.9295e-05 | 0.0066448  | 0.014041   |   3.7 |  0.15
Other   |            | 0.5287     |            |       | 12.07

Nlocal:        5552.90 ave        7902 max           0 min
Histogram: 4 2 2 0 2 6 4 0 15 17
Nghost:        6213.54 ave        8769 max         412 min
Histogram: 4 0 4 0 8 0 4 5 7 20
Neighs:       158427.0 ave      230310 max           0 min
Histogram: 4 2 2 0 5 3 4 4 12 16

Total # of neighbors = 8238203
Ave neighs/atom = 28.530474
Neighbor list builds = 0
Dangerous builds = 0
The dot product: 5.44724954398356e-08
Setting atom values ...
  1 settings made for x
  1 settings made for y
  1 settings made for z
Setting up cg style minimization ...
  Unit style    : metal
  Current step  : 1581
Per MPI rank memory allocation (min/avg/max) = 5.465 | 6.344 | 6.728 Mbytes
Step PotEng KinEng TotEng v_fx v_fy v_fz 
    1581   -1152449.4            0   -1152449.4 0.0033798756  0.011808952  -0.02487483 
    1704   -1152449.4            0   -1152449.4 4.4428343e-06 -2.3844419e-05 0.00013317433 
Loop time of 2.72448 on 52 procs for 123 steps with 288751 atoms

99.9% CPU use with 52 MPI tasks x 1 OpenMP threads

Minimization stats:
  Stopping criterion = energy tolerance
  Energy initial, next-to-last, final = 
     -1152449.38054782   -1152449.3821981   -1152449.3821981
  Force two-norm initial, final = 0.18002636 0.00038653267
  Force max component initial, final = 0.074561246 0.00013317433
  Final line search alpha, max atom move = 1.0000000 0.00013317433
  Iterations, force evaluations = 123 246

MPI task timing breakdown:
Section |  min time  |  avg time  |  max time  |%varavg| %total
---------------------------------------------------------------
Pair    | 0.69778    | 1.9588     | 2.5731     |  38.6 | 71.90
Neigh   | 0          | 0          | 0          |   0.0 |  0.00
Comm    | 0.039297   | 0.4345     | 1.3694     |  59.3 | 15.95
Output  | 0          | 0          | 0          |   0.0 |  0.00
Modify  | 4.0818e-05 | 0.0041314  | 0.0087306  |   3.0 |  0.15
Other   |            | 0.3271     |            |       | 12.00

Nlocal:        5552.90 ave        7898 max           0 min
Histogram: 4 2 2 0 2 6 4 0 14 18
Nghost:        6213.54 ave        8769 max         412 min
Histogram: 4 0 4 0 8 0 4 5 7 20
Neighs:       158427.0 ave      230197 max           0 min
Histogram: 4 2 2 0 5 3 4 4 12 16

Total # of neighbors = 8238203
Ave neighs/atom = 28.530474
Neighbor list builds = 0
Dangerous builds = 0
The dot product: -6.49609219901924e-07
Setting atom values ...
  1 settings made for x
  1 settings made for y
  1 settings made for z
Setting up cg style minimization ...
  Unit style    : metal
  Current step  : 1704
Per MPI rank memory allocation (min/avg/max) = 5.465 | 6.344 | 6.728 Mbytes
Step PotEng KinEng TotEng v_fx v_fy v_fz 
    1704   -1152449.4            0   -1152449.4 -0.0035983792 0.0013326464 -0.025579372 
    1877   -1152449.4            0   -1152449.4 -4.2518326e-06 8.3945423e-06 -5.43269e-05 
Loop time of 3.84975 on 52 procs for 173 steps with 288751 atoms

99.9% CPU use with 52 MPI tasks x 1 OpenMP threads

Minimization stats:
  Stopping criterion = energy tolerance
  Energy initial, next-to-last, final = 
     -1152449.36608005  -1152449.36799689  -1152449.36799689
  Force two-norm initial, final = 0.17952328 0.00022610716
  Force max component initial, final = 0.079053277 6.3376551e-05
  Final line search alpha, max atom move = 1.0000000 6.3376551e-05
  Iterations, force evaluations = 173 346

MPI task timing breakdown:
Section |  min time  |  avg time  |  max time  |%varavg| %total
---------------------------------------------------------------
Pair    | 0.9677     | 2.7511     | 3.6139     |  46.0 | 71.46
Neigh   | 0          | 0          | 0          |   0.0 |  0.00
Comm    | 0.058211   | 0.61746    | 1.9312     |  69.8 | 16.04
Output  | 0          | 0          | 0          |   0.0 |  0.00
Modify  | 5.8566e-05 | 0.0057952  | 0.012283   |   3.5 |  0.15
Other   |            | 0.4754     |            |       | 12.35

Nlocal:        5552.90 ave        7895 max           0 min
Histogram: 4 2 2 0 2 6 4 0 14 18
Nghost:        6213.54 ave        8769 max         412 min
Histogram: 4 0 4 0 8 0 4 5 7 20
Neighs:       158427.0 ave      230085 max           0 min
Histogram: 4 2 2 0 5 3 4 4 12 16

Total # of neighbors = 8238202
Ave neighs/atom = 28.530471
Neighbor list builds = 0
Dangerous builds = 0
The dot product: 4.77127832852197e-07
Setting atom values ...
  1 settings made for x
  1 settings made for y
  1 settings made for z
Setting up cg style minimization ...
  Unit style    : metal
  Current step  : 1877
Per MPI rank memory allocation (min/avg/max) = 5.465 | 6.344 | 6.728 Mbytes
Step PotEng KinEng TotEng v_fx v_fy v_fz 
    1877   -1152449.4            0   -1152449.4 -0.017390155 -0.012998742 -0.036847413 
    2000   -1152449.4            0   -1152449.4 1.5915014e-05 -6.2492843e-05 0.00024923806 
    2041   -1152449.4            0   -1152449.4 -5.8116647e-06 1.806606e-05 -7.7239793e-05 
Loop time of 3.62528 on 52 procs for 164 steps with 288751 atoms

99.9% CPU use with 52 MPI tasks x 1 OpenMP threads

Minimization stats:
  Stopping criterion = energy tolerance
  Energy initial, next-to-last, final = 
     -1152449.35079021  -1152449.35297573  -1152449.35297573
  Force two-norm initial, final = 0.18213153 0.00032126923
  Force max component initial, final = 0.085063052 7.7239793e-05
  Final line search alpha, max atom move = 1.0000000 7.7239793e-05
  Iterations, force evaluations = 164 328

MPI task timing breakdown:
Section |  min time  |  avg time  |  max time  |%varavg| %total
---------------------------------------------------------------
Pair    | 0.91629    | 2.6034     | 3.4192     |  44.7 | 71.81
Neigh   | 0          | 0          | 0          |   0.0 |  0.00
Comm    | 0.055055   | 0.58041    | 1.8194     |  68.3 | 16.01
Output  | 0.00017293 | 0.00017717 | 0.00034305 |   0.0 |  0.00
Modify  | 5.4368e-05 | 0.0054803  | 0.011617   |   3.4 |  0.15
Other   |            | 0.4358     |            |       | 12.02

Nlocal:        5552.90 ave        7894 max           0 min
Histogram: 4 2 2 0 2 6 4 0 14 18
Nghost:        6213.50 ave        8769 max         412 min
Histogram: 4 0 4 0 8 0 4 5 7 20
Neighs:       158427.0 ave      230051 max           0 min
Histogram: 4 2 2 0 5 3 4 4 12 16

Total # of neighbors = 8238203
Ave neighs/atom = 28.530474
Neighbor list builds = 0
Dangerous builds = 0
The dot product: 8.20573952062796e-07
Setting atom values ...
  1 settings made for x
  1 settings made for y
  1 settings made for z
Setting up cg style minimization ...
  Unit style    : metal
  Current step  : 2041
Per MPI rank memory allocation (min/avg/max) = 5.465 | 6.344 | 6.728 Mbytes
Step PotEng KinEng TotEng v_fx v_fy v_fz 
    2041   -1152449.3            0   -1152449.3 -0.029501888 -0.021485632 -0.041660892 
    2236   -1152449.3            0   -1152449.3 2.4895874e-06 -3.6550051e-06 1.6879978e-05 
Loop time of 4.32896 on 52 procs for 195 steps with 288751 atoms

99.9% CPU use with 52 MPI tasks x 1 OpenMP threads

Minimization stats:
  Stopping criterion = energy tolerance
  Energy initial, next-to-last, final = 
     -1152449.33479128  -1152449.33715389  -1152449.33715389
  Force two-norm initial, final = 0.18491234 0.00013263721
  Force max component initial, final = 0.092252218 1.9887101e-05
  Final line search alpha, max atom move = 1.0000000 1.9887101e-05
  Iterations, force evaluations = 195 392

MPI task timing breakdown:
Section |  min time  |  avg time  |  max time  |%varavg| %total
---------------------------------------------------------------
Pair    | 1.0985     | 3.1208     | 4.0847     |  48.9 | 72.09
Neigh   | 0          | 0          | 0          |   0.0 |  0.00
Comm    | 0.060862   | 0.69388    | 2.1904     |  75.0 | 16.03
Output  | 0          | 0          | 0          |   0.0 |  0.00
Modify  | 7.0782e-05 | 0.0065392  | 0.013851   |   3.7 |  0.15
Other   |            | 0.5077     |            |       | 11.73

Nlocal:        5552.90 ave        7891 max           0 min
Histogram: 4 2 2 0 2 6 4 0 14 18
Nghost:        6213.50 ave        8769 max         412 min
Histogram: 4 0 4 0 8 0 4 5 7 20
Neighs:       158427.0 ave      229962 max           0 min
Histogram: 4 2 2 0 5 3 4 4 12 16

Total # of neighbors = 8238205
Ave neighs/atom = 28.530481
Neighbor list builds = 0
Dangerous builds = 0
The dot product: -1.96411474941621e-07
Setting atom values ...
  1 settings made for x
  1 settings made for y
  1 settings made for z
Setting up cg style minimization ...
  Unit style    : metal
  Current step  : 2236
Per MPI rank memory allocation (min/avg/max) = 5.465 | 6.344 | 6.728 Mbytes
Step PotEng KinEng TotEng v_fx v_fy v_fz 
    2236   -1152449.3            0   -1152449.3 -0.033916297  -0.02246305 -0.036613597 
    2418   -1152449.3            0   -1152449.3 3.3167951e-06 -1.2809226e-05 3.6157557e-05 
Loop time of 4.07255 on 52 procs for 182 steps with 288751 atoms

99.9% CPU use with 52 MPI tasks x 1 OpenMP threads

Minimization stats:
  Stopping criterion = linesearch alpha is zero
  Energy initial, next-to-last, final = 
     -1152449.31792221   -1152449.3201353   -1152449.3201353
  Force two-norm initial, final = 0.18423145 0.00023362458
  Force max component initial, final = 0.099149125 5.7967256e-05
  Final line search alpha, max atom move = 0.125 7.2459070e-06
  Iterations, force evaluations = 182 369

MPI task timing breakdown:
Section |  min time  |  avg time  |  max time  |%varavg| %total
---------------------------------------------------------------
Pair    | 1.0326     | 2.9246     | 3.8477     |  47.3 | 71.81
Neigh   | 0          | 0          | 0          |   0.0 |  0.00
Comm    | 0.056037   | 0.65084    | 2.0442     |  72.5 | 15.98
Output  | 0          | 0          | 0          |   0.0 |  0.00
Modify  | 6.3249e-05 | 0.006166   | 0.013029   |   3.6 |  0.15
Other   |            | 0.4909     |            |       | 12.05

Nlocal:        5552.90 ave        7888 max           0 min
Histogram: 4 2 2 0 2 6 4 0 14 18
Nghost:        6213.69 ave        8769 max         412 min
Histogram: 4 0 4 0 8 0 4 5 7 20
Neighs:       158427.0 ave      229844 max           0 min
Histogram: 4 2 2 0 5 3 4 4 11 17

Total # of neighbors = 8238204
Ave neighs/atom = 28.530478
Neighbor list builds = 0
Dangerous builds = 0
The dot product: -3.05216671500544e-07
Setting atom values ...
  1 settings made for x
  1 settings made for y
  1 settings made for z
Setting up cg style minimization ...
  Unit style    : metal
  Current step  : 2418
Per MPI rank memory allocation (min/avg/max) = 5.465 | 6.344 | 6.728 Mbytes
Step PotEng KinEng TotEng v_fx v_fy v_fz 
    2418   -1152449.3            0   -1152449.3 -0.031690578 -0.019599634 -0.027407257 
    2611   -1152449.3            0   -1152449.3 8.2051219e-07 2.7119746e-06 -3.7218401e-06 
Loop time of 4.28649 on 52 procs for 193 steps with 288751 atoms

99.9% CPU use with 52 MPI tasks x 1 OpenMP threads

Minimization stats:
  Stopping criterion = linesearch alpha is zero
  Energy initial, next-to-last, final = 
     -1152449.29972225  -1152449.30179016  -1152449.30179016
  Force two-norm initial, final = 0.18146581 0.00013967966
  Force max component initial, final = 0.10484374 2.4087198e-05
  Final line search alpha, max atom move = 0.5 1.2043599e-05
  Iterations, force evaluations = 193 387

MPI task timing breakdown:
Section |  min time  |  avg time  |  max time  |%varavg| %total
---------------------------------------------------------------
Pair    | 1.0859     | 3.0799     | 4.0349     |  48.6 | 71.85
Neigh   | 0          | 0          | 0          |   0.0 |  0.00
Comm    | 0.060478   | 0.68636    | 2.1491     |  74.2 | 16.01
Output  | 0          | 0          | 0          |   0.0 |  0.00
Modify  | 6.4483e-05 | 0.0064609  | 0.013734   |   3.7 |  0.15
Other   |            | 0.5138     |            |       | 11.99

Nlocal:        5552.90 ave        7885 max           0 min
Histogram: 4 2 2 0 2 6 4 0 14 18
Nghost:        6213.73 ave        8770 max         412 min
Histogram: 4 0 4 0 8 0 4 5 7 20
Neighs:       158427.0 ave      229742 max           0 min
Histogram: 4 2 2 0 5 3 4 4 11 17

Total # of neighbors = 8238208
Ave neighs/atom = 28.530492
Neighbor list builds = 0
Dangerous builds = 0
The dot product: 8.39742859841844e-09
Setting atom values ...
  1 settings made for x
  1 settings made for y
  1 settings made for z
Setting up cg style minimization ...
  Unit style    : metal
  Current step  : 2611
Per MPI rank memory allocation (min/avg/max) = 5.465 | 6.344 | 6.728 Mbytes
Step PotEng KinEng TotEng v_fx v_fy v_fz 
    2611   -1152449.3            0   -1152449.3 -0.027505382 -0.015671076 -0.020743779 
    2839   -1152449.3            0   -1152449.3 -7.6900545e-07 -3.9383723e-07 -6.6405127e-07 
Loop time of 5.03024 on 52 procs for 228 steps with 288751 atoms

99.9% CPU use with 52 MPI tasks x 1 OpenMP threads

Minimization stats:
  Stopping criterion = energy tolerance
  Energy initial, next-to-last, final = 
      -1152449.2801751  -1152449.28217856  -1152449.28217856
  Force two-norm initial, final = 0.17883605 3.7469765e-05
  Force max component initial, final = 0.10917173 3.4503415e-06
  Final line search alpha, max atom move = 1.0000000 3.4503415e-06
  Iterations, force evaluations = 228 456

MPI task timing breakdown:
Section |  min time  |  avg time  |  max time  |%varavg| %total
---------------------------------------------------------------
Pair    | 1.3046     | 3.6178     | 4.7524     |  52.1 | 71.92
Neigh   | 0          | 0          | 0          |   0.0 |  0.00
Comm    | 0.071091   | 0.8016     | 2.5217     |  80.4 | 15.94
Output  | 0          | 0          | 0          |   0.0 |  0.00
Modify  | 7.988e-05  | 0.0077276  | 0.016157   |   4.1 |  0.15
Other   |            | 0.6031     |            |       | 11.99

Nlocal:        5552.90 ave        7881 max           0 min
Histogram: 4 2 2 0 2 6 4 0 14 18
Nghost:        6213.69 ave        8770 max         412 min
Histogram: 4 0 4 0 8 0 4 5 7 20
Neighs:       158427.0 ave      229649 max           0 min
Histogram: 4 2 2 0 5 3 4 4 11 17

Total # of neighbors = 8238213
Ave neighs/atom = 28.530509
Neighbor list builds = 0
Dangerous builds = 0
The dot product: 1.41052379387793e-08
Setting atom values ...
  1 settings made for x
  1 settings made for y
  1 settings made for z
Setting up cg style minimization ...
  Unit style    : metal
  Current step  : 2839
Per MPI rank memory allocation (min/avg/max) = 5.465 | 6.344 | 6.728 Mbytes
Step PotEng KinEng TotEng v_fx v_fy v_fz 
    2839   -1152449.3            0   -1152449.3 -0.023548956  -0.01145178 -0.017834877 
    3000   -1152449.3            0   -1152449.3 -7.642591e-06 6.3536571e-06 -2.3920606e-05 
    3024   -1152449.3            0   -1152449.3 -1.2111303e-05 2.0118171e-05 -5.6002334e-05 
Loop time of 4.11163 on 52 procs for 185 steps with 288751 atoms

99.9% CPU use with 52 MPI tasks x 1 OpenMP threads

Minimization stats:
  Stopping criterion = energy tolerance
  Energy initial, next-to-last, final = 
     -1152449.25943183  -1152449.26135101  -1152449.26135101
  Force two-norm initial, final = 0.17676017 0.00017305591
  Force max component initial, final = 0.1127239 5.6002334e-05
  Final line search alpha, max atom move = 1.0000000 5.6002334e-05
  Iterations, force evaluations = 185 372

MPI task timing breakdown:
Section |  min time  |  avg time  |  max time  |%varavg| %total
---------------------------------------------------------------
Pair    | 1.0578     | 2.9608     | 3.8779     |  47.3 | 72.01
Neigh   | 0          | 0          | 0          |   0.0 |  0.00
Comm    | 0.063892   | 0.65788    | 2.0684     |  72.8 | 16.00
Output  | 0.00021702 | 0.00022127 | 0.00038868 |   0.0 |  0.01
Modify  | 6.4887e-05 | 0.0062469  | 0.013202   |   3.6 |  0.15
Other   |            | 0.4865     |            |       | 11.83

Nlocal:        5552.90 ave        7875 max           0 min
Histogram: 4 2 2 0 2 6 4 0 14 18
Nghost:        6213.69 ave        8770 max         412 min
Histogram: 4 0 4 0 8 0 4 5 7 20
Neighs:       158427.0 ave      229450 max           0 min
Histogram: 4 2 2 0 4 4 4 4 11 17

Total # of neighbors = 8238216
Ave neighs/atom = 28.530519
Neighbor list builds = 0
Dangerous builds = 0
The dot product: 4.89089569691958e-07
Setting atom values ...
  1 settings made for x
  1 settings made for y
  1 settings made for z
Setting up cg style minimization ...
  Unit style    : metal
  Current step  : 3024
Per MPI rank memory allocation (min/avg/max) = 5.465 | 6.344 | 6.728 Mbytes
Step PotEng KinEng TotEng v_fx v_fy v_fz 
    3024   -1152449.2            0   -1152449.2 -0.020043478 -0.007909322 -0.016084649 
    3190   -1152449.2            0   -1152449.2 -1.3762074e-05 2.1871142e-05 -5.7845247e-05 
Loop time of 3.69 on 52 procs for 166 steps with 288751 atoms

99.9% CPU use with 52 MPI tasks x 1 OpenMP threads

Minimization stats:
  Stopping criterion = energy tolerance
  Energy initial, next-to-last, final = 
     -1152449.23744217  -1152449.23932824  -1152449.23932824
  Force two-norm initial, final = 0.17514928 0.00026493084
  Force max component initial, final = 0.11582754 5.7845247e-05
  Final line search alpha, max atom move = 1.0000000 5.7845247e-05
  Iterations, force evaluations = 166 332

MPI task timing breakdown:
Section |  min time  |  avg time  |  max time  |%varavg| %total
---------------------------------------------------------------
Pair    | 0.92718    | 2.6376     | 3.4677     |  45.0 | 71.48
Neigh   | 0          | 0          | 0          |   0.0 |  0.00
Comm    | 0.055731   | 0.59135    | 1.8395     |  68.1 | 16.03
Output  | 0          | 0          | 0          |   0.0 |  0.00
Modify  | 5.5201e-05 | 0.0055489  | 0.011735   |   3.4 |  0.15
Other   |            | 0.4555     |            |       | 12.34

Nlocal:        5552.90 ave        7871 max           0 min
Histogram: 4 2 2 0 2 6 4 0 14 18
Nghost:        6213.69 ave        8770 max         412 min
Histogram: 4 0 4 0 8 0 4 5 7 20
Neighs:       158427.0 ave      229302 max           0 min
Histogram: 4 2 2 0 4 4 4 4 11 17

Total # of neighbors = 8238212
Ave neighs/atom = 28.530506
Neighbor list builds = 0
Dangerous builds = 0
The dot product: 5.52126356978352e-07
Setting atom values ...
  1 settings made for x
  1 settings made for y
  1 settings made for z
Setting up cg style minimization ...
  Unit style    : metal
  Current step  : 3190
Per MPI rank memory allocation (min/avg/max) = 5.465 | 6.344 | 6.728 Mbytes
Step PotEng KinEng TotEng v_fx v_fy v_fz 
    3190   -1152449.2            0   -1152449.2 -0.018881353 -0.0050762972  -0.01721129 
    3430   -1152449.2            0   -1152449.2 -6.3502245e-07 9.0229861e-07 -2.3275044e-06 
Loop time of 5.3674 on 52 procs for 240 steps with 288751 atoms

99.9% CPU use with 52 MPI tasks x 1 OpenMP threads

Minimization stats:
  Stopping criterion = linesearch alpha is zero
  Energy initial, next-to-last, final = 
     -1152449.21431436  -1152449.21635416  -1152449.21635416
  Force two-norm initial, final = 0.17421924 2.5041141e-05
  Force max component initial, final = 0.11866638 3.6012156e-06
  Final line search alpha, max atom move = 0.5 1.8006078e-06
  Iterations, force evaluations = 240 483

MPI task timing breakdown:
Section |  min time  |  avg time  |  max time  |%varavg| %total
---------------------------------------------------------------
Pair    | 1.3766     | 3.8458     | 5.0344     |  53.9 | 71.65
Neigh   | 0          | 0          | 0          |   0.0 |  0.00
Comm    | 0.083946   | 0.85762    | 2.6895     |  82.5 | 15.98
Output  | 0          | 0          | 0          |   0.0 |  0.00
Modify  | 8.1677e-05 | 0.0081337  | 0.017241   |   4.2 |  0.15
Other   |            | 0.6558     |            |       | 12.22

Nlocal:        5552.90 ave        7869 max           0 min
Histogram: 4 2 2 0 2 6 4 0 14 18
Nghost:        6213.69 ave        8770 max         412 min
Histogram: 4 0 4 0 8 0 4 5 7 20
Neighs:       158427.0 ave      229233 max           0 min
Histogram: 4 2 2 0 4 4 4 4 10 18

Total # of neighbors = 8238211
Ave neighs/atom = 28.530502
Neighbor list builds = 0
Dangerous builds = 0
The dot product: 2.97479689843627e-08
Setting atom values ...
  1 settings made for x
  1 settings made for y
  1 settings made for z
Setting up cg style minimization ...
  Unit style    : metal
  Current step  : 3430
Per MPI rank memory allocation (min/avg/max) = 5.465 | 6.344 | 6.728 Mbytes
Step PotEng KinEng TotEng v_fx v_fy v_fz 
    3430   -1152449.2            0   -1152449.2 -0.023099307 -0.0023659809 -0.024502805 
    3646   -1152449.2            0   -1152449.2 2.3386819e-06 -2.571469e-06 6.7823747e-06 
Loop time of 4.77541 on 52 procs for 216 steps with 288751 atoms

99.9% CPU use with 52 MPI tasks x 1 OpenMP threads

Minimization stats:
  Stopping criterion = energy tolerance
  Energy initial, next-to-last, final = 
     -1152449.19054245  -1152449.19277984  -1152449.19277984
  Force two-norm initial, final = 0.17446156 6.9081644e-05
  Force max component initial, final = 0.1212667 1.4883267e-05
  Final line search alpha, max atom move = 1.0000000 1.4883267e-05
  Iterations, force evaluations = 216 432

MPI task timing breakdown:
Section |  min time  |  avg time  |  max time  |%varavg| %total
---------------------------------------------------------------
Pair    | 1.2022     | 3.432      | 4.5039     |  51.4 | 71.87
Neigh   | 0          | 0          | 0          |   0.0 |  0.00
Comm    | 0.068059   | 0.76718    | 2.4077     |  78.4 | 16.07
Output  | 0          | 0          | 0          |   0.0 |  0.00
Modify  | 7.2179e-05 | 0.0072086  | 0.015317   |   3.9 |  0.15
Other   |            | 0.569      |            |       | 11.92

Nlocal:        5552.90 ave        7870 max           0 min
Histogram: 4 2 2 0 2 6 4 0 14 18
Nghost:        6213.67 ave        8770 max         412 min
Histogram: 4 0 4 0 8 0 4 5 7 20
Neighs:       158427.0 ave      229247 max           0 min
Histogram: 4 2 2 0 4 4 4 4 10 18

Total # of neighbors = 8238211
Ave neighs/atom = 28.530502
Neighbor list builds = 0
Dangerous builds = 0
The dot product: -1.1348035669695e-07
Setting atom values ...
  1 settings made for x
  1 settings made for y
  1 settings made for z
Setting up cg style minimization ...
  Unit style    : metal
  Current step  : 3646
Per MPI rank memory allocation (min/avg/max) = 5.465 | 6.344 | 6.728 Mbytes
Step PotEng KinEng TotEng v_fx v_fy v_fz 
    3646   -1152449.2            0   -1152449.2 -0.028198182 -3.1767814e-05 -0.030512758 
    3823   -1152449.2            0   -1152449.2 1.0637217e-05 -1.6832533e-05 3.5495668e-05 
Loop time of 3.91009 on 52 procs for 177 steps with 288751 atoms

99.9% CPU use with 52 MPI tasks x 1 OpenMP threads

Minimization stats:
  Stopping criterion = energy tolerance
  Energy initial, next-to-last, final = 
     -1152449.16632932  -1152449.16851116  -1152449.16851116
  Force two-norm initial, final = 0.17523394 0.0001904549
  Force max component initial, final = 0.12400851 5.5289585e-05
  Final line search alpha, max atom move = 1.0000000 5.5289585e-05
  Iterations, force evaluations = 177 354

MPI task timing breakdown:
Section |  min time  |  avg time  |  max time  |%varavg| %total
---------------------------------------------------------------
Pair    | 0.98899    | 2.8156     | 3.6882     |  46.6 | 72.01
Neigh   | 0          | 0          | 0          |   0.0 |  0.00
Comm    | 0.060419   | 0.62686    | 1.9659     |  71.1 | 16.03
Output  | 0          | 0          | 0          |   0.0 |  0.00
Modify  | 6.0232e-05 | 0.0059376  | 0.012534   |   3.6 |  0.15
Other   |            | 0.4617     |            |       | 11.81

Nlocal:        5552.90 ave        7871 max           0 min
Histogram: 4 2 2 0 2 6 4 0 14 18
Nghost:        6213.67 ave        8770 max         412 min
Histogram: 4 0 4 0 8 0 4 5 7 20
Neighs:       158427.0 ave      229283 max           0 min
Histogram: 4 2 2 0 4 4 4 4 10 18

Total # of neighbors = 8238215
Ave neighs/atom = 28.530516
Neighbor list builds = 0
Dangerous builds = 0
The dot product: -5.78846419571686e-07
Setting atom values ...
  1 settings made for x
  1 settings made for y
  1 settings made for z
Setting up cg style minimization ...
  Unit style    : metal
  Current step  : 3823
Per MPI rank memory allocation (min/avg/max) = 5.465 | 6.344 | 6.728 Mbytes
Step PotEng KinEng TotEng v_fx v_fy v_fz 
    3823   -1152449.1            0   -1152449.1 -0.027497069 0.0011757842 -0.028343954 
    4000   -1152449.1            0   -1152449.1 3.3331135e-06 -1.1545847e-05 1.8649742e-05 
    4011   -1152449.1            0   -1152449.1 3.3381832e-06 -1.4568382e-05 2.2687254e-05 
Loop time of 4.17348 on 52 procs for 188 steps with 288751 atoms

99.9% CPU use with 52 MPI tasks x 1 OpenMP threads

Minimization stats:
  Stopping criterion = linesearch alpha is zero
  Energy initial, next-to-last, final = 
     -1152449.14119577  -1152449.14324776  -1152449.14324776
  Force two-norm initial, final = 0.1746429 0.00012822011
  Force max component initial, final = 0.12709591 2.3903485e-05
  Final line search alpha, max atom move = 0.5 1.1951742e-05
  Iterations, force evaluations = 188 377

MPI task timing breakdown:
Section |  min time  |  avg time  |  max time  |%varavg| %total
---------------------------------------------------------------
Pair    | 1.0514     | 2.9895     | 3.9298     |  47.9 | 71.63
Neigh   | 0          | 0          | 0          |   0.0 |  0.00
Comm    | 0.058393   | 0.66591    | 2.089      |  73.3 | 15.96
Output  | 0.00016987 | 0.00017589 | 0.00036447 |   0.0 |  0.00
Modify  | 6.1362e-05 | 0.0062899  | 0.013333   |   3.7 |  0.15
Other   |            | 0.5116     |            |       | 12.26

Nlocal:        5552.90 ave        7871 max           0 min
Histogram: 4 2 2 0 2 6 4 0 14 18
Nghost:        6213.67 ave        8770 max         412 min
Histogram: 4 0 4 0 8 0 4 5 7 20
Neighs:       158427.0 ave      229263 max           0 min
Histogram: 4 2 2 0 4 4 4 4 10 18

Total # of neighbors = 8238215
Ave neighs/atom = 28.530516
Neighbor list builds = 0
Dangerous builds = 0
The dot product: -3.15198060943914e-07
Setting atom values ...
  1 settings made for x
  1 settings made for y
  1 settings made for z
Setting up cg style minimization ...
  Unit style    : metal
  Current step  : 4011
Per MPI rank memory allocation (min/avg/max) = 5.465 | 6.344 | 6.728 Mbytes
Step PotEng KinEng TotEng v_fx v_fy v_fz 
    4011   -1152449.1            0   -1152449.1 -0.023940175  0.001883256 -0.023665996 
    4213   -1152449.1            0   -1152449.1 -3.1514526e-07 -6.5658639e-06 8.0091883e-06 
Loop time of 4.45536 on 52 procs for 202 steps with 288751 atoms

99.9% CPU use with 52 MPI tasks x 1 OpenMP threads

Minimization stats:
  Stopping criterion = energy tolerance
  Energy initial, next-to-last, final = 
     -1152449.11493813  -1152449.11679729  -1152449.11679729
  Force two-norm initial, final = 0.17381104 9.4694176e-05
  Force max component initial, final = 0.13011514 1.8957257e-05
  Final line search alpha, max atom move = 1.0000000 1.8957257e-05
  Iterations, force evaluations = 202 404

MPI task timing breakdown:
Section |  min time  |  avg time  |  max time  |%varavg| %total
---------------------------------------------------------------
Pair    | 1.1287     | 3.2145     | 4.2084     |  49.7 | 72.15
Neigh   | 0          | 0          | 0          |   0.0 |  0.00
Comm    | 0.0635     | 0.71702    | 2.2696     |  76.2 | 16.09
Output  | 0          | 0          | 0          |   0.0 |  0.00
Modify  | 7.0246e-05 | 0.0067269  | 0.014263   |   3.8 |  0.15
Other   |            | 0.5172     |            |       | 11.61

Nlocal:        5552.90 ave        7871 max           0 min
Histogram: 4 2 2 0 2 6 4 0 14 18
Nghost:        6213.67 ave        8770 max         412 min
Histogram: 4 0 4 0 8 0 4 5 7 20
Neighs:       158427.0 ave      229260 max           0 min
Histogram: 4 2 2 0 4 4 4 4 10 18

Total # of neighbors = 8238214
Ave neighs/atom = 28.530512
Neighbor list builds = 0
Dangerous builds = 0
The dot product: -8.73492993301508e-08
Setting atom values ...
  1 settings made for x
  1 settings made for y
  1 settings made for z
Setting up cg style minimization ...
  Unit style    : metal
  Current step  : 4213
Per MPI rank memory allocation (min/avg/max) = 5.465 | 6.344 | 6.728 Mbytes
Step PotEng KinEng TotEng v_fx v_fy v_fz 
    4213   -1152449.1            0   -1152449.1  -0.01879138 0.0017337847 -0.017646299 
    4402   -1152449.1            0   -1152449.1 2.1001098e-06 -1.2961806e-05 1.7395601e-05 
Loop time of 4.18627 on 52 procs for 189 steps with 288751 atoms

99.9% CPU use with 52 MPI tasks x 1 OpenMP threads

Minimization stats:
  Stopping criterion = linesearch alpha is zero
  Energy initial, next-to-last, final = 
     -1152449.08733236  -1152449.08906288  -1152449.08906288
  Force two-norm initial, final = 0.17328021 0.0001192678
  Force max component initial, final = 0.13299182 2.4740655e-05
  Final line search alpha, max atom move = 0.5 1.2370327e-05
  Iterations, force evaluations = 189 379

MPI task timing breakdown:
Section |  min time  |  avg time  |  max time  |%varavg| %total
---------------------------------------------------------------
Pair    | 1.0558     | 3.004      | 3.949      |  48.1 | 71.76
Neigh   | 0          | 0          | 0          |   0.0 |  0.00
Comm    | 0.058906   | 0.66809    | 2.0988     |  73.6 | 15.96
Output  | 0          | 0          | 0          |   0.0 |  0.00
Modify  | 6.1558e-05 | 0.0063204  | 0.013383   |   3.7 |  0.15
Other   |            | 0.5078     |            |       | 12.13

Nlocal:        5552.90 ave        7871 max           0 min
Histogram: 4 2 2 0 2 6 4 0 14 18
Nghost:        6213.69 ave        8771 max         412 min
Histogram: 4 0 4 0 8 0 4 5 7 20
Neighs:       158427.0 ave      229248 max           0 min
Histogram: 4 2 2 0 4 4 4 4 10 18

Total # of neighbors = 8238213
Ave neighs/atom = 28.530509
Neighbor list builds = 0
Dangerous builds = 0
The dot product: -1.763118511023e-07
Setting atom values ...
  1 settings made for x
  1 settings made for y
  1 settings made for z
Setting up cg style minimization ...
  Unit style    : metal
  Current step  : 4402
Per MPI rank memory allocation (min/avg/max) = 5.465 | 6.344 | 6.728 Mbytes
Step PotEng KinEng TotEng v_fx v_fy v_fz 
    4402   -1152449.1            0   -1152449.1 -0.013523381 0.0014281768 -0.012257706 
    4586   -1152449.1            0   -1152449.1 -6.8188983e-06 2.1771951e-05 -3.0728015e-05 
Loop time of 4.08032 on 52 procs for 184 steps with 288751 atoms

99.9% CPU use with 52 MPI tasks x 1 OpenMP threads

Minimization stats:
  Stopping criterion = linesearch alpha is zero
  Energy initial, next-to-last, final = 
     -1152449.05838624  -1152449.06004199  -1152449.06004199
  Force two-norm initial, final = 0.17335742 0.00013721765
  Force max component initial, final = 0.13565606 3.0728015e-05
  Final line search alpha, max atom move = 0.5 1.5364007e-05
  Iterations, force evaluations = 184 369

MPI task timing breakdown:
Section |  min time  |  avg time  |  max time  |%varavg| %total
---------------------------------------------------------------
Pair    | 1.0422     | 2.9379     | 3.847      |  47.3 | 72.00
Neigh   | 0          | 0          | 0          |   0.0 |  0.00
Comm    | 0.05674    | 0.65298    | 2.0512     |  72.6 | 16.00
Output  | 0          | 0          | 0          |   0.0 |  0.00
Modify  | 6.7775e-05 | 0.0061835  | 0.013068   |   3.6 |  0.15
Other   |            | 0.4833     |            |       | 11.84

Nlocal:        5552.90 ave        7870 max           0 min
Histogram: 4 2 2 0 2 6 4 0 14 18
Nghost:        6213.73 ave        8771 max         412 min
Histogram: 4 0 4 0 8 0 4 5 7 20
Neighs:       158427.0 ave      229222 max           0 min
Histogram: 4 2 2 0 4 4 4 4 10 18

Total # of neighbors = 8238214
Ave neighs/atom = 28.530512
Neighbor list builds = 0
Dangerous builds = 0
The dot product: 2.77924957647393e-07
Setting atom values ...
  1 settings made for x
  1 settings made for y
  1 settings made for z
Setting up cg style minimization ...
  Unit style    : metal
  Current step  : 4586
Per MPI rank memory allocation (min/avg/max) = 5.465 | 6.344 | 6.728 Mbytes
Step PotEng KinEng TotEng v_fx v_fy v_fz 
    4586     -1152449            0     -1152449 -0.0089586803 0.0011351952 -0.008014927 
    4786     -1152449            0     -1152449 2.9406116e-06 -1.0851764e-05 1.4501847e-05 
Loop time of 4.44076 on 52 procs for 200 steps with 288751 atoms

99.9% CPU use with 52 MPI tasks x 1 OpenMP threads

Minimization stats:
  Stopping criterion = energy tolerance
  Energy initial, next-to-last, final = 
     -1152449.02815278  -1152449.02979652  -1152449.02979652
  Force two-norm initial, final = 0.17389414 9.6559615e-05
  Force max component initial, final = 0.13802667 1.4501847e-05
  Final line search alpha, max atom move = 1.0000000 1.4501847e-05
  Iterations, force evaluations = 200 402

MPI task timing breakdown:
Section |  min time  |  avg time  |  max time  |%varavg| %total
---------------------------------------------------------------
Pair    | 1.1207     | 3.1827     | 4.1908     |  49.5 | 71.67
Neigh   | 0          | 0          | 0          |   0.0 |  0.00
Comm    | 0.062098   | 0.71285    | 2.2294     |  75.2 | 16.05
Output  | 0          | 0          | 0          |   0.0 |  0.00
Modify  | 6.737e-05  | 0.0067091  | 0.014224   |   3.8 |  0.15
Other   |            | 0.5385     |            |       | 12.13

Nlocal:        5552.90 ave        7869 max           0 min
Histogram: 4 2 2 0 2 6 4 0 14 18
Nghost:        6213.71 ave        8771 max         412 min
Histogram: 4 0 4 0 8 0 4 5 7 20
Neighs:       158427.0 ave      229218 max           0 min
Histogram: 4 2 2 0 4 4 4 4 10 18

Total # of neighbors = 8238218
Ave neighs/atom = 28.530526
Neighbor list builds = 0
Dangerous builds = 0
The dot product: -1.17564598514749e-07
Setting atom values ...
  1 settings made for x
  1 settings made for y
  1 settings made for z
Setting up cg style minimization ...
  Unit style    : metal
  Current step  : 4786
Per MPI rank memory allocation (min/avg/max) = 5.465 | 6.344 | 6.728 Mbytes
Step PotEng KinEng TotEng v_fx v_fy v_fz 
    4786     -1152449            0     -1152449 -0.0055741823 0.00090430207 -0.0050495478 
    4949     -1152449            0     -1152449 -1.1487123e-05 3.5131527e-05 -4.715879e-05 
Loop time of 3.61733 on 52 procs for 163 steps with 288751 atoms

99.9% CPU use with 52 MPI tasks x 1 OpenMP threads

Minimization stats:
  Stopping criterion = energy tolerance
  Energy initial, next-to-last, final = 
      -1152448.9967905  -1152448.99843803  -1152448.99843803
  Force two-norm initial, final = 0.17465683 0.00026233522
  Force max component initial, final = 0.14015965 4.7158790e-05
  Final line search alpha, max atom move = 1.0000000 4.7158790e-05
  Iterations, force evaluations = 163 326

MPI task timing breakdown:
Section |  min time  |  avg time  |  max time  |%varavg| %total
---------------------------------------------------------------
Pair    | 0.92999    | 2.5994     | 3.4153     |  44.4 | 71.86
Neigh   | 0          | 0          | 0          |   0.0 |  0.00
Comm    | 0.050985   | 0.57791    | 1.8224     |  68.1 | 15.98
Output  | 0          | 0          | 0          |   0.0 |  0.00
Modify  | 5.6165e-05 | 0.0054935  | 0.011611   |   3.4 |  0.15
Other   |            | 0.4345     |            |       | 12.01

Nlocal:        5552.90 ave        7869 max           0 min
Histogram: 4 2 2 0 2 6 4 0 14 18
Nghost:        6213.67 ave        8771 max         412 min
Histogram: 4 0 4 0 8 0 4 5 7 20
Neighs:       158427.0 ave      229207 max           0 min
Histogram: 4 2 2 0 4 4 4 4 10 18

Total # of neighbors = 8238215
Ave neighs/atom = 28.530516
Neighbor list builds = 0
Dangerous builds = 0
The dot product: 3.49085249624254e-07
Setting atom values ...
  1 settings made for x
  1 settings made for y
  1 settings made for z
Setting up cg style minimization ...
  Unit style    : metal
  Current step  : 4949
Per MPI rank memory allocation (min/avg/max) = 5.465 | 6.344 | 6.728 Mbytes
Step PotEng KinEng TotEng v_fx v_fy v_fz 
    4949     -1152449            0     -1152449 -0.002995678 0.00033827737 -0.0024857529 
    5000     -1152449            0     -1152449 2.0472471e-06 9.0892144e-05 -9.6782288e-05 
    5131     -1152449            0     -1152449 -5.0579432e-07 -8.3803818e-06 8.6990827e-06 
Loop time of 4.03697 on 52 procs for 182 steps with 288751 atoms

99.9% CPU use with 52 MPI tasks x 1 OpenMP threads

Minimization stats:
  Stopping criterion = energy tolerance
  Energy initial, next-to-last, final = 
     -1152448.96436629  -1152448.96602866  -1152448.96602866
  Force two-norm initial, final = 0.17551126 0.0001637555
  Force max component initial, final = 0.1420503 2.9832647e-05
  Final line search alpha, max atom move = 1.0000000 2.9832647e-05
  Iterations, force evaluations = 182 364

MPI task timing breakdown:
Section |  min time  |  avg time  |  max time  |%varavg| %total
---------------------------------------------------------------
Pair    | 1.0162     | 2.8951     | 3.7968     |  47.2 | 71.72
Neigh   | 0          | 0          | 0          |   0.0 |  0.00
Comm    | 0.056476   | 0.64854    | 2.0266     |  71.6 | 16.07
Output  | 0.0001607  | 0.00016521 | 0.00032986 |   0.0 |  0.00
Modify  | 6.4929e-05 | 0.0060801  | 0.0129     |   3.6 |  0.15
Other   |            | 0.4871     |            |       | 12.07

Nlocal:        5552.90 ave        7868 max           0 min
Histogram: 4 2 2 0 2 6 4 0 14 18
Nghost:        6213.71 ave        8771 max         412 min
Histogram: 4 0 4 0 8 0 4 5 7 20
Neighs:       158427.0 ave      229176 max           0 min
Histogram: 4 2 2 0 4 4 4 4 10 18

Total # of neighbors = 8238219
Ave neighs/atom = 28.530530
Neighbor list builds = 0
Dangerous builds = 0
The dot product: -5.94086352330597e-08
Setting atom values ...
  1 settings made for x
  1 settings made for y
  1 settings made for z
Setting up cg style minimization ...
  Unit style    : metal
  Current step  : 5131
Per MPI rank memory allocation (min/avg/max) = 5.465 | 6.344 | 6.728 Mbytes
Step PotEng KinEng TotEng v_fx v_fy v_fz 
    5131   -1152448.9            0   -1152448.9 -0.0012453976 -0.00037263235 -0.00046750002 
    5300   -1152448.9            0   -1152448.9 3.0619964e-06 -1.2929448e-05 1.5816264e-05 
Loop time of 3.79585 on 52 procs for 169 steps with 288751 atoms

99.9% CPU use with 52 MPI tasks x 1 OpenMP threads

Minimization stats:
  Stopping criterion = linesearch alpha is zero
  Energy initial, next-to-last, final = 
      -1152448.9309972  -1152448.93270791  -1152448.93270791
  Force two-norm initial, final = 0.17636608 0.00027624653
  Force max component initial, final = 0.14376161 2.5729634e-05
  Final line search alpha, max atom move = 0.125 3.2162043e-06
  Iterations, force evaluations = 169 343

MPI task timing breakdown:
Section |  min time  |  avg time  |  max time  |%varavg| %total
---------------------------------------------------------------
Pair    | 0.96246    | 2.7346     | 3.5739     |  45.9 | 72.04
Neigh   | 0          | 0          | 0          |   0.0 |  0.00
Comm    | 0.057947   | 0.60941    | 1.9183     |  70.1 | 16.05
Output  | 0          | 0          | 0          |   0.0 |  0.00
Modify  | 6.1055e-05 | 0.0057425  | 0.012137   |   3.5 |  0.15
Other   |            | 0.4461     |            |       | 11.75

Nlocal:        5552.90 ave        7869 max           0 min
Histogram: 4 2 2 0 2 6 4 0 14 18
Nghost:        6213.71 ave        8771 max         412 min
Histogram: 4 0 4 0 8 0 4 5 7 20
Neighs:       158427.0 ave      229203 max           0 min
Histogram: 4 2 2 0 4 4 4 4 10 18

Total # of neighbors = 8238215
Ave neighs/atom = 28.530516
Neighbor list builds = 0
Dangerous builds = 0
The dot product: -1.04458110854277e-07
Setting atom values ...
  1 settings made for x
  1 settings made for y
  1 settings made for z
Setting up cg style minimization ...
  Unit style    : metal
  Current step  : 5300
Per MPI rank memory allocation (min/avg/max) = 5.465 | 6.344 | 6.728 Mbytes
Step PotEng KinEng TotEng v_fx v_fy v_fz 
    5300   -1152448.9            0   -1152448.9 5.2190474e-05 -0.0013422694   0.00143149 
    5553   -1152448.9            0   -1152448.9 -6.1377641e-07 1.5443263e-06 -2.0232395e-06 
Loop time of 5.57783 on 52 procs for 253 steps with 288751 atoms

99.9% CPU use with 52 MPI tasks x 1 OpenMP threads

Minimization stats:
  Stopping criterion = energy tolerance
  Energy initial, next-to-last, final = 
     -1152448.89679721  -1152448.89842896  -1152448.89842896
  Force two-norm initial, final = 0.1771191 1.1734861e-05
  Force max component initial, final = 0.14519784 2.3022700e-06
  Final line search alpha, max atom move = 1.0000000 2.3022700e-06
  Iterations, force evaluations = 253 506

MPI task timing breakdown:
Section |  min time  |  avg time  |  max time  |%varavg| %total
---------------------------------------------------------------
Pair    | 1.4053     | 4.0048     | 5.2696     |  55.5 | 71.80
Neigh   | 0          | 0          | 0          |   0.0 |  0.00
Comm    | 0.078448   | 0.89301    | 2.8111     |  84.8 | 16.01
Output  | 0          | 0          | 0          |   0.0 |  0.00
Modify  | 8.3302e-05 | 0.0084254  | 0.017853   |   4.2 |  0.15
Other   |            | 0.6716     |            |       | 12.04

Nlocal:        5552.90 ave        7869 max           0 min
Histogram: 4 2 2 0 2 6 4 0 14 18
Nghost:        6213.71 ave        8771 max         412 min
Histogram: 4 0 4 0 8 0 4 5 7 20
Neighs:       158427.0 ave      229187 max           0 min
Histogram: 4 2 2 0 4 4 4 4 10 18

Total # of neighbors = 8238216
Ave neighs/atom = 28.530519
Neighbor list builds = 0
Dangerous builds = 0
The dot product: 1.12946320142707e-08
Setting atom values ...
  1 settings made for x
  1 settings made for y
  1 settings made for z
Setting up cg style minimization ...
  Unit style    : metal
  Current step  : 5553
Per MPI rank memory allocation (min/avg/max) = 5.465 | 6.344 | 6.728 Mbytes
Step PotEng KinEng TotEng v_fx v_fy v_fz 
    5553   -1152448.9            0   -1152448.9  0.001598439 -0.0032924367 0.0044439785 
    5747   -1152448.9            0   -1152448.9 -2.7658313e-06 1.0997831e-05 -1.3120427e-05 
Loop time of 4.29655 on 52 procs for 194 steps with 288751 atoms

99.9% CPU use with 52 MPI tasks x 1 OpenMP threads

Minimization stats:
  Stopping criterion = linesearch alpha is zero
  Energy initial, next-to-last, final = 
     -1152448.86148421  -1152448.86309536  -1152448.86309536
  Force two-norm initial, final = 0.17835693 0.00011237076
  Force max component initial, final = 0.14687151 1.4332404e-05
  Final line search alpha, max atom move = 0.5 7.1662021e-06
  Iterations, force evaluations = 194 389

MPI task timing breakdown:
Section |  min time  |  avg time  |  max time  |%varavg| %total
---------------------------------------------------------------
Pair    | 1.0833     | 3.0879     | 4.0539     |  48.8 | 71.87
Neigh   | 0          | 0          | 0          |   0.0 |  0.00
Comm    | 0.063906   | 0.69134    | 2.1701     |  74.3 | 16.09
Output  | 0          | 0          | 0          |   0.0 |  0.00
Modify  | 6.3471e-05 | 0.0064897  | 0.013761   |   3.7 |  0.15
Other   |            | 0.5108     |            |       | 11.89

Nlocal:        5552.90 ave        7869 max           0 min
Histogram: 4 2 2 0 2 6 4 0 14 18
Nghost:        6213.71 ave        8771 max         412 min
Histogram: 4 0 4 0 8 0 4 5 7 20
Neighs:       158427.0 ave      229181 max           0 min
Histogram: 4 2 2 0 4 4 4 4 10 18

Total # of neighbors = 8238215
Ave neighs/atom = 28.530516
Neighbor list builds = 0
Dangerous builds = 0
The dot product: 6.04131002931352e-08
Setting atom values ...
  1 settings made for x
  1 settings made for y
  1 settings made for z
Setting up cg style minimization ...
  Unit style    : metal
  Current step  : 5747
Per MPI rank memory allocation (min/avg/max) = 5.465 | 6.344 | 6.728 Mbytes
Step PotEng KinEng TotEng v_fx v_fy v_fz 
    5747   -1152448.8            0   -1152448.8 0.0028959331 -0.0054695823 0.0074567543 
    5897   -1152448.8            0   -1152448.8 -1.1410984e-05 3.6085965e-05 -4.4095281e-05 
Loop time of 3.31571 on 52 procs for 150 steps with 288751 atoms

99.9% CPU use with 52 MPI tasks x 1 OpenMP threads

Minimization stats:
  Stopping criterion = energy tolerance
  Energy initial, next-to-last, final = 
     -1152448.82511002  -1152448.82683371  -1152448.82683371
  Force two-norm initial, final = 0.17963905 0.00027386515
  Force max component initial, final = 0.14845679 5.0006362e-05
  Final line search alpha, max atom move = 1.0000000 5.0006362e-05
  Iterations, force evaluations = 150 300

MPI task timing breakdown:
Section |  min time  |  avg time  |  max time  |%varavg| %total
---------------------------------------------------------------
Pair    | 0.83767    | 2.3793     | 3.1297     |  42.7 | 71.76
Neigh   | 0          | 0          | 0          |   0.0 |  0.00
Comm    | 0.047971   | 0.53138    | 1.6623     |  65.1 | 16.03
Output  | 0          | 0          | 0          |   0.0 |  0.00
Modify  | 5.0196e-05 | 0.0050097  | 0.010611   |   3.3 |  0.15
Other   |            | 0.4        |            |       | 12.06

Nlocal:        5552.90 ave        7867 max           0 min
Histogram: 4 2 2 0 2 6 4 0 14 18
Nghost:        6213.69 ave        8771 max         412 min
Histogram: 4 0 4 0 8 0 4 5 7 20
Neighs:       158427.0 ave      229121 max           0 min
Histogram: 4 2 2 0 4 4 4 4 10 18

Total # of neighbors = 8238217
Ave neighs/atom = 28.530523
Neighbor list builds = 0
Dangerous builds = 0
The dot product: 1.84713548264468e-07
Setting atom values ...
  1 settings made for x
  1 settings made for y
  1 settings made for z
Setting up cg style minimization ...
  Unit style    : metal
  Current step  : 5897
Per MPI rank memory allocation (min/avg/max) = 5.465 | 6.344 | 6.728 Mbytes
Step PotEng KinEng TotEng v_fx v_fy v_fz 
    5897   -1152448.8            0   -1152448.8 0.0035728063 -0.0071537181 0.0095133855 
    6000   -1152448.8            0   -1152448.8 -1.9543158e-05 2.4020616e-06 -1.5251299e-05 
    6039   -1152448.8            0   -1152448.8 1.948346e-05 -5.9058552e-05 7.1958147e-05 
Loop time of 3.14391 on 52 procs for 142 steps with 288751 atoms

99.9% CPU use with 52 MPI tasks x 1 OpenMP threads

Minimization stats:
  Stopping criterion = energy tolerance
  Energy initial, next-to-last, final = 
     -1152448.78803279  -1152448.78965401  -1152448.78965401
  Force two-norm initial, final = 0.18016992 0.0003648265
  Force max component initial, final = 0.14944623 7.1958147e-05
  Final line search alpha, max atom move = 1.0000000 7.1958147e-05
  Iterations, force evaluations = 142 284

MPI task timing breakdown:
Section |  min time  |  avg time  |  max time  |%varavg| %total
---------------------------------------------------------------
Pair    | 0.81039    | 2.2681     | 2.97       |  41.5 | 72.14
Neigh   | 0          | 0          | 0          |   0.0 |  0.00
Comm    | 0.048045   | 0.50463    | 1.5942     |  63.8 | 16.05
Output  | 0.00016628 | 0.00017203 | 0.00034154 |   0.0 |  0.01
Modify  | 4.957e-05  | 0.0047764  | 0.010077   |   3.2 |  0.15
Other   |            | 0.3662     |            |       | 11.65

Nlocal:        5552.90 ave        7867 max           0 min
Histogram: 4 2 2 0 2 6 4 0 14 18
Nghost:        6213.73 ave        8771 max         412 min
Histogram: 4 0 4 0 8 0 4 5 7 20
Neighs:       158427.0 ave      229119 max           0 min
Histogram: 4 2 2 0 4 4 4 4 10 18

Total # of neighbors = 8238213
Ave neighs/atom = 28.530509
Neighbor list builds = 0
Dangerous builds = 0
The dot product: -2.09037546873089e-07
Setting atom values ...
  1 settings made for x
  1 settings made for y
  1 settings made for z
Setting up cg style minimization ...
  Unit style    : metal
  Current step  : 6039
Per MPI rank memory allocation (min/avg/max) = 5.465 | 6.344 | 6.728 Mbytes
Step PotEng KinEng TotEng v_fx v_fy v_fz 
    6039   -1152448.7            0   -1152448.7 0.0046054876 -0.010135654  0.013089939 
    6232   -1152448.8            0   -1152448.8 -3.4236048e-06 1.4970884e-06 -3.7277421e-06 
Loop time of 4.30764 on 52 procs for 193 steps with 288751 atoms

99.9% CPU use with 52 MPI tasks x 1 OpenMP threads

Minimization stats:
  Stopping criterion = energy tolerance
  Energy initial, next-to-last, final = 
     -1152448.74983469  -1152448.75146692  -1152448.75146692
  Force two-norm initial, final = 0.18126981 0.00011090901
  Force max component initial, final = 0.15089283 1.9670154e-05
  Final line search alpha, max atom move = 1.0000000 1.9670154e-05
  Iterations, force evaluations = 193 388

MPI task timing breakdown:
Section |  min time  |  avg time  |  max time  |%varavg| %total
---------------------------------------------------------------
Pair    | 1.0837     | 3.0813     | 4.0449     |  48.6 | 71.53
Neigh   | 0          | 0          | 0          |   0.0 |  0.00
Comm    | 0.05891    | 0.68814    | 2.1474     |  74.0 | 15.97
Output  | 0          | 0          | 0          |   0.0 |  0.00
Modify  | 6.7031e-05 | 0.0064828  | 0.013727   |   3.7 |  0.15
Other   |            | 0.5317     |            |       | 12.34

Nlocal:        5552.90 ave        7867 max           0 min
Histogram: 4 2 2 0 2 6 4 0 14 18
Nghost:        6213.77 ave        8771 max         412 min
Histogram: 4 0 4 0 8 0 4 5 7 20
Neighs:       158427.0 ave      229129 max           0 min
Histogram: 4 2 2 0 4 4 4 4 10 18

Total # of neighbors = 8238213
Ave neighs/atom = 28.530509
Neighbor list builds = 0
Dangerous builds = 0
The dot product: 4.82355792739048e-09
Setting atom values ...
  1 settings made for x
  1 settings made for y
  1 settings made for z
Setting up cg style minimization ...
  Unit style    : metal
  Current step  : 6232
Per MPI rank memory allocation (min/avg/max) = 5.465 | 6.344 | 6.728 Mbytes
Step PotEng KinEng TotEng v_fx v_fy v_fz 
    6232   -1152448.7            0   -1152448.7 0.0051911911 -0.012888277  0.016145666 
    6403   -1152448.7            0   -1152448.7 -7.2758758e-06 2.0401113e-05 -2.4942793e-05 
Loop time of 3.80363 on 52 procs for 171 steps with 288751 atoms

99.9% CPU use with 52 MPI tasks x 1 OpenMP threads

Minimization stats:
  Stopping criterion = linesearch alpha is zero
  Energy initial, next-to-last, final = 
     -1152448.71072108  -1152448.71252928  -1152448.71252928
  Force two-norm initial, final = 0.18168933 0.0001364489
  Force max component initial, final = 0.15194919 2.4942793e-05
  Final line search alpha, max atom move = 0.5 1.2471397e-05
  Iterations, force evaluations = 171 343

MPI task timing breakdown:
Section |  min time  |  avg time  |  max time  |%varavg| %total
---------------------------------------------------------------
Pair    | 0.95454    | 2.7258     | 3.579      |  45.8 | 71.66
Neigh   | 0          | 0          | 0          |   0.0 |  0.00
Comm    | 0.052813   | 0.60901    | 1.9075     |  69.7 | 16.01
Output  | 0          | 0          | 0          |   0.0 |  0.00
Modify  | 5.6605e-05 | 0.0057295  | 0.012139   |   3.5 |  0.15
Other   |            | 0.4631     |            |       | 12.18

Nlocal:        5552.90 ave        7867 max           0 min
Histogram: 4 2 2 0 2 6 4 0 14 18
Nghost:        6213.77 ave        8770 max         412 min
Histogram: 4 0 4 0 8 0 4 5 7 20
Neighs:       158427.0 ave      229141 max           0 min
Histogram: 4 2 2 0 4 4 4 4 10 18

Total # of neighbors = 8238212
Ave neighs/atom = 28.530506
Neighbor list builds = 0
Dangerous builds = 0
The dot product: 2.84543970159474e-08
Setting atom values ...
  1 settings made for x
  1 settings made for y
  1 settings made for z
Setting up cg style minimization ...
  Unit style    : metal
  Current step  : 6403
Per MPI rank memory allocation (min/avg/max) = 5.465 | 6.344 | 6.728 Mbytes
Step PotEng KinEng TotEng v_fx v_fy v_fz 
    6403   -1152448.7            0   -1152448.7 0.0055871396 -0.014909389  0.018358552 
    6552   -1152448.7            0   -1152448.7 1.261959e-05 -2.5164526e-05 3.3068962e-05 
Loop time of 3.32848 on 52 procs for 149 steps with 288751 atoms

99.9% CPU use with 52 MPI tasks x 1 OpenMP threads

Minimization stats:
  Stopping criterion = linesearch alpha is zero
  Energy initial, next-to-last, final = 
     -1152448.67133072  -1152448.67308054  -1152448.67308054
  Force two-norm initial, final = 0.18050707 0.00016745568
  Force max component initial, final = 0.1518948 3.3068962e-05
  Final line search alpha, max atom move = 0.25 8.2672406e-06
  Iterations, force evaluations = 149 301

MPI task timing breakdown:
Section |  min time  |  avg time  |  max time  |%varavg| %total
---------------------------------------------------------------
Pair    | 0.84354    | 2.3875     | 3.1399     |  42.8 | 71.73
Neigh   | 0          | 0          | 0          |   0.0 |  0.00
Comm    | 0.046217   | 0.53348    | 1.6687     |  65.2 | 16.03
Output  | 0          | 0          | 0          |   0.0 |  0.00
Modify  | 5.3955e-05 | 0.005027   | 0.010652   |   3.3 |  0.15
Other   |            | 0.4024     |            |       | 12.09

Nlocal:        5552.90 ave        7868 max           0 min
Histogram: 4 2 2 0 2 6 4 0 14 18
Nghost:        6213.85 ave        8771 max         412 min
Histogram: 4 0 4 0 8 0 4 5 7 20
Neighs:       158427.0 ave      229158 max           0 min
Histogram: 4 2 2 0 4 4 4 4 10 18

Total # of neighbors = 8238207
Ave neighs/atom = 28.530488
Neighbor list builds = 0
Dangerous builds = 0
The dot product: 1.39576263745754e-08
Setting atom values ...
  1 settings made for x
  1 settings made for y
  1 settings made for z
Setting up cg style minimization ...
  Unit style    : metal
  Current step  : 6552
Per MPI rank memory allocation (min/avg/max) = 5.465 | 6.344 | 6.728 Mbytes
Step PotEng KinEng TotEng v_fx v_fy v_fz 
    6552   -1152448.6            0   -1152448.6 0.0059721548 -0.017894689  0.021568633 
    6766   -1152448.6            0   -1152448.6 -6.6329521e-06 2.0849814e-05 -2.4917061e-05 
Loop time of 4.7524 on 52 procs for 214 steps with 288751 atoms

99.9% CPU use with 52 MPI tasks x 1 OpenMP threads

Minimization stats:
  Stopping criterion = linesearch alpha is zero
  Energy initial, next-to-last, final = 
     -1152448.63158755  -1152448.63360589  -1152448.63360589
  Force two-norm initial, final = 0.1796005 0.00012280333
  Force max component initial, final = 0.15166087 2.6384022e-05
  Final line search alpha, max atom move = 0.5 1.3192011e-05
  Iterations, force evaluations = 214 431

MPI task timing breakdown:
Section |  min time  |  avg time  |  max time  |%varavg| %total
---------------------------------------------------------------
Pair    | 1.2028     | 3.4318     | 4.4912     |  51.4 | 72.21
Neigh   | 0          | 0          | 0          |   0.0 |  0.00
Comm    | 0.068087   | 0.76104    | 2.3894     |  78.7 | 16.01
Output  | 0          | 0          | 0          |   0.0 |  0.00
Modify  | 8.1782e-05 | 0.0071849  | 0.015227   |   3.9 |  0.15
Other   |            | 0.5524     |            |       | 11.62

Nlocal:        5552.90 ave        7867 max           0 min
Histogram: 4 2 2 0 2 6 4 0 14 18
Nghost:        6213.85 ave        8771 max         412 min
Histogram: 4 0 4 0 8 0 4 5 7 20
Neighs:       158427.0 ave      229116 max           0 min
Histogram: 4 2 2 0 4 4 4 4 10 18

Total # of neighbors = 8238199
Ave neighs/atom = 28.530461
Neighbor list builds = 0
Dangerous builds = 0
The dot product: -1.63485944447965e-08
Setting atom values ...
  1 settings made for x
  1 settings made for y
  1 settings made for z
Setting up cg style minimization ...
  Unit style    : metal
  Current step  : 6766
Per MPI rank memory allocation (min/avg/max) = 5.465 | 6.344 | 6.728 Mbytes
Step PotEng KinEng TotEng v_fx v_fy v_fz 
    6766   -1152448.6            0   -1152448.6 0.0094299964 -0.018880715  0.024853861 
    6958   -1152448.6            0   -1152448.6 -1.1708386e-05 3.0878566e-05 -3.8196846e-05 
Loop time of 4.28315 on 52 procs for 192 steps with 288751 atoms

99.9% CPU use with 52 MPI tasks x 1 OpenMP threads

Minimization stats:
  Stopping criterion = linesearch alpha is zero
  Energy initial, next-to-last, final = 
     -1152448.59289545  -1152448.59506991  -1152448.59506991
  Force two-norm initial, final = 0.17782514 0.00021620938
  Force max component initial, final = 0.14904592 3.8486500e-05
  Final line search alpha, max atom move = 0.25 9.6216251e-06
  Iterations, force evaluations = 192 387

MPI task timing breakdown:
Section |  min time  |  avg time  |  max time  |%varavg| %total
---------------------------------------------------------------
Pair    | 1.1072     | 3.0777     | 4.0389     |  48.2 | 71.86
Neigh   | 0          | 0          | 0          |   0.0 |  0.00
Comm    | 0.061124   | 0.68333    | 2.1479     |  74.0 | 15.95
Output  | 0          | 0          | 0          |   0.0 |  0.00
Modify  | 6.6181e-05 | 0.0065015  | 0.01377    |   3.7 |  0.15
Other   |            | 0.5156     |            |       | 12.04

Nlocal:        5552.90 ave        7867 max           0 min
Histogram: 4 2 2 0 2 6 4 0 14 18
Nghost:        6213.77 ave        8771 max         412 min
Histogram: 4 0 4 0 8 0 4 5 7 20
Neighs:       158427.0 ave      229140 max           0 min
Histogram: 4 2 2 0 4 4 4 4 10 18

Total # of neighbors = 8238205
Ave neighs/atom = 28.530481
Neighbor list builds = 0
Dangerous builds = 0
The dot product: -1.4876162375528e-08
Setting atom values ...
  1 settings made for x
  1 settings made for y
  1 settings made for z
Setting up cg style minimization ...
  Unit style    : metal
  Current step  : 6958
Per MPI rank memory allocation (min/avg/max) = 5.465 | 6.344 | 6.728 Mbytes
Step PotEng KinEng TotEng v_fx v_fy v_fz 
    6958   -1152448.6            0   -1152448.6  0.011410449 -0.018560934   0.02588204 
    7000   -1152448.6            0   -1152448.6 0.00058902023 -0.0014825002 0.0018531792 
    7192   -1152448.6            0   -1152448.6 -7.451917e-06 1.8708248e-05 -2.3398503e-05 
Loop time of 5.18912 on 52 procs for 234 steps with 288751 atoms

99.9% CPU use with 52 MPI tasks x 1 OpenMP threads

Minimization stats:
  Stopping criterion = linesearch alpha is zero
  Energy initial, next-to-last, final = 
     -1152448.55619031  -1152448.56857953  -1152448.56857953
  Force two-norm initial, final = 0.18581817 0.00014085083
  Force max component initial, final = 0.1464859 2.3398503e-05
  Final line search alpha, max atom move = 0.5 1.1699251e-05
  Iterations, force evaluations = 234 469

MPI task timing breakdown:
Section |  min time  |  avg time  |  max time  |%varavg| %total
---------------------------------------------------------------
Pair    | 1.3179     | 3.7385     | 4.8825     |  53.5 | 72.05
Neigh   | 1.9383e-05 | 0.0058388  | 0.008537   |   3.2 |  0.11
Comm    | 0.072981   | 0.83521    | 2.6289     |  81.9 | 16.10
Output  | 0.00016512 | 0.00016979 | 0.00033694 |   0.0 |  0.00
Modify  | 7.7999e-05 | 0.0078218  | 0.016617   |   4.1 |  0.15
Other   |            | 0.6016     |            |       | 11.59

Nlocal:        5552.90 ave        7867 max           0 min
Histogram: 4 2 2 0 2 6 4 0 14 18
Nghost:        6213.81 ave        8771 max         412 min
Histogram: 4 0 4 0 8 0 4 5 7 20
Neighs:       158427.0 ave      229131 max           0 min
Histogram: 4 2 2 0 4 4 4 4 10 18

Total # of neighbors = 8238192
Ave neighs/atom = 28.530436
Neighbor list builds = 1
Dangerous builds = 0
The dot product: 4.39344434819184e-07
Setting atom values ...
  1 settings made for x
  1 settings made for y
  1 settings made for z
Setting up cg style minimization ...
  Unit style    : metal
  Current step  : 7192
Per MPI rank memory allocation (min/avg/max) = 5.465 | 6.344 | 6.728 Mbytes
Step PotEng KinEng TotEng v_fx v_fy v_fz 
    7192   -1152448.5            0   -1152448.5 0.0053139608 -0.014109732  0.016801423 
    7388   -1152448.5            0   -1152448.5 1.9121552e-05 -4.3094068e-05 5.3181074e-05 
Loop time of 4.34525 on 52 procs for 196 steps with 288751 atoms

99.9% CPU use with 52 MPI tasks x 1 OpenMP threads

Minimization stats:
  Stopping criterion = energy tolerance
  Energy initial, next-to-last, final = 
[...]

Nlocal:        5552.90 ave        7885 max           0 min
Histogram: 4 2 2 0 2 6 4 0 14 18
Nghost:        6213.19 ave        8772 max         412 min
Histogram: 4 0 4 0 8 0 4 5 7 20
Neighs:       158427.0 ave      229881 max           0 min
Histogram: 4 2 2 0 5 3 4 4 11 17

Total # of neighbors = 8238201
Ave neighs/atom = 28.530467
Neighbor list builds = 0
Dangerous builds = 0
The dot product: -7.0109423435676e-08
Setting atom values ...
  1 settings made for x
  1 settings made for y
  1 settings made for z
Setting up cg style minimization ...
  Unit style    : metal
  Current step  : 25332
Per MPI rank memory allocation (min/avg/max) = 5.465 | 6.344 | 6.730 Mbytes
Step PotEng KinEng TotEng v_fx v_fy v_fz 
   25332   -1152449.4            0   -1152449.4  0.024459707  0.018770488 -0.040570855 
   25496   -1152449.4            0   -1152449.4 -4.4241122e-05 1.001748e-05 1.9074461e-05 
Loop time of 3.6217 on 52 procs for 164 steps with 288751 atoms

99.9% CPU use with 52 MPI tasks x 1 OpenMP threads

Minimization stats:
  Stopping criterion = energy tolerance
  Energy initial, next-to-last, final = 
      -1152449.4282319  -1152449.42963598  -1152449.42963598
  Force two-norm initial, final = 0.1711349 0.00027818358
  Force max component initial, final = 0.07361341 4.8014303e-05
  Final line search alpha, max atom move = 1.0000000 4.8014303e-05
  Iterations, force evaluations = 164 328

MPI task timing breakdown:
Section |  min time  |  avg time  |  max time  |%varavg| %total
---------------------------------------------------------------
Pair    | 0.92133    | 2.597      | 3.4248     |  44.6 | 71.71
Neigh   | 0          | 0          | 0          |   0.0 |  0.00
Comm    | 0.049218   | 0.58224    | 1.8222     |  67.9 | 16.08
Output  | 0          | 0          | 0          |   0.0 |  0.00
Modify  | 4.9698e-05 | 0.0054684  | 0.011591   |   3.4 |  0.15
Other   |            | 0.437      |            |       | 12.07

Nlocal:        5552.90 ave        7886 max           0 min
Histogram: 4 2 2 0 2 6 4 0 14 18
Nghost:        6213.19 ave        8772 max         412 min
Histogram: 4 0 4 0 8 0 4 5 7 20
Neighs:       158427.0 ave      229912 max           0 min
Histogram: 4 2 2 0 5 3 4 4 11 17

Total # of neighbors = 8238205
Ave neighs/atom = 28.530481
Neighbor list builds = 0
Dangerous builds = 0
The dot product: -5.13575946170747e-08
Setting atom values ...
  1 settings made for x
  1 settings made for y
  1 settings made for z
Setting up cg style minimization ...
  Unit style    : metal
  Current step  : 25496
Per MPI rank memory allocation (min/avg/max) = 5.465 | 6.344 | 6.730 Mbytes
Step PotEng KinEng TotEng v_fx v_fy v_fz 
   25496   -1152449.4            0   -1152449.4  0.027653343  0.015109404 -0.038405051 
   25699   -1152449.4            0   -1152449.4 -1.0528818e-05 2.2185289e-05 -1.9972836e-05 
Loop time of 4.50245 on 52 procs for 203 steps with 288751 atoms

99.9% CPU use with 52 MPI tasks x 1 OpenMP threads

Minimization stats:
  Stopping criterion = linesearch alpha is zero
  Energy initial, next-to-last, final = 
      -1152449.4212128  -1152449.42256312  -1152449.42256312
  Force two-norm initial, final = 0.16840404 8.9170586e-05
  Force max component initial, final = 0.072787507 2.4431531e-05
  Final line search alpha, max atom move = 0.5 1.2215766e-05
  Iterations, force evaluations = 203 407

MPI task timing breakdown:
Section |  min time  |  avg time  |  max time  |%varavg| %total
---------------------------------------------------------------
Pair    | 1.1664     | 3.2281     | 4.2558     |  49.3 | 71.70
Neigh   | 0          | 0          | 0          |   0.0 |  0.00
Comm    | 0.061561   | 0.7219     | 2.2498     |  75.2 | 16.03
Output  | 0          | 0          | 0          |   0.0 |  0.00
Modify  | 6.535e-05  | 0.006835   | 0.014481   |   3.8 |  0.15
Other   |            | 0.5457     |            |       | 12.12

Nlocal:        5552.90 ave        7888 max           0 min
Histogram: 4 2 2 0 2 6 4 0 14 18
Nghost:        6213.19 ave        8772 max         412 min
Histogram: 4 0 4 0 8 0 4 5 7 20
Neighs:       158427.0 ave      229990 max           0 min
Histogram: 4 2 2 0 5 3 4 4 12 16

Total # of neighbors = 8238205
Ave neighs/atom = 28.530481
Neighbor list builds = 0
Dangerous builds = 0
The dot product: 7.52030307447994e-08
Setting atom values ...
  1 settings made for x
  1 settings made for y
  1 settings made for z
Setting up cg style minimization ...
  Unit style    : metal
  Current step  : 25699
Per MPI rank memory allocation (min/avg/max) = 5.465 | 6.344 | 6.730 Mbytes
Step PotEng KinEng TotEng v_fx v_fy v_fz 
   25699   -1152449.4            0   -1152449.4  0.031813226  0.010484993 -0.035718981 
   25885   -1152449.4            0   -1152449.4 -2.8639846e-06 7.0536012e-06 -6.7094587e-06 
Loop time of 4.14088 on 52 procs for 186 steps with 288751 atoms

99.9% CPU use with 52 MPI tasks x 1 OpenMP threads

Minimization stats:
  Stopping criterion = linesearch alpha is zero
  Energy initial, next-to-last, final = 
     -1152449.41265572  -1152449.41395075  -1152449.41395075
  Force two-norm initial, final = 0.16604383 0.0001232838
  Force max component initial, final = 0.071976968 2.6567765e-05
  Final line search alpha, max atom move = 0.5 1.3283883e-05
  Iterations, force evaluations = 186 373

MPI task timing breakdown:
Section |  min time  |  avg time  |  max time  |%varavg| %total
---------------------------------------------------------------
Pair    | 1.0606     | 2.9597     | 3.8953     |  47.4 | 71.47
Neigh   | 0          | 0          | 0          |   0.0 |  0.00
Comm    | 0.063024   | 0.67231    | 2.1051     |  71.8 | 16.24
Output  | 0          | 0          | 0          |   0.0 |  0.00
Modify  | 6.4153e-05 | 0.0062509  | 0.013211   |   3.7 |  0.15
Other   |            | 0.5026     |            |       | 12.14

Nlocal:        5552.90 ave        7889 max           0 min
Histogram: 4 2 2 0 2 6 4 0 14 18
Nghost:        6213.19 ave        8772 max         412 min
Histogram: 4 0 4 0 8 0 4 5 7 20
Neighs:       158427.0 ave      230030 max           0 min
Histogram: 4 2 2 0 5 3 4 4 12 16

Total # of neighbors = 8238207
Ave neighs/atom = 28.530488
Neighbor list builds = 0
Dangerous builds = 0
The dot product: 1.857955661942e-08
Setting atom values ...
  1 settings made for x
  1 settings made for y
  1 settings made for z
Setting up cg style minimization ...
  Unit style    : metal
  Current step  : 25885
Per MPI rank memory allocation (min/avg/max) = 5.465 | 6.344 | 6.730 Mbytes
Step PotEng KinEng TotEng v_fx v_fy v_fz 
   25885   -1152449.4            0   -1152449.4  0.038100353 0.0034188773 -0.031514524 
   26000   -1152449.4            0   -1152449.4 3.9291698e-05 -3.9670954e-05 2.1206907e-05 
   26035   -1152449.4            0   -1152449.4 -2.3681264e-05 3.3586003e-05 -2.4811936e-05 
Loop time of 3.3509 on 52 procs for 150 steps with 288751 atoms

99.9% CPU use with 52 MPI tasks x 1 OpenMP threads

Minimization stats:
  Stopping criterion = energy tolerance
  Energy initial, next-to-last, final = 
     -1152449.40272944  -1152449.40398834  -1152449.40398834
  Force two-norm initial, final = 0.16485788 0.00026140208
  Force max component initial, final = 0.071637821 4.8013078e-05
  Final line search alpha, max atom move = 1.0000000 4.8013078e-05
  Iterations, force evaluations = 150 300

MPI task timing breakdown:
Section |  min time  |  avg time  |  max time  |%varavg| %total
---------------------------------------------------------------
Pair    | 0.87434    | 2.3898     | 3.1416     |  42.2 | 71.32
Neigh   | 0          | 0          | 0          |   0.0 |  0.00
Comm    | 0.047376   | 0.53812    | 1.6822     |  64.3 | 16.06
Output  | 0.00016637 | 0.00017125 | 0.00036456 |   0.0 |  0.01
Modify  | 5.2035e-05 | 0.0050409  | 0.010722   |   3.3 |  0.15
Other   |            | 0.4178     |            |       | 12.47

Nlocal:        5552.90 ave        7889 max           0 min
Histogram: 4 2 2 0 2 6 4 0 13 19
Nghost:        6213.19 ave        8772 max         412 min
Histogram: 4 0 4 0 8 0 4 5 7 20
Neighs:       158427.0 ave      230036 max           0 min
Histogram: 4 2 2 0 5 3 4 4 12 16

Total # of neighbors = 8238204
Ave neighs/atom = 28.530478
Neighbor list builds = 0
Dangerous builds = 0
The dot product: -3.55711408956137e-08
Setting atom values ...
  1 settings made for x
  1 settings made for y
  1 settings made for z
Setting up cg style minimization ...
  Unit style    : metal
  Current step  : 26035
Per MPI rank memory allocation (min/avg/max) = 5.465 | 6.344 | 6.730 Mbytes
Step PotEng KinEng TotEng v_fx v_fy v_fz 
   26035   -1152449.4            0   -1152449.4  0.045796538 -0.0051610471 -0.026468057 
   26125   -1152449.4            0   -1152449.4 1.1907721e-06 5.2329427e-06 -7.3678112e-06 
Loop time of 2.00721 on 52 procs for 90 steps with 288751 atoms

99.9% CPU use with 52 MPI tasks x 1 OpenMP threads

Minimization stats:
  Stopping criterion = linesearch alpha is zero
  Energy initial, next-to-last, final = 
     -1152449.39184215  -1152449.39330999  -1152449.39330999
  Force two-norm initial, final = 0.16723275 0.00011481912
  Force max component initial, final = 0.071364342 7.3678112e-06
  Final line search alpha, max atom move = 0.5 3.6839056e-06
  Iterations, force evaluations = 90 181

MPI task timing breakdown:
Section |  min time  |  avg time  |  max time  |%varavg| %total
---------------------------------------------------------------
Pair    | 0.52154    | 1.4395     | 1.8964     |  32.9 | 71.72
Neigh   | 0          | 0          | 0          |   0.0 |  0.00
Comm    | 0.027394   | 0.32278    | 1.0133     |  50.3 | 16.08
Output  | 0          | 0          | 0          |   0.0 |  0.00
Modify  | 2.7017e-05 | 0.0030535  | 0.0064781  |   2.6 |  0.15
Other   |            | 0.2419     |            |       | 12.05

Nlocal:        5552.90 ave        7889 max           0 min
Histogram: 4 2 2 0 2 6 4 0 13 19
Nghost:        6213.23 ave        8772 max         412 min
Histogram: 4 0 4 0 8 0 4 5 7 20
Neighs:       158427.0 ave      230038 max           0 min
Histogram: 4 2 2 0 5 3 4 4 12 16

Total # of neighbors = 8238204
Ave neighs/atom = 28.530478
Neighbor list builds = 0
Dangerous builds = 0
The dot product: -6.10827949406743e-09
Setting atom values ...
  1 settings made for x
  1 settings made for y
  1 settings made for z
Setting up cg style minimization ...
  Unit style    : metal
  Current step  : 26125
Per MPI rank memory allocation (min/avg/max) = 5.465 | 6.344 | 6.730 Mbytes
Step PotEng KinEng TotEng v_fx v_fy v_fz 
   26125   -1152449.4            0   -1152449.4  0.053347927 -0.013196692 -0.022197656 
   26252   -1152449.4            0   -1152449.4 -3.1131224e-05 -8.2879893e-06 3.2822202e-05 
Loop time of 2.82431 on 52 procs for 127 steps with 288751 atoms

99.8% CPU use with 52 MPI tasks x 1 OpenMP threads

Minimization stats:
  Stopping criterion = energy tolerance
  Energy initial, next-to-last, final = 
     -1152449.38125869  -1152449.38324804  -1152449.38324804
  Force two-norm initial, final = 0.17126943 0.00031727028
  Force max component initial, final = 0.070112044 3.6992878e-05
  Final line search alpha, max atom move = 1.0000000 3.6992878e-05
  Iterations, force evaluations = 127 254

MPI task timing breakdown:
Section |  min time  |  avg time  |  max time  |%varavg| %total
---------------------------------------------------------------
Pair    | 0.72736    | 2.0195     | 2.6645     |  39.1 | 71.50
Neigh   | 0          | 0          | 0          |   0.0 |  0.00
Comm    | 0.042576   | 0.45413    | 1.4212     |  59.4 | 16.08
Output  | 0          | 0          | 0          |   0.0 |  0.00
Modify  | 3.9394e-05 | 0.0042573  | 0.0090246  |   3.0 |  0.15
Other   |            | 0.3464     |            |       | 12.27

Nlocal:        5552.90 ave        7889 max           0 min
Histogram: 4 2 2 0 2 6 4 0 13 19
Nghost:        6213.23 ave        8772 max         412 min
Histogram: 4 0 4 0 8 0 4 5 7 20
Neighs:       158427.0 ave      230048 max           0 min
Histogram: 4 2 2 0 5 3 4 4 12 16

Total # of neighbors = 8238207
Ave neighs/atom = 28.530488
Neighbor list builds = 0
Dangerous builds = 0
The dot product: -3.89906509811917e-07
Setting atom values ...
  1 settings made for x
  1 settings made for y
  1 settings made for z
Setting up cg style minimization ...
  Unit style    : metal
  Current step  : 26252
Per MPI rank memory allocation (min/avg/max) = 5.465 | 6.344 | 6.730 Mbytes
Step PotEng KinEng TotEng v_fx v_fy v_fz 
   26252   -1152449.4            0   -1152449.4  0.052891553 -0.013504923 -0.022010731 
   26340   -1152449.4            0   -1152449.4 2.1793067e-05 3.3506908e-05 -5.7418079e-05 
Loop time of 1.96287 on 52 procs for 88 steps with 288751 atoms

99.9% CPU use with 52 MPI tasks x 1 OpenMP threads

Minimization stats:
  Stopping criterion = energy tolerance
  Energy initial, next-to-last, final = 
     -1152449.37208439  -1152449.37373254  -1152449.37373254
  Force two-norm initial, final = 0.16737829 0.00028562391
  Force max component initial, final = 0.070073148 6.3670973e-05
  Final line search alpha, max atom move = 1.0000000 6.3670973e-05
  Iterations, force evaluations = 88 176

MPI task timing breakdown:
Section |  min time  |  avg time  |  max time  |%varavg| %total
---------------------------------------------------------------
Pair    | 0.50402    | 1.4005     | 1.8546     |  32.6 | 71.35
Neigh   | 0          | 0          | 0          |   0.0 |  0.00
Comm    | 0.026595   | 0.31483    | 0.98299    |  49.3 | 16.04
Output  | 0          | 0          | 0          |   0.0 |  0.00
Modify  | 2.744e-05  | 0.0029613  | 0.0063112  |   2.5 |  0.15
Other   |            | 0.2446     |            |       | 12.46

Nlocal:        5552.90 ave        7889 max           0 min
Histogram: 4 2 2 0 2 6 4 0 13 19
Nghost:        6213.19 ave        8772 max         412 min
Histogram: 4 0 4 0 8 0 4 5 7 20
Neighs:       158427.0 ave      230038 max           0 min
Histogram: 4 2 2 0 5 3 4 4 12 16

Total # of neighbors = 8238205
Ave neighs/atom = 28.530481
Neighbor list builds = 0
Dangerous builds = 0
The dot product: 5.16177906323347e-08
Setting atom values ...
  1 settings made for x
  1 settings made for y
  1 settings made for z
Setting up cg style minimization ...
  Unit style    : metal
  Current step  : 26340
Per MPI rank memory allocation (min/avg/max) = 5.465 | 6.344 | 6.730 Mbytes
Step PotEng KinEng TotEng v_fx v_fy v_fz 
   26340   -1152449.4            0   -1152449.4  0.050172593 -0.011910958 -0.022347234 
   26427   -1152449.4            0   -1152449.4 -2.2914118e-05 1.5623445e-05 -2.3628921e-06 
Loop time of 1.96664 on 52 procs for 87 steps with 288751 atoms

99.9% CPU use with 52 MPI tasks x 1 OpenMP threads

Minimization stats:
  Stopping criterion = linesearch alpha is zero
  Energy initial, next-to-last, final = 
     -1152449.36268344  -1152449.36412816  -1152449.36412816
  Force two-norm initial, final = 0.16308507 0.00013774255
  Force max component initial, final = 0.069826294 2.2914118e-05
  Final line search alpha, max atom move = 0.5 1.1457059e-05
  Iterations, force evaluations = 87 177

MPI task timing breakdown:
Section |  min time  |  avg time  |  max time  |%varavg| %total
---------------------------------------------------------------
Pair    | 0.50761    | 1.4099     | 1.8594     |  32.6 | 71.69
Neigh   | 0          | 0          | 0          |   0.0 |  0.00
Comm    | 0.026368   | 0.31636    | 0.98702    |  49.6 | 16.09
Output  | 0          | 0          | 0          |   0.0 |  0.00
Modify  | 2.719e-05  | 0.0029803  | 0.0062903  |   2.5 |  0.15
Other   |            | 0.2374     |            |       | 12.07

Nlocal:        5552.90 ave        7889 max           0 min
Histogram: 4 2 2 0 2 6 4 0 13 19
Nghost:        6213.19 ave        8772 max         412 min
Histogram: 4 0 4 0 8 0 4 5 7 20
Neighs:       158427.0 ave      230039 max           0 min
Histogram: 4 2 2 0 5 3 4 4 12 16

Total # of neighbors = 8238206
Ave neighs/atom = 28.530485
Neighbor list builds = 0
Dangerous builds = 0
The dot product: -2.478887036988e-07
Setting atom values ...
  1 settings made for x
  1 settings made for y
  1 settings made for z
Setting up cg style minimization ...
  Unit style    : metal
  Current step  : 26427
Per MPI rank memory allocation (min/avg/max) = 5.465 | 6.344 | 6.730 Mbytes
Step PotEng KinEng TotEng v_fx v_fy v_fz 
   26427   -1152449.4            0   -1152449.4  0.048692937 -0.011677345 -0.021801427 
   26515   -1152449.4            0   -1152449.4 -3.4745601e-05 4.2773664e-05 -2.6884362e-05 
Loop time of 1.9717 on 52 procs for 88 steps with 288751 atoms

99.8% CPU use with 52 MPI tasks x 1 OpenMP threads

Minimization stats:
  Stopping criterion = energy tolerance
  Energy initial, next-to-last, final = 
     -1152449.35275727  -1152449.35413228  -1152449.35413228
  Force two-norm initial, final = 0.16010397 0.00028111078
  Force max component initial, final = 0.06922354 4.3156503e-05
  Final line search alpha, max atom move = 1.0000000 4.3156503e-05
  Iterations, force evaluations = 88 176

MPI task timing breakdown:
Section |  min time  |  avg time  |  max time  |%varavg| %total
---------------------------------------------------------------
Pair    | 0.50568    | 1.4069     | 1.8644     |  32.7 | 71.35
Neigh   | 0          | 0          | 0          |   0.0 |  0.00
Comm    | 0.0282     | 0.31642    | 0.9807     |  49.2 | 16.05
Output  | 0          | 0          | 0          |   0.0 |  0.00
Modify  | 2.7347e-05 | 0.0029631  | 0.0062675  |   2.5 |  0.15
Other   |            | 0.2454     |            |       | 12.45

Nlocal:        5552.90 ave        7889 max           0 min
Histogram: 4 2 2 0 2 6 4 0 13 19
Nghost:        6213.19 ave        8772 max         412 min
Histogram: 4 0 4 0 8 0 4 5 7 20
Neighs:       158427.0 ave      230036 max           0 min
Histogram: 4 2 2 0 5 3 4 4 12 16

Total # of neighbors = 8238203
Ave neighs/atom = 28.530474
Neighbor list builds = 0
Dangerous builds = 0
The dot product: -3.77748107795147e-07
Setting atom values ...
  1 settings made for x
  1 settings made for y
  1 settings made for z
Setting up cg style minimization ...
  Unit style    : metal
  Current step  : 26515
Per MPI rank memory allocation (min/avg/max) = 5.465 | 6.344 | 6.730 Mbytes
Step PotEng KinEng TotEng v_fx v_fy v_fz 
   26515   -1152449.3            0   -1152449.3  0.048920675 -0.013341285 -0.020149236 
   26629   -1152449.3            0   -1152449.3 2.910396e-05 -3.5824641e-05 2.233497e-05 
Loop time of 2.5695 on 52 procs for 114 steps with 288751 atoms

99.9% CPU use with 52 MPI tasks x 1 OpenMP threads

Minimization stats:
  Stopping criterion = linesearch alpha is zero
  Energy initial, next-to-last, final = 
     -1152449.34233505  -1152449.34372413  -1152449.34372413
  Force two-norm initial, final = 0.15853168 0.00019833806
  Force max component initial, final = 0.068548317 3.8008383e-05
  Final line search alpha, max atom move = 0.25 9.5020958e-06
  Iterations, force evaluations = 114 231

MPI task timing breakdown:
Section |  min time  |  avg time  |  max time  |%varavg| %total
---------------------------------------------------------------
Pair    | 0.66224    | 1.8373     | 2.4294     |  37.3 | 71.50
Neigh   | 0          | 0          | 0          |   0.0 |  0.00
Comm    | 0.035701   | 0.41171    | 1.2798     |  56.6 | 16.02
Output  | 0          | 0          | 0          |   0.0 |  0.00
Modify  | 3.7266e-05 | 0.0038843  | 0.0082357  |   2.9 |  0.15
Other   |            | 0.3166     |            |       | 12.32

Nlocal:        5552.90 ave        7889 max           0 min
Histogram: 4 2 2 0 2 6 4 0 13 19
Nghost:        6213.19 ave        8772 max         412 min
Histogram: 4 0 4 0 8 0 4 5 7 20
Neighs:       158427.0 ave      230037 max           0 min
Histogram: 4 2 2 0 5 3 4 4 12 16

Total # of neighbors = 8238204
Ave neighs/atom = 28.530478
Neighbor list builds = 0
Dangerous builds = 0
The dot product: 3.41593926234015e-07
