LAMMPS (29 Oct 2020)
OMP_NUM_THREADS environment is not set. Defaulting to 1 thread. (../comm.cpp:94)
  using 1 OpenMP thread(s) per MPI task
OMP_NUM_THREADS environment is not set. Defaulting to 1 thread. (../comm.cpp:94)
  using 1 OpenMP thread(s) per MPI task
Reading data file ...
  orthogonal box = (-122.39241 -121.13707 -37.090501) to (122.39241 121.13707 37.090501)
  13 by 4 by 2 MPI processor grid
  reading atoms ...
  288751 atoms
  read_data CPU = 0.367 seconds
199981 atoms in group inner
88770 atoms in group outer
1 atoms in group carbon
Neighbor list info ...
  update every 1 steps, delay 0 steps, check yes
  max neighbors/atom: 2000, page size: 100000
  master list distance cutoff = 5.6
  ghost atom cutoff = 5.6
  binsize = 2.8, bins = 88 87 27
  1 neighbor lists, perpetual/occasional/extra = 1 0 0
  (1) pair eam/alloy, perpetual
      attributes: half, newton on
      pair build: half/bin/atomonly/newton
      stencil: half/bin/3d/newton
      bin: standard
Setting up cg style minimization ...
  Unit style    : metal
  Current step  : 0
Per MPI rank memory allocation (min/avg/max) = 5.441 | 5.816 | 6.074 Mbytes
Step v_fx v_fy v_fz PotEng KinEng TotEng 
       0   -12.723325    23.362917   -7.9335813   -1152441.8            0   -1152441.8 
     260 -3.7857035e-06 8.4608682e-06 -8.9063411e-06     -1152449            0     -1152449 
Loop time of 3.09268 on 104 procs for 260 steps with 288751 atoms

99.8% CPU use with 104 MPI tasks x 1 OpenMP threads

Minimization stats:
  Stopping criterion = energy tolerance
  Energy initial, next-to-last, final = 
      -1152441.7738611  -1152448.97218787  -1152448.97218787
  Force two-norm initial, final = 45.438617 8.4854021e-05
  Force max component initial, final = 29.694911 1.0624091e-05
  Final line search alpha, max atom move = 1.0000000 1.0624091e-05
  Iterations, force evaluations = 260 516

MPI task timing breakdown:
Section |  min time  |  avg time  |  max time  |%varavg| %total
---------------------------------------------------------------
Pair    | 0.82421    | 2.1815     | 2.8372     |  38.8 | 70.54
Neigh   | 0.00010496 | 0.029367   | 0.042626   |   7.1 |  0.95
Comm    | 0.057983   | 0.49783    | 1.4662     |  57.5 | 16.10
Output  | 0          | 0          | 0          |   0.0 |  0.00
Modify  | 3.0346e-05 | 0.0027876  | 0.0071374  |   3.3 |  0.09
Other   |            | 0.3812     |            |       | 12.32

Nlocal:        2776.45 ave        3955 max           0 min
Histogram: 8 4 4 0 4 12 8 0 30 34
Nghost:        3878.98 ave        5424 max         232 min
Histogram: 8 0 8 0 16 0 8 8 16 40
Neighs:        79213.5 ave      115302 max           0 min
Histogram: 8 4 4 0 10 6 8 8 24 32

Total # of neighbors = 8238205
Ave neighs/atom = 28.530481
Neighbor list builds = 10
Dangerous builds = 0
Setting atom values ...
  1 settings made for x
  1 settings made for y
  1 settings made for z
Setting up cg style minimization ...
  Unit style    : metal
  Current step  : 260
Per MPI rank memory allocation (min/avg/max) = 5.441 | 5.816 | 6.074 Mbytes
Step PotEng KinEng TotEng v_fx v_fy v_fz 
     260     -1152449            0     -1152449  0.030417437 -0.024567302  0.029735346 
     488     -1152449            0     -1152449 2.7030148e-05 -3.4070438e-05 2.4693717e-05 
Loop time of 2.67996 on 104 procs for 228 steps with 288751 atoms

99.9% CPU use with 104 MPI tasks x 1 OpenMP threads

Minimization stats:
  Stopping criterion = energy tolerance
  Energy initial, next-to-last, final = 
     -1152448.96837166   -1152448.9713769   -1152448.9713769
  Force two-norm initial, final = 0.21704055 0.00014186729
  Force max component initial, final = 0.08941324 3.4070438e-05
  Final line search alpha, max atom move = 1.0000000 3.4070438e-05
  Iterations, force evaluations = 228 456

MPI task timing breakdown:
Section |  min time  |  avg time  |  max time  |%varavg| %total
---------------------------------------------------------------
Pair    | 0.69649    | 1.9318     | 2.503      |  37.4 | 72.08
Neigh   | 0          | 0          | 0          |   0.0 |  0.00
Comm    | 0.045897   | 0.43248    | 1.3017     |  55.7 | 16.14
Output  | 0          | 0          | 0          |   0.0 |  0.00
Modify  | 3.2715e-05 | 0.0037689  | 0.0080377  |   2.9 |  0.14
Other   |            | 0.3119     |            |       | 11.64

Nlocal:        2776.45 ave        3953 max           0 min
Histogram: 8 4 4 0 4 12 8 0 30 34
Nghost:        3879.07 ave        5424 max         232 min
Histogram: 8 0 8 0 16 0 8 8 16 40
Neighs:        79213.5 ave      115238 max           0 min
Histogram: 8 4 4 0 10 6 8 8 24 32

Total # of neighbors = 8238204
Ave neighs/atom = 28.530478
Neighbor list builds = 0
Dangerous builds = 0
Setting atom values ...
  1 settings made for x
  1 settings made for y
  1 settings made for z
Setting up cg style minimization ...
  Unit style    : metal
  Current step  : 488
Per MPI rank memory allocation (min/avg/max) = 5.441 | 5.816 | 6.074 Mbytes
Step PotEng KinEng TotEng v_fx v_fy v_fz 
     488     -1152449            0     -1152449   0.01550882 -0.068776893 0.0066348289 
     718     -1152449            0     -1152449 9.4784163e-06 -1.1133628e-05 4.6404125e-06 
Loop time of 2.70456 on 104 procs for 230 steps with 288751 atoms

99.9% CPU use with 104 MPI tasks x 1 OpenMP threads

Minimization stats:
  Stopping criterion = energy tolerance
  Energy initial, next-to-last, final = 
     -1152448.96419406  -1152448.96890229  -1152448.96890229
  Force two-norm initial, final = 0.27000367 5.9742663e-05
  Force max component initial, final = 0.126062 1.1635959e-05
  Final line search alpha, max atom move = 1.0000000 1.1635959e-05
  Iterations, force evaluations = 230 460

MPI task timing breakdown:
Section |  min time  |  avg time  |  max time  |%varavg| %total
---------------------------------------------------------------
Pair    | 0.69867    | 1.9316     | 2.5246     |  37.5 | 71.42
Neigh   | 0          | 0          | 0          |   0.0 |  0.00
Comm    | 0.047978   | 0.43736    | 1.3064     |  55.1 | 16.17
Output  | 0          | 0          | 0          |   0.0 |  0.00
Modify  | 3.034e-05  | 0.003792   | 0.0081178  |   2.9 |  0.14
Other   |            | 0.3318     |            |       | 12.27

Nlocal:        2776.45 ave        3955 max           0 min
Histogram: 8 4 4 0 4 12 8 0 30 34
Nghost:        3879.06 ave        5425 max         232 min
Histogram: 8 0 8 0 16 0 8 8 16 40
Neighs:        79213.5 ave      115302 max           0 min
Histogram: 8 4 4 0 10 6 8 8 24 32

Total # of neighbors = 8238203
Ave neighs/atom = 28.530474
Neighbor list builds = 0
Dangerous builds = 0
The dot product: -2.61372434436122e-06
The cos of the angle between the force vector and the displacement vector: -0.17038045408895
The angle: 99.8099401906546
Setting atom values ...
  1 settings made for x
  1 settings made for y
  1 settings made for z
Setting up cg style minimization ...
  Unit style    : metal
  Current step  : 718
Per MPI rank memory allocation (min/avg/max) = 5.441 | 5.816 | 6.074 Mbytes
Step PotEng KinEng TotEng v_fx v_fy v_fz 
     718     -1152449            0     -1152449 -0.0067225934 -0.090245129 -0.0012609717 
     968     -1152449            0     -1152449 -3.5583613e-06 5.5530042e-06 -7.4209925e-07 
Loop time of 2.91358 on 104 procs for 250 steps with 288751 atoms

99.9% CPU use with 104 MPI tasks x 1 OpenMP threads

Minimization stats:
  Stopping criterion = energy tolerance
  Energy initial, next-to-last, final = 
     -1152448.96009274  -1152448.96640972  -1152448.96640972
  Force two-norm initial, final = 0.28679145 4.2149434e-05
  Force max component initial, final = 0.1310202 8.7987822e-06
  Final line search alpha, max atom move = 1.0000000 8.7987822e-06
  Iterations, force evaluations = 250 500

MPI task timing breakdown:
Section |  min time  |  avg time  |  max time  |%varavg| %total
---------------------------------------------------------------
Pair    | 0.75741    | 2.1133     | 2.7317     |  39.3 | 72.53
Neigh   | 0          | 0          | 0          |   0.0 |  0.00
Comm    | 0.047893   | 0.47456    | 1.4357     |  58.6 | 16.29
Output  | 0          | 0          | 0          |   0.0 |  0.00
Modify  | 3.3654e-05 | 0.0041214  | 0.0089046  |   3.0 |  0.14
Other   |            | 0.3216     |            |       | 11.04

Nlocal:        2776.45 ave        3955 max           0 min
Histogram: 8 4 4 0 4 12 8 0 30 34
Nghost:        3879.06 ave        5425 max         232 min
Histogram: 8 0 8 0 16 0 8 8 16 40
Neighs:        79213.5 ave      115288 max           0 min
Histogram: 8 4 4 0 10 6 8 8 24 32

Total # of neighbors = 8238208
Ave neighs/atom = 28.530492
Neighbor list builds = 0
Dangerous builds = 0
The dot product: 1.40440830293375e-06
The cos of the angle between the force vector and the displacement vector: 0.211605920531784
The angle: 77.7835200918434
Setting atom values ...
  1 settings made for x
  1 settings made for y
  1 settings made for z
Setting up cg style minimization ...
  Unit style    : metal
  Current step  : 968
Per MPI rank memory allocation (min/avg/max) = 5.441 | 5.816 | 6.074 Mbytes
Step PotEng KinEng TotEng v_fx v_fy v_fz 
     968     -1152449            0     -1152449  -0.01016042  -0.09023691 -0.0092079403 
    1000     -1152449            0     -1152449 -0.0013199583 0.0018382662 0.0002254639 
    1254     -1152449            0     -1152449 -2.4116287e-07 6.3018426e-07 7.2048937e-08 
Loop time of 3.3287 on 104 procs for 286 steps with 288751 atoms

99.9% CPU use with 104 MPI tasks x 1 OpenMP threads

Minimization stats:
  Stopping criterion = energy tolerance
  Energy initial, next-to-last, final = 
     -1152448.95753013  -1152448.96415933  -1152448.96415933
  Force two-norm initial, final = 0.30602139 1.1539018e-05
  Force max component initial, final = 0.12437992 2.8119646e-06
  Final line search alpha, max atom move = 1.0000000 2.8119646e-06
  Iterations, force evaluations = 286 572

MPI task timing breakdown:
Section |  min time  |  avg time  |  max time  |%varavg| %total
---------------------------------------------------------------
Pair    | 0.86818    | 2.3967     | 3.1304     |  41.6 | 72.00
Neigh   | 0          | 0          | 0          |   0.0 |  0.00
Comm    | 0.054004   | 0.53818    | 1.6154     |  61.6 | 16.17
Output  | 0.00014835 | 0.00015579 | 0.00024658 |   0.0 |  0.00
Modify  | 3.6473e-05 | 0.004708   | 0.010058   |   3.2 |  0.14
Other   |            | 0.389      |            |       | 11.69

Nlocal:        2776.45 ave        3956 max           0 min
Histogram: 8 4 4 0 4 12 8 0 30 34
Nghost:        3879.06 ave        5425 max         232 min
Histogram: 8 0 8 0 16 0 8 8 16 40
Neighs:        79213.6 ave      115311 max           0 min
Histogram: 8 4 4 0 10 6 8 8 24 32

Total # of neighbors = 8238215
Ave neighs/atom = 28.530516
Neighbor list builds = 0
Dangerous builds = 0
The dot product: 8.51737623179063e-08
The cos of the angle between the force vector and the displacement vector: 0.125516012494551
The angle: 82.7894441809977
Setting atom values ...
  1 settings made for x
  1 settings made for y
  1 settings made for z
Setting up cg style minimization ...
  Unit style    : metal
  Current step  : 1254
Per MPI rank memory allocation (min/avg/max) = 5.441 | 5.816 | 6.074 Mbytes
Step PotEng KinEng TotEng v_fx v_fy v_fz 
    1254     -1152449            0     -1152449 -0.00087442616 -0.094659463 -0.018978053 
    1492     -1152449            0     -1152449 2.123272e-06 -4.3511696e-06 -1.1645068e-06 
Loop time of 2.81027 on 104 procs for 238 steps with 288751 atoms

99.9% CPU use with 104 MPI tasks x 1 OpenMP threads

Minimization stats:
  Stopping criterion = energy tolerance
  Energy initial, next-to-last, final = 
     -1152448.95581191  -1152448.96146288  -1152448.96146288
  Force two-norm initial, final = 0.32235097 4.1194524e-05
  Force max component initial, final = 0.14436875 1.4011264e-05
  Final line search alpha, max atom move = 1.0000000 1.4011264e-05
  Iterations, force evaluations = 238 476

MPI task timing breakdown:
Section |  min time  |  avg time  |  max time  |%varavg| %total
---------------------------------------------------------------
Pair    | 0.73412    | 2.0111     | 2.5949     |  37.7 | 71.56
Neigh   | 0          | 0          | 0          |   0.0 |  0.00
Comm    | 0.042799   | 0.44968    | 1.3496     |  56.5 | 16.00
Output  | 0          | 0          | 0          |   0.0 |  0.00
Modify  | 3.1748e-05 | 0.0039287  | 0.0083758  |   3.0 |  0.14
Other   |            | 0.3455     |            |       | 12.29

Nlocal:        2776.45 ave        3956 max           0 min
Histogram: 8 4 4 0 4 12 8 0 30 34
Nghost:        3879.02 ave        5424 max         232 min
Histogram: 8 0 8 0 16 0 8 8 16 40
Neighs:        79213.6 ave      115304 max           0 min
Histogram: 8 4 4 0 10 6 8 8 24 32

Total # of neighbors = 8238213
Ave neighs/atom = 28.530509
Neighbor list builds = 0
Dangerous builds = 0
The dot product: 1.08737037569431e-07
The cos of the angle between the force vector and the displacement vector: 0.0218362270995845
The angle: 88.7487768983982
Setting atom values ...
  1 settings made for x
  1 settings made for y
  1 settings made for z
Setting up cg style minimization ...
  Unit style    : metal
  Current step  : 1492
Per MPI rank memory allocation (min/avg/max) = 5.441 | 5.816 | 6.074 Mbytes
Step PotEng KinEng TotEng v_fx v_fy v_fz 
    1492     -1152449            0     -1152449 0.0049309609  -0.11164459 -0.019896062 
    1695     -1152449            0     -1152449 -3.9665127e-06 8.5672352e-06 2.0426647e-06 
Loop time of 2.34953 on 104 procs for 203 steps with 288751 atoms

99.9% CPU use with 104 MPI tasks x 1 OpenMP threads

Minimization stats:
  Stopping criterion = energy tolerance
  Energy initial, next-to-last, final = 
     -1152448.95179902  -1152448.95752631  -1152448.95752631
  Force two-norm initial, final = 0.32510584 0.00011568056
  Force max component initial, final = 0.14387572 2.1322719e-05
  Final line search alpha, max atom move = 1.0000000 2.1322719e-05
  Iterations, force evaluations = 203 406

MPI task timing breakdown:
Section |  min time  |  avg time  |  max time  |%varavg| %total
---------------------------------------------------------------
Pair    | 0.61594    | 1.701      | 2.2182     |  35.1 | 72.40
Neigh   | 0          | 0          | 0          |   0.0 |  0.00
Comm    | 0.03573    | 0.38095    | 1.1494     |  52.2 | 16.21
Output  | 0          | 0          | 0          |   0.0 |  0.00
Modify  | 2.6232e-05 | 0.0033458  | 0.0071299  |   2.7 |  0.14
Other   |            | 0.2642     |            |       | 11.24

Nlocal:        2776.45 ave        3954 max           0 min
Histogram: 8 4 4 0 4 12 8 0 30 34
Nghost:        3879.08 ave        5424 max         232 min
Histogram: 8 0 8 0 16 0 8 8 16 40
Neighs:        79213.6 ave      115283 max           0 min
Histogram: 8 4 4 0 10 6 8 8 24 32

Total # of neighbors = 8238210
Ave neighs/atom = 28.530499
Neighbor list builds = 0
Dangerous builds = 0
The dot product: -3.33212991872074e-07
The cos of the angle between the force vector and the displacement vector: -0.0344963867028848
The angle: 91.9768895821346
Setting atom values ...
  1 settings made for x
  1 settings made for y
  1 settings made for z
Setting up cg style minimization ...
  Unit style    : metal
  Current step  : 1695
Per MPI rank memory allocation (min/avg/max) = 5.441 | 5.816 | 6.074 Mbytes
Step PotEng KinEng TotEng v_fx v_fy v_fz 
    1695   -1152448.9            0   -1152448.9 0.0064706563  -0.12218524 -0.017079485 
    1919     -1152449            0     -1152449 -3.8395558e-06 9.384239e-06 1.7928537e-06 
Loop time of 2.60644 on 104 procs for 224 steps with 288751 atoms

99.9% CPU use with 104 MPI tasks x 1 OpenMP threads

Minimization stats:
  Stopping criterion = energy tolerance
  Energy initial, next-to-last, final = 
     -1152448.94700865  -1152448.95214228  -1152448.95214228
  Force two-norm initial, final = 0.32436157 6.4390044e-05
  Force max component initial, final = 0.14078251 1.4245600e-05
  Final line search alpha, max atom move = 1.0000000 1.4245600e-05
  Iterations, force evaluations = 224 448

MPI task timing breakdown:
Section |  min time  |  avg time  |  max time  |%varavg| %total
---------------------------------------------------------------
Pair    | 0.68082    | 1.8874     | 2.4471     |  36.9 | 72.41
Neigh   | 0          | 0          | 0          |   0.0 |  0.00
Comm    | 0.040138   | 0.4223     | 1.2867     |  55.0 | 16.20
Output  | 0          | 0          | 0          |   0.0 |  0.00
Modify  | 2.938e-05  | 0.0037006  | 0.0079203  |   2.9 |  0.14
Other   |            | 0.2931     |            |       | 11.24

Nlocal:        2776.45 ave        3955 max           0 min
Histogram: 8 4 4 0 4 12 8 0 30 34
Nghost:        3879.08 ave        5424 max         232 min
Histogram: 8 0 8 0 16 0 8 8 16 40
Neighs:        79213.5 ave      115271 max           0 min
Histogram: 8 4 4 0 10 6 8 8 24 32

Total # of neighbors = 8238204
Ave neighs/atom = 28.530478
Neighbor list builds = 0
Dangerous builds = 0
The dot product: -5.00913975178356e-07
The cos of the angle between the force vector and the displacement vector: -0.0486483724873698
The angle: 92.7884470484146
Setting atom values ...
  1 settings made for x
  1 settings made for y
  1 settings made for z
Setting up cg style minimization ...
  Unit style    : metal
  Current step  : 1919
Per MPI rank memory allocation (min/avg/max) = 5.441 | 5.816 | 6.074 Mbytes
Step PotEng KinEng TotEng v_fx v_fy v_fz 
    1919   -1152448.9            0   -1152448.9 0.0084259771  -0.13301787 -0.011903856 
    2000   -1152448.9            0   -1152448.9 -6.9786464e-05 0.00015999089 2.2512713e-05 
    2136   -1152448.9            0   -1152448.9 2.4813244e-06 -3.9998401e-06 -6.6402661e-07 
Loop time of 2.52171 on 104 procs for 217 steps with 288751 atoms

99.9% CPU use with 104 MPI tasks x 1 OpenMP threads

Minimization stats:
  Stopping criterion = energy tolerance
  Energy initial, next-to-last, final = 
     -1152448.94002697  -1152448.94502347  -1152448.94502347
  Force two-norm initial, final = 0.32179487 7.8555708e-05
  Force max component initial, final = 0.13494618 7.7748837e-06
  Final line search alpha, max atom move = 1.0000000 7.7748837e-06
  Iterations, force evaluations = 217 434

MPI task timing breakdown:
Section |  min time  |  avg time  |  max time  |%varavg| %total
---------------------------------------------------------------
Pair    | 0.65982    | 1.8227     | 2.3768     |  36.4 | 72.28
Neigh   | 0          | 0          | 0          |   0.0 |  0.00
Comm    | 0.039339   | 0.40755    | 1.2253     |  53.9 | 16.16
Output  | 0.00014004 | 0.00015299 | 0.00028641 |   0.0 |  0.01
Modify  | 2.8124e-05 | 0.003574   | 0.0076439  |   2.8 |  0.14
Other   |            | 0.2878     |            |       | 11.41

Nlocal:        2776.45 ave        3955 max           0 min
Histogram: 8 4 4 0 4 12 8 0 30 34
Nghost:        3879.10 ave        5425 max         232 min
Histogram: 8 0 8 0 16 0 8 8 16 40
Neighs:        79213.5 ave      115264 max           0 min
Histogram: 8 4 4 0 10 6 8 8 24 32

Total # of neighbors = 8238204
Ave neighs/atom = 28.530478
Neighbor list builds = 0
Dangerous builds = 0
The dot product: 2.29436606707196e-07
The cos of the angle between the force vector and the displacement vector: 0.0482659594203572
The angle: 87.2334893760525
Setting atom values ...
  1 settings made for x
  1 settings made for y
  1 settings made for z
Setting up cg style minimization ...
  Unit style    : metal
  Current step  : 2136
Per MPI rank memory allocation (min/avg/max) = 5.441 | 5.816 | 6.074 Mbytes
Step PotEng KinEng TotEng v_fx v_fy v_fz 
    2136   -1152448.9            0   -1152448.9  0.010211863  -0.13984553 -0.0052773618 
    2311   -1152448.9            0   -1152448.9 2.3474076e-05 -5.9196749e-05 -4.6979014e-06 
Loop time of 2.03105 on 104 procs for 175 steps with 288751 atoms

99.9% CPU use with 104 MPI tasks x 1 OpenMP threads

Minimization stats:
  Stopping criterion = energy tolerance
  Energy initial, next-to-last, final = 
     -1152448.93144483  -1152448.93612559  -1152448.93612559
  Force two-norm initial, final = 0.31756427 0.00021772231
  Force max component initial, final = 0.13984553 5.9196749e-05
  Final line search alpha, max atom move = 1.0000000 5.9196749e-05
  Iterations, force evaluations = 175 350

MPI task timing breakdown:
Section |  min time  |  avg time  |  max time  |%varavg| %total
---------------------------------------------------------------
Pair    | 0.53546    | 1.4794     | 1.912      |  32.6 | 72.84
Neigh   | 0          | 0          | 0          |   0.0 |  0.00
Comm    | 0.031412   | 0.33009    | 1.0123     |  49.3 | 16.25
Output  | 0          | 0          | 0          |   0.0 |  0.00
Modify  | 2.3566e-05 | 0.0028937  | 0.0062149  |   2.5 |  0.14
Other   |            | 0.2186     |            |       | 10.76

Nlocal:        2776.45 ave        3955 max           0 min
Histogram: 8 4 4 0 4 12 8 0 30 34
Nghost:        3879.12 ave        5425 max         232 min
Histogram: 8 0 8 0 16 0 8 8 16 40
Neighs:        79213.5 ave      115259 max           0 min
Histogram: 8 4 4 0 10 6 8 8 24 32

Total # of neighbors = 8238201
Ave neighs/atom = 28.530467
Neighbor list builds = 0
Dangerous builds = 0
The dot product: 2.57419644490903e-06
The cos of the angle between the force vector and the displacement vector: 0.0403136651734675
The angle: 87.6895710254859
Setting atom values ...
  1 settings made for x
  1 settings made for y
  1 settings made for z
Setting up cg style minimization ...
  Unit style    : metal
  Current step  : 2311
Per MPI rank memory allocation (min/avg/max) = 5.441 | 5.816 | 6.074 Mbytes
Step PotEng KinEng TotEng v_fx v_fy v_fz 
    2311   -1152448.9            0   -1152448.9  0.013427802  -0.13797642 0.00038084695 
    2486   -1152448.9            0   -1152448.9 1.0849039e-05 -2.9379788e-05 -9.4095008e-07 
Loop time of 2.07012 on 104 procs for 175 steps with 288751 atoms

99.9% CPU use with 104 MPI tasks x 1 OpenMP threads

Minimization stats:
  Stopping criterion = energy tolerance
  Energy initial, next-to-last, final = 
      -1152448.9208073  -1152448.92516535  -1152448.92516535
  Force two-norm initial, final = 0.31139979 0.00016765645
  Force max component initial, final = 0.13797642 3.9444101e-05
  Final line search alpha, max atom move = 1.0000000 3.9444101e-05
  Iterations, force evaluations = 175 350

MPI task timing breakdown:
Section |  min time  |  avg time  |  max time  |%varavg| %total
---------------------------------------------------------------
Pair    | 0.52886    | 1.4736     | 1.9267     |  32.8 | 71.19
Neigh   | 0          | 0          | 0          |   0.0 |  0.00
Comm    | 0.032202   | 0.33464    | 1.001      |  48.1 | 16.17
Output  | 0          | 0          | 0          |   0.0 |  0.00
Modify  | 2.2183e-05 | 0.0028959  | 0.0067463  |   2.6 |  0.14
Other   |            | 0.259      |            |       | 12.51

Nlocal:        2776.45 ave        3955 max           0 min
Histogram: 8 4 4 0 4 12 8 0 30 34
Nghost:        3879.14 ave        5425 max         232 min
Histogram: 8 0 8 0 16 0 8 8 16 40
Neighs:        79213.5 ave      115258 max           0 min
Histogram: 8 4 4 0 10 6 8 8 24 32

Total # of neighbors = 8238201
Ave neighs/atom = 28.530467
Neighbor list builds = 0
Dangerous builds = 0
The dot product: 9.81156646974516e-07
The cos of the angle between the force vector and the displacement vector: 0.0313138095724514
The angle: 88.2055575313501
Setting atom values ...
  1 settings made for x
  1 settings made for y
  1 settings made for z
Setting up cg style minimization ...
  Unit style    : metal
  Current step  : 2486
Per MPI rank memory allocation (min/avg/max) = 5.441 | 5.816 | 6.074 Mbytes
Step PotEng KinEng TotEng v_fx v_fy v_fz 
    2486   -1152448.9            0   -1152448.9   0.02880647  -0.12740994 0.0025388482 
    2647   -1152448.9            0   -1152448.9 -2.1725468e-05 5.9336954e-05 -1.2325131e-07 
Loop time of 1.87589 on 104 procs for 161 steps with 288751 atoms

99.9% CPU use with 104 MPI tasks x 1 OpenMP threads

Minimization stats:
  Stopping criterion = energy tolerance
  Energy initial, next-to-last, final = 
     -1152448.90719371  -1152448.91144636  -1152448.91144636
  Force two-norm initial, final = 0.30457023 0.0002677692
  Force max component initial, final = 0.12740994 8.9880203e-05
  Final line search alpha, max atom move = 1.0000000 8.9880203e-05
  Iterations, force evaluations = 161 322

MPI task timing breakdown:
Section |  min time  |  avg time  |  max time  |%varavg| %total
---------------------------------------------------------------
Pair    | 0.48815    | 1.3601     | 1.7564     |  31.4 | 72.50
Neigh   | 0          | 0          | 0          |   0.0 |  0.00
Comm    | 0.029479   | 0.30459    | 0.92039    |  46.9 | 16.24
Output  | 0          | 0          | 0          |   0.0 |  0.00
Modify  | 2.0919e-05 | 0.0026597  | 0.0057142  |   2.4 |  0.14
Other   |            | 0.2086     |            |       | 11.12

Nlocal:        2776.45 ave        3955 max           0 min
Histogram: 8 4 4 0 4 12 8 0 30 34
Nghost:        3879.14 ave        5425 max         232 min
Histogram: 8 0 8 0 16 0 8 8 16 40
Neighs:        79213.4 ave      115258 max           0 min
Histogram: 8 4 4 0 10 6 8 8 24 32

Total # of neighbors = 8238198
Ave neighs/atom = 28.530457
Neighbor list builds = 0
Dangerous builds = 0
The dot product: -1.39914767505953e-06
The cos of the angle between the force vector and the displacement vector: -0.0221421679796811
The angle: 91.2687564623002
Setting atom values ...
  1 settings made for x
  1 settings made for y
  1 settings made for z
Setting up cg style minimization ...
  Unit style    : metal
  Current step  : 2647
Per MPI rank memory allocation (min/avg/max) = 5.441 | 5.816 | 6.074 Mbytes
Step PotEng KinEng TotEng v_fx v_fy v_fz 
    2647   -1152448.9            0   -1152448.9  0.037207786  -0.12127232 0.0040075591 
    2841   -1152448.9            0   -1152448.9 -6.3510039e-06 1.227077e-05 -9.3347267e-08 
Loop time of 2.26316 on 104 procs for 194 steps with 288751 atoms

99.9% CPU use with 104 MPI tasks x 1 OpenMP threads

Minimization stats:
  Stopping criterion = energy tolerance
  Energy initial, next-to-last, final = 
     -1152448.89044524  -1152448.89468919  -1152448.89468919
  Force two-norm initial, final = 0.30131091 0.00010924753
  Force max component initial, final = 0.125919 1.4591777e-05
  Final line search alpha, max atom move = 1.0000000 1.4591777e-05
  Iterations, force evaluations = 194 388

MPI task timing breakdown:
Section |  min time  |  avg time  |  max time  |%varavg| %total
---------------------------------------------------------------
Pair    | 0.58451    | 1.626      | 2.1311     |  34.4 | 71.85
Neigh   | 0          | 0          | 0          |   0.0 |  0.00
Comm    | 0.035302   | 0.36591    | 1.099      |  50.8 | 16.17
Output  | 0          | 0          | 0          |   0.0 |  0.00
Modify  | 2.477e-05  | 0.0031976  | 0.0068394  |   2.7 |  0.14
Other   |            | 0.268      |            |       | 11.84

Nlocal:        2776.45 ave        3955 max           0 min
Histogram: 8 4 4 0 4 12 8 0 30 34
Nghost:        3879.10 ave        5425 max         232 min
Histogram: 8 0 8 0 16 0 8 8 16 40
Neighs:        79213.5 ave      115267 max           0 min
Histogram: 8 4 4 0 10 6 8 8 24 32

Total # of neighbors = 8238199
Ave neighs/atom = 28.530461
Neighbor list builds = 0
Dangerous builds = 0
The dot product: -1.96155286593468e-07
The cos of the angle between the force vector and the displacement vector: -0.0141964295304428
The angle: 90.8134228204937
Setting atom values ...
  1 settings made for x
  1 settings made for y
  1 settings made for z
Setting up cg style minimization ...
  Unit style    : metal
  Current step  : 2841
Per MPI rank memory allocation (min/avg/max) = 5.441 | 5.816 | 6.074 Mbytes
Step PotEng KinEng TotEng v_fx v_fy v_fz 
    2841   -1152448.9            0   -1152448.9  0.041577232  -0.11594116  0.004848597 
    3000   -1152448.9            0   -1152448.9 -2.1188885e-05 4.7493599e-05 -1.5135877e-06 
    3078   -1152448.9            0   -1152448.9 -2.5085804e-06 6.1655436e-06 -2.2401411e-07 
Loop time of 2.75213 on 104 procs for 237 steps with 288751 atoms

99.9% CPU use with 104 MPI tasks x 1 OpenMP threads

Minimization stats:
  Stopping criterion = energy tolerance
  Energy initial, next-to-last, final = 
     -1152448.87072073  -1152448.87557814  -1152448.87557814
  Force two-norm initial, final = 0.29939385 3.5311947e-05
  Force max component initial, final = 0.12926997 6.1655436e-06
  Final line search alpha, max atom move = 1.0000000 6.1655436e-06
  Iterations, force evaluations = 237 474

MPI task timing breakdown:
Section |  min time  |  avg time  |  max time  |%varavg| %total
---------------------------------------------------------------
Pair    | 0.71669    | 1.9964     | 2.592      |  38.1 | 72.54
Neigh   | 0          | 0          | 0          |   0.0 |  0.00
Comm    | 0.041141   | 0.44507    | 1.3454     |  56.7 | 16.17
Output  | 0.00014454 | 0.00015035 | 0.00030719 |   0.0 |  0.01
Modify  | 3.1163e-05 | 0.0039107  | 0.008342   |   2.9 |  0.14
Other   |            | 0.3066     |            |       | 11.14

Nlocal:        2776.45 ave        3955 max           0 min
Histogram: 8 4 4 0 4 12 8 0 30 34
Nghost:        3879.10 ave        5426 max         232 min
Histogram: 8 0 8 0 16 0 8 8 16 40
Neighs:        79213.4 ave      115270 max           0 min
Histogram: 8 4 4 0 10 6 8 8 24 32

Total # of neighbors = 8238198
Ave neighs/atom = 28.530457
Neighbor list builds = 0
Dangerous builds = 0
The dot product: 2.34366695950587e-07
The cos of the angle between the force vector and the displacement vector: 0.0351896052449774
The angle: 87.9833677885386
Setting atom values ...
  1 settings made for x
  1 settings made for y
  1 settings made for z
Setting up cg style minimization ...
  Unit style    : metal
  Current step  : 3078
Per MPI rank memory allocation (min/avg/max) = 5.441 | 5.816 | 6.074 Mbytes
Step PotEng KinEng TotEng v_fx v_fy v_fz 
    3078   -1152448.9            0   -1152448.9  0.028884036 -0.091569668 0.00089858202 
    3336   -1152448.9            0   -1152448.9 6.3006293e-07 -2.2689845e-06 3.337381e-08 
Loop time of 3.00425 on 104 procs for 258 steps with 288751 atoms

99.9% CPU use with 104 MPI tasks x 1 OpenMP threads

Minimization stats:
  Stopping criterion = energy tolerance
  Energy initial, next-to-last, final = 
     -1152448.85034661  -1152448.85530731  -1152448.85530731
  Force two-norm initial, final = 0.29465528 1.3881108e-05
  Force max component initial, final = 0.12481084 2.3070233e-06
  Final line search alpha, max atom move = 1.0000000 2.3070233e-06
  Iterations, force evaluations = 258 516

MPI task timing breakdown:
Section |  min time  |  avg time  |  max time  |%varavg| %total
---------------------------------------------------------------
Pair    | 0.78551    | 2.1627     | 2.8212     |  39.6 | 71.99
Neigh   | 0          | 0          | 0          |   0.0 |  0.00
Comm    | 0.047621   | 0.48571    | 1.4577     |  58.6 | 16.17
Output  | 0          | 0          | 0          |   0.0 |  0.00
Modify  | 3.3664e-05 | 0.0042478  | 0.0090616  |   3.1 |  0.14
Other   |            | 0.3516     |            |       | 11.70

Nlocal:        2776.45 ave        3956 max           0 min
Histogram: 8 4 4 0 4 12 8 0 30 34
Nghost:        3879.17 ave        5426 max         232 min
Histogram: 8 0 8 0 16 0 8 8 16 40
Neighs:        79213.4 ave      115311 max           0 min
Histogram: 8 4 4 0 10 6 8 8 24 32

Total # of neighbors = 8238193
Ave neighs/atom = 28.530440
Neighbor list builds = 0
Dangerous builds = 0
The dot product: -8.04773007631031e-08
The cos of the angle between the force vector and the displacement vector: -0.0341718467209771
The angle: 91.9582838410546
Setting atom values ...
  1 settings made for x
  1 settings made for y
  1 settings made for z
Setting up cg style minimization ...
  Unit style    : metal
  Current step  : 3336
Per MPI rank memory allocation (min/avg/max) = 5.441 | 5.816 | 6.074 Mbytes
Step PotEng KinEng TotEng v_fx v_fy v_fz 
    3336   -1152448.8            0   -1152448.8  0.031093812 -0.089572938 -0.0027829893 
    3532   -1152448.8            0   -1152448.8 1.7853571e-05 -4.9488615e-05 -1.6341319e-06 
Loop time of 2.26736 on 104 procs for 196 steps with 288751 atoms

99.9% CPU use with 104 MPI tasks x 1 OpenMP threads

Minimization stats:
  Stopping criterion = energy tolerance
  Energy initial, next-to-last, final = 
     -1152448.82748718  -1152448.83205133  -1152448.83205133
  Force two-norm initial, final = 0.29878334 0.00016999898
  Force max component initial, final = 0.12247585 4.9488615e-05
  Final line search alpha, max atom move = 1.0000000 4.9488615e-05
  Iterations, force evaluations = 196 392

MPI task timing breakdown:
Section |  min time  |  avg time  |  max time  |%varavg| %total
---------------------------------------------------------------
Pair    | 0.59332    | 1.6489     | 2.1395     |  34.6 | 72.72
Neigh   | 0          | 0          | 0          |   0.0 |  0.00
Comm    | 0.034228   | 0.36659    | 1.1157     |  51.7 | 16.17
Output  | 0          | 0          | 0          |   0.0 |  0.00
Modify  | 2.5841e-05 | 0.0032341  | 0.0069184  |   2.7 |  0.14
Other   |            | 0.2486     |            |       | 10.96

Nlocal:        2776.45 ave        3955 max           0 min
Histogram: 8 4 4 0 4 12 8 0 30 34
Nghost:        3879.22 ave        5426 max         232 min
Histogram: 8 0 8 0 16 0 8 8 16 40
Neighs:        79213.4 ave      115293 max           0 min
Histogram: 8 4 4 0 10 6 8 8 24 32

Total # of neighbors = 8238191
Ave neighs/atom = 28.530433
Neighbor list builds = 0
Dangerous builds = 0
The dot product: -1.61173630810676e-06
The cos of the angle between the force vector and the displacement vector: -0.0306204459513937
The angle: 91.7546965967154
Setting atom values ...
  1 settings made for x
  1 settings made for y
  1 settings made for z
Setting up cg style minimization ...
  Unit style    : metal
  Current step  : 3532
Per MPI rank memory allocation (min/avg/max) = 5.441 | 5.816 | 6.074 Mbytes
Step PotEng KinEng TotEng v_fx v_fy v_fz 
    3532   -1152448.8            0   -1152448.8  0.036065392  -0.08825212 -0.0064609301 
    3798   -1152448.8            0   -1152448.8 9.9321368e-07 -2.8032479e-06 -1.8216777e-07 
Loop time of 3.06546 on 104 procs for 266 steps with 288751 atoms

99.9% CPU use with 104 MPI tasks x 1 OpenMP threads

Minimization stats:
  Stopping criterion = energy tolerance
  Energy initial, next-to-last, final = 
     -1152448.80130348  -1152448.80583598  -1152448.80583598
  Force two-norm initial, final = 0.30257538 8.6517913e-06
  Force max component initial, final = 0.12995213 3.2195964e-06
  Final line search alpha, max atom move = 1.0000000 3.2195964e-06
  Iterations, force evaluations = 266 532

MPI task timing breakdown:
Section |  min time  |  avg time  |  max time  |%varavg| %total
---------------------------------------------------------------
Pair    | 0.80038    | 2.2232     | 2.8922     |  40.2 | 72.53
Neigh   | 0          | 0          | 0          |   0.0 |  0.00
Comm    | 0.045124   | 0.49586    | 1.501      |  59.9 | 16.18
Output  | 0          | 0          | 0          |   0.0 |  0.00
Modify  | 3.3759e-05 | 0.0043885  | 0.0094564  |   3.1 |  0.14
Other   |            | 0.342      |            |       | 11.16

Nlocal:        2776.45 ave        3954 max           0 min
Histogram: 8 4 4 0 4 12 8 0 30 34
Nghost:        3879.22 ave        5426 max         232 min
Histogram: 8 0 8 0 16 0 8 8 16 40
Neighs:        79213.4 ave      115228 max           0 min
Histogram: 8 4 4 0 10 6 8 8 24 32

Total # of neighbors = 8238191
Ave neighs/atom = 28.530433
Neighbor list builds = 0
Dangerous builds = 0
The dot product: -5.30992308198761e-08
The cos of the angle between the force vector and the displacement vector: -0.0178210855899019
The angle: 91.0211270456494
Setting atom values ...
  1 settings made for x
  1 settings made for y
  1 settings made for z
Setting up cg style minimization ...
  Unit style    : metal
  Current step  : 3798
Per MPI rank memory allocation (min/avg/max) = 5.441 | 5.816 | 6.074 Mbytes
Step PotEng KinEng TotEng v_fx v_fy v_fz 
    3798   -1152448.8            0   -1152448.8  0.041757258  -0.09693801 -0.0092984459 
    4000   -1152448.8            0   -1152448.8 7.6564223e-06 -2.2255471e-05 -1.8377534e-06 
    4019   -1152448.8            0   -1152448.8 -4.2734917e-06 1.3788211e-05 1.0662505e-06 
Loop time of 2.56673 on 104 procs for 221 steps with 288751 atoms

99.9% CPU use with 104 MPI tasks x 1 OpenMP threads

Minimization stats:
  Stopping criterion = energy tolerance
  Energy initial, next-to-last, final = 
     -1152448.77200572  -1152448.77636599  -1152448.77636599
  Force two-norm initial, final = 0.30760916 5.1492243e-05
  Force max component initial, final = 0.13424867 1.3788211e-05
  Final line search alpha, max atom move = 1.0000000 1.3788211e-05
  Iterations, force evaluations = 221 442

MPI task timing breakdown:
Section |  min time  |  avg time  |  max time  |%varavg| %total
---------------------------------------------------------------
Pair    | 0.67529    | 1.869      | 2.4186     |  36.7 | 72.82
Neigh   | 0          | 0          | 0          |   0.0 |  0.00
Comm    | 0.0391     | 0.41593    | 1.2681     |  55.4 | 16.20
Output  | 0.00010449 | 0.00011248 | 0.00027163 |   0.0 |  0.00
Modify  | 2.8873e-05 | 0.0036498  | 0.0078036  |   2.9 |  0.14
Other   |            | 0.278      |            |       | 10.83

Nlocal:        2776.45 ave        3955 max           0 min
Histogram: 8 4 4 0 4 12 8 0 30 34
Nghost:        3879.12 ave        5426 max         232 min
Histogram: 8 0 8 0 16 0 8 8 16 40
Neighs:        79213.4 ave      115255 max           0 min
Histogram: 8 4 4 0 10 6 8 8 24 32

Total # of neighbors = 8238189
Ave neighs/atom = 28.530426
Neighbor list builds = 0
Dangerous builds = 0
The dot product: 7.13944839349411e-08
The cos of the angle between the force vector and the displacement vector: 0.00493239387904285
The angle: 89.7173935019275
Setting atom values ...
  1 settings made for x
  1 settings made for y
  1 settings made for z
Setting up cg style minimization ...
  Unit style    : metal
  Current step  : 4019
Per MPI rank memory allocation (min/avg/max) = 5.441 | 5.816 | 6.074 Mbytes
Step PotEng KinEng TotEng v_fx v_fy v_fz 
    4019   -1152448.7            0   -1152448.7   0.04700895  -0.10792308  -0.01095651 
    4189   -1152448.7            0   -1152448.7 -2.184986e-05 6.2069451e-05 5.5191085e-06 
Loop time of 1.98288 on 104 procs for 170 steps with 288751 atoms

99.9% CPU use with 104 MPI tasks x 1 OpenMP threads

Minimization stats:
  Stopping criterion = energy tolerance
  Energy initial, next-to-last, final = 
     -1152448.73930132  -1152448.74342745  -1152448.74342745
  Force two-norm initial, final = 0.31153923 0.00017230603
  Force max component initial, final = 0.13517418 6.2069451e-05
  Final line search alpha, max atom move = 1.0000000 6.2069451e-05
  Iterations, force evaluations = 170 340

MPI task timing breakdown:
Section |  min time  |  avg time  |  max time  |%varavg| %total
---------------------------------------------------------------
Pair    | 0.51578    | 1.4287     | 1.8692     |  32.2 | 72.05
Neigh   | 0          | 0          | 0          |   0.0 |  0.00
Comm    | 0.030911   | 0.32181    | 0.97248    |  47.9 | 16.23
Output  | 0          | 0          | 0          |   0.0 |  0.00
Modify  | 2.2331e-05 | 0.0028056  | 0.0060101  |   2.5 |  0.14
Other   |            | 0.2296     |            |       | 11.58

Nlocal:        2776.45 ave        3955 max           0 min
Histogram: 8 4 4 0 4 12 8 0 30 34
Nghost:        3879.07 ave        5425 max         232 min
Histogram: 8 0 8 0 16 0 8 8 16 40
Neighs:        79213.3 ave      115254 max           0 min
Histogram: 8 4 4 0 10 6 8 8 24 32

Total # of neighbors = 8238188
Ave neighs/atom = 28.530422
Neighbor list builds = 0
Dangerous builds = 0
The dot product: -3.78911007159935e-07
The cos of the angle between the force vector and the displacement vector: -0.00573811692395237
The angle: 90.3287716863003
Setting atom values ...
  1 settings made for x
  1 settings made for y
  1 settings made for z
Setting up cg style minimization ...
  Unit style    : metal
  Current step  : 4189
Per MPI rank memory allocation (min/avg/max) = 5.441 | 5.816 | 6.074 Mbytes
Step PotEng KinEng TotEng v_fx v_fy v_fz 
    4189   -1152448.7            0   -1152448.7  0.050711007  -0.11750949 -0.011057645 
    4358   -1152448.7            0   -1152448.7 -1.8005747e-06 4.9844552e-06 4.1901304e-07 
Loop time of 1.95259 on 104 procs for 169 steps with 288751 atoms

99.9% CPU use with 104 MPI tasks x 1 OpenMP threads

Minimization stats:
  Stopping criterion = energy tolerance
  Energy initial, next-to-last, final = 
     -1152448.70300644  -1152448.70703868  -1152448.70703868
  Force two-norm initial, final = 0.31331448 0.00014478077
  Force max component initial, final = 0.13309028 3.2931854e-05
  Final line search alpha, max atom move = 1.0000000 3.2931854e-05
  Iterations, force evaluations = 169 338

MPI task timing breakdown:
Section |  min time  |  avg time  |  max time  |%varavg| %total
---------------------------------------------------------------
Pair    | 0.51391    | 1.4284     | 1.8433     |  32.2 | 73.15
Neigh   | 0          | 0          | 0          |   0.0 |  0.00
Comm    | 0.030145   | 0.31943    | 0.97547    |  48.5 | 16.36
Output  | 0          | 0          | 0          |   0.0 |  0.00
Modify  | 2.1351e-05 | 0.0027909  | 0.0059458  |   2.5 |  0.14
Other   |            | 0.202      |            |       | 10.35

Nlocal:        2776.45 ave        3955 max           0 min
Histogram: 8 4 4 0 4 12 8 0 30 34
Nghost:        3879.04 ave        5425 max         232 min
Histogram: 8 0 8 0 16 0 8 8 16 40
Neighs:        79213.3 ave      115243 max           0 min
Histogram: 8 4 4 0 10 6 8 8 24 32

Total # of neighbors = 8238186
Ave neighs/atom = 28.530415
Neighbor list builds = 0
Dangerous builds = 0
The dot product: -6.07866286479323e-08
The cos of the angle between the force vector and the displacement vector: -0.0114341338818963
The angle: 90.6551418898272
Setting atom values ...
  1 settings made for x
  1 settings made for y
  1 settings made for z
Setting up cg style minimization ...
  Unit style    : metal
  Current step  : 4358
Per MPI rank memory allocation (min/avg/max) = 5.441 | 5.816 | 6.074 Mbytes
Step PotEng KinEng TotEng v_fx v_fy v_fz 
    4358   -1152448.7            0   -1152448.7  0.050145773  -0.12356574 -0.0095946064 
    4528   -1152448.7            0   -1152448.7 -2.0610463e-05 5.2756885e-05 3.9908656e-06 
Loop time of 1.9871 on 104 procs for 170 steps with 288751 atoms

99.9% CPU use with 104 MPI tasks x 1 OpenMP threads

Minimization stats:
  Stopping criterion = energy tolerance
  Energy initial, next-to-last, final = 
     -1152448.66335152  -1152448.66728206  -1152448.66728206
  Force two-norm initial, final = 0.31250803 0.00014989077
  Force max component initial, final = 0.12920479 5.5196285e-05
  Final line search alpha, max atom move = 1.0000000 5.5196285e-05
  Iterations, force evaluations = 170 340

MPI task timing breakdown:
Section |  min time  |  avg time  |  max time  |%varavg| %total
---------------------------------------------------------------
Pair    | 0.51552    | 1.4321     | 1.8731     |  32.3 | 72.07
Neigh   | 0          | 0          | 0          |   0.0 |  0.00
Comm    | 0.030185   | 0.32275    | 0.97188    |  47.9 | 16.24
Output  | 0          | 0          | 0          |   0.0 |  0.00
Modify  | 2.1733e-05 | 0.0028086  | 0.0059933  |   2.5 |  0.14
Other   |            | 0.2294     |            |       | 11.55

Nlocal:        2776.45 ave        3955 max           0 min
Histogram: 8 4 4 0 4 12 8 0 30 34
Nghost:        3879.09 ave        5425 max         232 min
Histogram: 8 0 8 0 16 0 8 8 16 40
Neighs:        79213.3 ave      115247 max           0 min
Histogram: 8 4 4 0 10 6 8 8 24 32

Total # of neighbors = 8238186
Ave neighs/atom = 28.530415
Neighbor list builds = 0
Dangerous builds = 0
The dot product: -8.28830630160338e-07
The cos of the angle between the force vector and the displacement vector: -0.0145971408207472
The angle: 90.8363842660886
Setting atom values ...
  1 settings made for x
  1 settings made for y
  1 settings made for z
Setting up cg style minimization ...
  Unit style    : metal
  Current step  : 4528
Per MPI rank memory allocation (min/avg/max) = 5.441 | 5.816 | 6.074 Mbytes
Step PotEng KinEng TotEng v_fx v_fy v_fz 
    4528   -1152448.6            0   -1152448.6  0.044776911  -0.12712589 -0.0070150681 
    4750   -1152448.6            0   -1152448.6 7.7308589e-06 -1.7491383e-05 -1.1546449e-06 
Loop time of 2.59103 on 104 procs for 222 steps with 288751 atoms

99.9% CPU use with 104 MPI tasks x 1 OpenMP threads

Minimization stats:
  Stopping criterion = energy tolerance
  Energy initial, next-to-last, final = 
     -1152448.62046215  -1152448.62426632  -1152448.62426632
  Force two-norm initial, final = 0.30987587 4.8137469e-05
  Force max component initial, final = 0.12712589 1.7491383e-05
  Final line search alpha, max atom move = 1.0000000 1.7491383e-05
  Iterations, force evaluations = 222 444

MPI task timing breakdown:
Section |  min time  |  avg time  |  max time  |%varavg| %total
---------------------------------------------------------------
Pair    | 0.66963    | 1.8651     | 2.4227     |  36.8 | 71.98
Neigh   | 0          | 0          | 0          |   0.0 |  0.00
Comm    | 0.03943    | 0.41778    | 1.2589     |  54.5 | 16.12
Output  | 0          | 0          | 0          |   0.0 |  0.00
Modify  | 2.8428e-05 | 0.0036662  | 0.0078909  |   2.9 |  0.14
Other   |            | 0.3045     |            |       | 11.75

Nlocal:        2776.45 ave        3955 max           0 min
Histogram: 8 4 4 0 4 12 8 0 30 34
Nghost:        3879.09 ave        5425 max         232 min
Histogram: 8 0 8 0 16 0 8 8 16 40
Neighs:        79213.3 ave      115249 max           0 min
Histogram: 8 4 4 0 10 6 8 8 24 32

Total # of neighbors = 8238188
Ave neighs/atom = 28.530422
Neighbor list builds = 0
Dangerous builds = 0
The dot product: 3.13965437293799e-07
The cos of the angle between the force vector and the displacement vector: 0.0163877939477921
The angle: 89.0610065387485
Setting atom values ...
  1 settings made for x
  1 settings made for y
  1 settings made for z
Setting up cg style minimization ...
  Unit style    : metal
  Current step  : 4750
Per MPI rank memory allocation (min/avg/max) = 5.441 | 5.816 | 6.074 Mbytes
Step PotEng KinEng TotEng v_fx v_fy v_fz 
    4750   -1152448.6            0   -1152448.6  0.034737482  -0.12862899 -0.0037320514 
    4926   -1152448.6            0   -1152448.6 -5.0638951e-07 6.6956972e-06 5.0850831e-08 
Loop time of 2.04121 on 104 procs for 176 steps with 288751 atoms

99.9% CPU use with 104 MPI tasks x 1 OpenMP threads

Minimization stats:
  Stopping criterion = energy tolerance
  Energy initial, next-to-last, final = 
     -1152448.57447899  -1152448.57814867  -1152448.57814867
  Force two-norm initial, final = 0.30634511 0.00013772658
  Force max component initial, final = 0.12862899 3.4787727e-05
  Final line search alpha, max atom move = 1.0000000 3.4787727e-05
  Iterations, force evaluations = 176 352

MPI task timing breakdown:
Section |  min time  |  avg time  |  max time  |%varavg| %total
---------------------------------------------------------------
Pair    | 0.5354     | 1.4763     | 1.9237     |  32.6 | 72.32
Neigh   | 0          | 0          | 0          |   0.0 |  0.00
Comm    | 0.031803   | 0.33112    | 0.99719    |  48.5 | 16.22
Output  | 0          | 0          | 0          |   0.0 |  0.00
Modify  | 2.2925e-05 | 0.0029028  | 0.006174   |   2.5 |  0.14
Other   |            | 0.2309     |            |       | 11.31

Nlocal:        2776.45 ave        3954 max           0 min
Histogram: 8 4 4 0 4 12 8 0 30 34
Nghost:        3879.12 ave        5425 max         232 min
Histogram: 8 0 8 0 16 0 8 8 16 40
Neighs:        79213.3 ave      115210 max           0 min
Histogram: 8 4 4 0 10 6 8 8 24 32

Total # of neighbors = 8238187
Ave neighs/atom = 28.530419
Neighbor list builds = 0
Dangerous builds = 0
The dot product: -1.09425494653131e-07
The cos of the angle between the force vector and the displacement vector: -0.016295653049527
The angle: 90.9337134715958
Setting atom values ...
  1 settings made for x
  1 settings made for y
  1 settings made for z
Setting up cg style minimization ...
  Unit style    : metal
  Current step  : 4926
Per MPI rank memory allocation (min/avg/max) = 5.441 | 5.816 | 6.074 Mbytes
Step PotEng KinEng TotEng v_fx v_fy v_fz 
    4926   -1152448.5            0   -1152448.5  0.018319984  -0.12908513 0.00026117847 
    5000   -1152448.6            0   -1152448.6 4.6787766e-05 -0.0010384179 1.243864e-05 
    5287   -1152448.6            0   -1152448.6 -2.1988603e-06 6.7376673e-06 1.1407801e-07 
Loop time of 4.24608 on 104 procs for 361 steps with 288751 atoms

99.9% CPU use with 104 MPI tasks x 1 OpenMP threads

Minimization stats:
  Stopping criterion = energy tolerance
  Energy initial, next-to-last, final = 
     -1152448.52582098  -1152448.61421152  -1152448.61421152
  Force two-norm initial, final = 0.30287539 2.1927824e-05
  Force max component initial, final = 0.13220887 8.6801190e-06
  Final line search alpha, max atom move = 1.0000000 8.6801190e-06
  Iterations, force evaluations = 361 722

MPI task timing breakdown:
Section |  min time  |  avg time  |  max time  |%varavg| %total
---------------------------------------------------------------
Pair    | 1.1095     | 3.0513     | 3.9367     |  46.6 | 71.86
Neigh   | 2.0553e-05 | 0.0059199  | 0.0086057  |   3.2 |  0.14
Comm    | 0.073125   | 0.67926    | 2.0512     |  70.0 | 16.00
Output  | 0.00010774 | 0.00011071 | 0.00026021 |   0.0 |  0.00
Modify  | 4.798e-05  | 0.0059413  | 0.01271    |   3.6 |  0.14
Other   |            | 0.5035     |            |       | 11.86

Nlocal:        2776.45 ave        3954 max           0 min
Histogram: 8 4 4 0 4 12 8 0 30 34
Nghost:        3879.09 ave        5425 max         232 min
Histogram: 8 0 8 0 16 0 8 8 16 40
Neighs:        79213.6 ave      115212 max           0 min
Histogram: 8 4 4 0 10 6 8 8 24 32

Total # of neighbors = 8238212
Ave neighs/atom = 28.530506
Neighbor list builds = 2
Dangerous builds = 0
The dot product: -1.03843017649469e-06
The cos of the angle between the force vector and the displacement vector: -0.146498946551371
The angle: 98.4240895101173
Setting atom values ...
  1 settings made for x
  1 settings made for y
  1 settings made for z
Setting up cg style minimization ...
  Unit style    : metal
  Current step  : 5287
Per MPI rank memory allocation (min/avg/max) = 5.441 | 5.816 | 6.074 Mbytes
Step PotEng KinEng TotEng v_fx v_fy v_fz 
    5287   -1152448.6            0   -1152448.6 -0.076097971   -0.1835165  0.096307599 
    5571     -1152449            0     -1152449 2.4969766e-06 2.0138807e-06 -1.8711412e-06 
Loop time of 3.32837 on 104 procs for 284 steps with 288751 atoms

99.9% CPU use with 104 MPI tasks x 1 OpenMP threads

Minimization stats:
  Stopping criterion = energy tolerance
  Energy initial, next-to-last, final = 
     -1152448.60330712  -1152449.01569143  -1152449.01569143
  Force two-norm initial, final = 0.30522511 0.00012781384
  Force max component initial, final = 0.1835165 2.1111755e-05
  Final line search alpha, max atom move = 1.0000000 2.1111755e-05
  Iterations, force evaluations = 284 567

MPI task timing breakdown:
Section |  min time  |  avg time  |  max time  |%varavg| %total
---------------------------------------------------------------
Pair    | 0.88289    | 2.3832     | 3.1028     |  41.0 | 71.60
Neigh   | 6.0739e-05 | 0.017667   | 0.025953   |   5.5 |  0.53
Comm    | 0.053754   | 0.53697    | 1.6006     |  60.9 | 16.13
Output  | 0          | 0          | 0          |   0.0 |  0.00
Modify  | 3.9039e-05 | 0.0046721  | 0.0099624  |   3.2 |  0.14
Other   |            | 0.3859     |            |       | 11.59

Nlocal:        2776.45 ave        3957 max           0 min
Histogram: 8 4 4 0 4 12 8 2 28 34
Nghost:        3879.13 ave        5425 max         232 min
Histogram: 8 0 8 0 16 0 8 8 16 40
Neighs:        79213.6 ave      115355 max           0 min
Histogram: 8 4 4 0 10 6 8 8 24 32

Total # of neighbors = 8238216
Ave neighs/atom = 28.530519
Neighbor list builds = 6
Dangerous builds = 0
The dot product: -1.65593335781722e-06
The cos of the angle between the force vector and the displacement vector: -0.445895144444736
The angle: 116.480624081122
Setting atom values ...
  1 settings made for x
  1 settings made for y
  1 settings made for z
Setting up cg style minimization ...
  Unit style    : metal
  Current step  : 5571
Per MPI rank memory allocation (min/avg/max) = 5.441 | 5.816 | 6.074 Mbytes
Step PotEng KinEng TotEng v_fx v_fy v_fz 
    5571     -1152449            0     -1152449  -0.18270388   0.54728008  -0.78377298 
    5839   -1152449.2            0   -1152449.2 1.415877e-05 1.2305384e-05 -3.2019455e-05 
Loop time of 3.12649 on 104 procs for 268 steps with 288751 atoms

99.9% CPU use with 104 MPI tasks x 1 OpenMP threads

Minimization stats:
  Stopping criterion = energy tolerance
  Energy initial, next-to-last, final = 
     -1152449.04896593  -1152449.20398618  -1152449.20398618
  Force two-norm initial, final = 0.99970266 0.00010839972
  Force max component initial, final = 0.78377298 3.2019455e-05
  Final line search alpha, max atom move = 1.0000000 3.2019455e-05
  Iterations, force evaluations = 268 536

MPI task timing breakdown:
Section |  min time  |  avg time  |  max time  |%varavg| %total
---------------------------------------------------------------
Pair    | 0.8207     | 2.2695     | 2.9374     |  40.4 | 72.59
Neigh   | 2.0248e-05 | 0.0059096  | 0.0086006  |   3.2 |  0.19
Comm    | 0.048494   | 0.50595    | 1.5384     |  61.0 | 16.18
Output  | 0          | 0          | 0          |   0.0 |  0.00
Modify  | 3.4813e-05 | 0.0044208  | 0.0094754  |   3.1 |  0.14
Other   |            | 0.3407     |            |       | 10.90

Nlocal:        2776.45 ave        3961 max           0 min
Histogram: 8 4 4 0 6 10 8 2 28 34
Nghost:        3879.05 ave        5423 max         232 min
Histogram: 8 0 8 0 16 0 8 8 16 40
Neighs:        79213.5 ave      115491 max           0 min
Histogram: 8 4 4 0 10 6 8 8 24 32

Total # of neighbors = 8238207
Ave neighs/atom = 28.530488
Neighbor list builds = 2
Dangerous builds = 0
The dot product: 7.29582273653704e-06
The cos of the angle between the force vector and the displacement vector: 0.196600863619458
The angle: 78.6617432166857
Setting atom values ...
  1 settings made for x
  1 settings made for y
  1 settings made for z
Setting up cg style minimization ...
  Unit style    : metal
  Current step  : 5839
Per MPI rank memory allocation (min/avg/max) = 5.441 | 5.816 | 6.074 Mbytes
Step PotEng KinEng TotEng v_fx v_fy v_fz 
    5839   -1152449.2            0   -1152449.2   0.10145769  -0.34414481   0.23971056 
    6000   -1152449.3            0   -1152449.3 4.509098e-05 0.0001422517 -0.00015969499 
    6064   -1152449.3            0   -1152449.3 1.6603981e-05 7.169688e-06 -1.802993e-05 
Loop time of 2.61571 on 104 procs for 225 steps with 288751 atoms

99.9% CPU use with 104 MPI tasks x 1 OpenMP threads

Minimization stats:
  Stopping criterion = energy tolerance
  Energy initial, next-to-last, final = 
     -1152449.23668499  -1152449.25982078  -1152449.25982078
  Force two-norm initial, final = 0.49841388 0.00014436085
  Force max component initial, final = 0.34414481 4.3646971e-05
  Final line search alpha, max atom move = 1.0000000 4.3646971e-05
  Iterations, force evaluations = 225 450

MPI task timing breakdown:
Section |  min time  |  avg time  |  max time  |%varavg| %total
---------------------------------------------------------------
Pair    | 0.68559    | 1.887      | 2.4667     |  36.9 | 72.14
Neigh   | 1.0128e-05 | 0.0029518  | 0.0042865  |   2.2 |  0.11
Comm    | 0.039739   | 0.42338    | 1.2725     |  54.8 | 16.19
Output  | 0.00012664 | 0.00014022 | 0.0002962  |   0.0 |  0.01
Modify  | 2.8556e-05 | 0.0037089  | 0.00799    |   2.9 |  0.14
Other   |            | 0.2986     |            |       | 11.41

Nlocal:        2776.45 ave        3961 max           0 min
Histogram: 8 4 4 0 6 10 8 4 26 34
Nghost:        3879.11 ave        5424 max         232 min
Histogram: 8 0 8 0 16 0 8 8 16 40
Neighs:        79213.4 ave      115501 max           0 min
Histogram: 8 4 4 0 10 6 8 8 24 32

Total # of neighbors = 8238196
Ave neighs/atom = 28.530450
Neighbor list builds = 1
Dangerous builds = 0
The dot product: -8.81476030583144e-07
The cos of the angle between the force vector and the displacement vector: -0.0345166343464693
The angle: 91.9780503779424
Setting atom values ...
  1 settings made for x
  1 settings made for y
  1 settings made for z
Setting up cg style minimization ...
  Unit style    : metal
  Current step  : 6064
Per MPI rank memory allocation (min/avg/max) = 5.441 | 5.816 | 6.074 Mbytes
Step PotEng KinEng TotEng v_fx v_fy v_fz 
    6064   -1152449.3            0   -1152449.3 -0.027091366   0.04105192 -0.026036836 
    6337   -1152449.3            0   -1152449.3 -3.1165413e-07 6.5866031e-07 -5.0382422e-07 
Loop time of 3.15286 on 104 procs for 273 steps with 288751 atoms

99.9% CPU use with 104 MPI tasks x 1 OpenMP threads

Minimization stats:
  Stopping criterion = energy tolerance
  Energy initial, next-to-last, final = 
     -1152449.28825657  -1152449.29349915  -1152449.29349915
  Force two-norm initial, final = 0.2435568 1.0583023e-05
  Force max component initial, final = 0.13154683 2.5627862e-06
  Final line search alpha, max atom move = 1.0000000 2.5627862e-06
  Iterations, force evaluations = 273 546

MPI task timing breakdown:
Section |  min time  |  avg time  |  max time  |%varavg| %total
---------------------------------------------------------------
Pair    | 0.82737    | 2.3031     | 2.98       |  40.9 | 73.05
Neigh   | 0          | 0          | 0          |   0.0 |  0.00
Comm    | 0.046957   | 0.51831    | 1.5728     |  61.2 | 16.44
Output  | 0          | 0          | 0          |   0.0 |  0.00
Modify  | 3.5794e-05 | 0.0045111  | 0.0097382  |   3.2 |  0.14
Other   |            | 0.3269     |            |       | 10.37

Nlocal:        2776.45 ave        3961 max           0 min
Histogram: 8 4 4 0 6 10 8 4 26 34
Nghost:        3879.18 ave        5425 max         232 min
Histogram: 8 0 8 0 16 0 8 8 16 40
Neighs:        79213.5 ave      115509 max           0 min
Histogram: 8 4 4 0 10 6 8 8 24 32

Total # of neighbors = 8238206
Ave neighs/atom = 28.530485
Neighbor list builds = 0
Dangerous builds = 0
The dot product: 2.6137744338618e-08
The cos of the angle between the force vector and the displacement vector: 0.0295045136208357
The angle: 88.3092705311432
Setting atom values ...
  1 settings made for x
  1 settings made for y
  1 settings made for z
Setting up cg style minimization ...
  Unit style    : metal
  Current step  : 6337
Per MPI rank memory allocation (min/avg/max) = 5.441 | 5.816 | 6.074 Mbytes
Step PotEng KinEng TotEng v_fx v_fy v_fz 
    6337   -1152449.3            0   -1152449.3  0.022624935 -0.064925119  0.051229165 
    6537   -1152449.3            0   -1152449.3 -3.7137109e-06 -1.0212248e-05 1.3171127e-05 
Loop time of 2.35065 on 104 procs for 200 steps with 288751 atoms

99.9% CPU use with 104 MPI tasks x 1 OpenMP threads

Minimization stats:
  Stopping criterion = energy tolerance
  Energy initial, next-to-last, final = 
     -1152449.31925871  -1152449.32248529  -1152449.32248529
  Force two-norm initial, final = 0.25517018 0.00010493197
  Force max component initial, final = 0.13244175 1.5650606e-05
  Final line search alpha, max atom move = 1.0000000 1.5650606e-05
  Iterations, force evaluations = 200 400

MPI task timing breakdown:
Section |  min time  |  avg time  |  max time  |%varavg| %total
---------------------------------------------------------------
Pair    | 0.60832    | 1.6869     | 2.215      |  35.2 | 71.76
Neigh   | 0          | 0          | 0          |   0.0 |  0.00
Comm    | 0.035325   | 0.382      | 1.1424     |  51.6 | 16.25
Output  | 0          | 0          | 0          |   0.0 |  0.00
Modify  | 2.5798e-05 | 0.0033062  | 0.0070899  |   2.7 |  0.14
Other   |            | 0.2785     |            |       | 11.85

Nlocal:        2776.45 ave        3961 max           0 min
Histogram: 8 4 4 0 6 10 8 4 26 34
Nghost:        3879.11 ave        5424 max         232 min
Histogram: 8 0 8 0 16 0 8 8 16 40
Neighs:        79213.4 ave      115503 max           0 min
Histogram: 8 4 4 0 10 6 8 8 24 32

Total # of neighbors = 8238198
Ave neighs/atom = 28.530457
Neighbor list builds = 0
Dangerous builds = 0
The dot product: 5.76296792607318e-08
The cos of the angle between the force vector and the displacement vector: 0.00337506422668157
The angle: 89.8066226970957
Setting atom values ...
  1 settings made for x
  1 settings made for y
  1 settings made for z
Setting up cg style minimization ...
  Unit style    : metal
  Current step  : 6537
Per MPI rank memory allocation (min/avg/max) = 5.441 | 5.816 | 6.074 Mbytes
Step PotEng KinEng TotEng v_fx v_fy v_fz 
    6537   -1152449.3            0   -1152449.3 0.0066070013  -0.04007206  0.037170823 
    6717   -1152449.3            0   -1152449.3 9.8379914e-06 5.8690157e-10 -6.9101966e-06 
Loop time of 2.09256 on 104 procs for 180 steps with 288751 atoms

99.9% CPU use with 104 MPI tasks x 1 OpenMP threads

Minimization stats:
  Stopping criterion = energy tolerance
  Energy initial, next-to-last, final = 
      -1152449.3451738  -1152449.34841252  -1152449.34841252
  Force two-norm initial, final = 0.24678377 0.00019880215
  Force max component initial, final = 0.13238255 5.0253637e-05
  Final line search alpha, max atom move = 1.0000000 5.0253637e-05
  Iterations, force evaluations = 180 360

MPI task timing breakdown:
Section |  min time  |  avg time  |  max time  |%varavg| %total
---------------------------------------------------------------
Pair    | 0.54759    | 1.5186     | 1.9709     |  33.1 | 72.57
Neigh   | 0          | 0          | 0          |   0.0 |  0.00
Comm    | 0.032092   | 0.33934    | 1.026      |  49.5 | 16.22
Output  | 0          | 0          | 0          |   0.0 |  0.00
Modify  | 2.3358e-05 | 0.0029707  | 0.0063388  |   2.6 |  0.14
Other   |            | 0.2316     |            |       | 11.07

Nlocal:        2776.45 ave        3961 max           0 min
Histogram: 8 4 4 0 6 10 8 4 26 34
Nghost:        3879.11 ave        5424 max         232 min
Histogram: 8 0 8 0 16 0 8 8 16 40
Neighs:        79213.5 ave      115504 max           0 min
Histogram: 8 4 4 0 10 6 8 8 24 32

Total # of neighbors = 8238202
Ave neighs/atom = 28.530471
Neighbor list builds = 0
Dangerous builds = 0
The dot product: -1.29118226424408e-08
The cos of the angle between the force vector and the displacement vector: -0.00107398494783044
The angle: 90.0615348166007
Setting atom values ...
  1 settings made for x
  1 settings made for y
  1 settings made for z
Setting up cg style minimization ...
  Unit style    : metal
  Current step  : 6717
Per MPI rank memory allocation (min/avg/max) = 5.441 | 5.816 | 6.074 Mbytes
Step PotEng KinEng TotEng v_fx v_fy v_fz 
    6717   -1152449.4            0   -1152449.4 0.0092556446 -0.047954735  0.043148917 
    6940   -1152449.4            0   -1152449.4 1.2713578e-06 5.9778952e-06 -7.0871834e-06 
Loop time of 2.58892 on 104 procs for 223 steps with 288751 atoms

99.9% CPU use with 104 MPI tasks x 1 OpenMP threads

Minimization stats:
  Stopping criterion = energy tolerance
  Energy initial, next-to-last, final = 
     -1152449.36826161  -1152449.37195214  -1152449.37195214
  Force two-norm initial, final = 0.25108837 5.8990789e-05
  Force max component initial, final = 0.13231736 1.1488792e-05
  Final line search alpha, max atom move = 1.0000000 1.1488792e-05
  Iterations, force evaluations = 223 446

MPI task timing breakdown:
Section |  min time  |  avg time  |  max time  |%varavg| %total
---------------------------------------------------------------
Pair    | 0.67339    | 1.8706     | 2.4479     |  36.9 | 72.25
Neigh   | 0          | 0          | 0          |   0.0 |  0.00
Comm    | 0.039946   | 0.41889    | 1.2637     |  54.8 | 16.18
Output  | 0          | 0          | 0          |   0.0 |  0.00
Modify  | 2.841e-05  | 0.0036777  | 0.0078533  |   2.9 |  0.14
Other   |            | 0.2958     |            |       | 11.42

Nlocal:        2776.45 ave        3961 max           0 min
Histogram: 8 4 4 0 6 10 8 4 26 34
Nghost:        3879.11 ave        5424 max         232 min
Histogram: 8 0 8 0 16 0 8 8 16 40
Neighs:        79213.5 ave      115506 max           0 min
Histogram: 8 4 4 0 10 6 8 8 24 32

Total # of neighbors = 8238200
Ave neighs/atom = 28.530464
Neighbor list builds = 0
Dangerous builds = 0
The dot product: 4.67801036219107e-08
The cos of the angle between the force vector and the displacement vector: 0.0049987259755752
The angle: 89.7135929058941
Setting atom values ...
  1 settings made for x
  1 settings made for y
  1 settings made for z
Setting up cg style minimization ...
  Unit style    : metal
  Current step  : 6940
Per MPI rank memory allocation (min/avg/max) = 5.441 | 5.816 | 6.074 Mbytes
Step PotEng KinEng TotEng v_fx v_fy v_fz 
    6940   -1152449.4            0   -1152449.4  0.012070048 -0.053095604  0.045695088 
    7000   -1152449.4            0   -1152449.4 0.00011798623 -0.00032692431 0.0002503483 
    7115   -1152449.4            0   -1152449.4 2.625715e-05 -2.623323e-05 8.1660204e-06 
Loop time of 2.02822 on 104 procs for 175 steps with 288751 atoms

99.9% CPU use with 104 MPI tasks x 1 OpenMP threads

Minimization stats:
  Stopping criterion = energy tolerance
  Energy initial, next-to-last, final = 
     -1152449.38968956  -1152449.39281849  -1152449.39281849
  Force two-norm initial, final = 0.25669502 0.00023867972
  Force max component initial, final = 0.13101769 3.8619829e-05
  Final line search alpha, max atom move = 1.0000000 3.8619829e-05
  Iterations, force evaluations = 175 350

MPI task timing breakdown:
Section |  min time  |  avg time  |  max time  |%varavg| %total
---------------------------------------------------------------
Pair    | 0.5316     | 1.4744     | 1.9147     |  32.6 | 72.70
Neigh   | 0          | 0          | 0          |   0.0 |  0.00
Comm    | 0.031235   | 0.32772    | 1.0007     |  49.0 | 16.16
Output  | 0.0001228  | 0.00012921 | 0.00024588 |   0.0 |  0.01
Modify  | 2.2584e-05 | 0.002893   | 0.0061827  |   2.5 |  0.14
Other   |            | 0.223      |            |       | 11.00

Nlocal:        2776.45 ave        3961 max           0 min
Histogram: 8 4 4 0 6 10 8 4 26 34
Nghost:        3879.09 ave        5424 max         232 min
Histogram: 8 0 8 0 16 0 8 8 16 40
Neighs:        79213.4 ave      115514 max           0 min
Histogram: 8 4 4 0 10 6 8 8 24 32

Total # of neighbors = 8238197
Ave neighs/atom = 28.530454
Neighbor list builds = 0
Dangerous builds = 0
The dot product: 4.3049925699623e-08
The cos of the angle between the force vector and the displacement vector: 0.00113277347878595
The angle: 89.9350968466407
Setting atom values ...
  1 settings made for x
  1 settings made for y
  1 settings made for z
Setting up cg style minimization ...
  Unit style    : metal
  Current step  : 7115
Per MPI rank memory allocation (min/avg/max) = 5.441 | 5.816 | 6.074 Mbytes
Step PotEng KinEng TotEng v_fx v_fy v_fz 
    7115   -1152449.4            0   -1152449.4 0.0060231458 -0.048111243  0.045097435 
    7337   -1152449.4            0   -1152449.4 -3.5075787e-06 -5.714908e-06 8.3633968e-06 
Loop time of 2.57357 on 104 procs for 222 steps with 288751 atoms

99.9% CPU use with 104 MPI tasks x 1 OpenMP threads

Minimization stats:
  Stopping criterion = energy tolerance
  Energy initial, next-to-last, final = 
     -1152449.40733411  -1152449.41044905  -1152449.41044905
  Force two-norm initial, final = 0.25690453 3.7784341e-05
  Force max component initial, final = 0.1297666 8.3633968e-06
  Final line search alpha, max atom move = 1.0000000 8.3633968e-06
  Iterations, force evaluations = 222 444

MPI task timing breakdown:
Section |  min time  |  avg time  |  max time  |%varavg| %total
---------------------------------------------------------------
Pair    | 0.67134    | 1.8581     | 2.4272     |  36.7 | 72.20
Neigh   | 0          | 0          | 0          |   0.0 |  0.00
Comm    | 0.039799   | 0.41593    | 1.247      |  54.2 | 16.16
Output  | 0          | 0          | 0          |   0.0 |  0.00
Modify  | 2.8021e-05 | 0.0036524  | 0.0078024  |   2.8 |  0.14
Other   |            | 0.2959     |            |       | 11.50

Nlocal:        2776.45 ave        3960 max           0 min
Histogram: 8 4 4 0 4 12 8 4 26 34
Nghost:        3879.10 ave        5424 max         232 min
Histogram: 8 0 8 0 16 0 8 8 16 40
Neighs:        79213.4 ave      115481 max           0 min
Histogram: 8 4 4 0 10 6 8 8 24 32

Total # of neighbors = 8238197
Ave neighs/atom = 28.530454
Neighbor list builds = 0
Dangerous builds = 0
The dot product: 1.82879013942391e-08
The cos of the angle between the force vector and the displacement vector: 0.00170602562350918
The angle: 89.9022518846156
Setting atom values ...
  1 settings made for x
  1 settings made for y
  1 settings made for z
Setting up cg style minimization ...
  Unit style    : metal
  Current step  : 7337
Per MPI rank memory allocation (min/avg/max) = 5.441 | 5.816 | 6.074 Mbytes
Step PotEng KinEng TotEng v_fx v_fy v_fz 
    7337   -1152449.4            0   -1152449.4 0.0032487901 -0.048528503  0.047659174 
    7540   -1152449.4            0   -1152449.4 1.225023e-05 -1.1850887e-05 3.4507071e-06 
Loop time of 2.39052 on 104 procs for 203 steps with 288751 atoms

99.9% CPU use with 104 MPI tasks x 1 OpenMP threads

Minimization stats:
  Stopping criterion = energy tolerance
  Energy initial, next-to-last, final = 
     -1152449.42170256  -1152449.42486076  -1152449.42486076
  Force two-norm initial, final = 0.25945682 9.5539060e-05
  Force max component initial, final = 0.1283678 1.4423160e-05
  Final line search alpha, max atom move = 1.0000000 1.4423160e-05
  Iterations, force evaluations = 203 406

MPI task timing breakdown:
Section |  min time  |  avg time  |  max time  |%varavg| %total
---------------------------------------------------------------
Pair    | 0.6164     | 1.7178     | 2.2292     |  35.4 | 71.86
Neigh   | 0          | 0          | 0          |   0.0 |  0.00
Comm    | 0.03654    | 0.38587    | 1.1581     |  52.3 | 16.14
Output  | 0          | 0          | 0          |   0.0 |  0.00
Modify  | 2.6569e-05 | 0.0033539  | 0.0072064  |   2.7 |  0.14
Other   |            | 0.2835     |            |       | 11.86

Nlocal:        2776.45 ave        3960 max           0 min
Histogram: 8 4 4 0 4 12 8 4 26 34
Nghost:        3879.12 ave        5424 max         232 min
Histogram: 8 0 8 0 16 0 8 8 16 40
Neighs:        79213.4 ave      115478 max           0 min
Histogram: 8 4 4 0 10 6 8 8 24 32

Total # of neighbors = 8238197
Ave neighs/atom = 28.530454
Neighbor list builds = 0
Dangerous builds = 0
The dot product: 9.21885140839242e-09
The cos of the angle between the force vector and the displacement vector: 0.000530117630033701
The angle: 89.9696264957308
Setting atom values ...
  1 settings made for x
  1 settings made for y
  1 settings made for z
Setting up cg style minimization ...
  Unit style    : metal
  Current step  : 7540
Per MPI rank memory allocation (min/avg/max) = 5.441 | 5.816 | 6.074 Mbytes
Step PotEng KinEng TotEng v_fx v_fy v_fz 
    7540   -1152449.4            0   -1152449.4 -0.00051101281  -0.04822768  0.050258547 
    7726   -1152449.4            0   -1152449.4 2.0429691e-06 -2.3904515e-05 2.3262686e-05 
Loop time of 2.16095 on 104 procs for 186 steps with 288751 atoms

99.9% CPU use with 104 MPI tasks x 1 OpenMP threads

Minimization stats:
  Stopping criterion = energy tolerance
  Energy initial, next-to-last, final = 
     -1152449.43289536  -1152449.43612876  -1152449.43612876
  Force two-norm initial, final = 0.26260889 0.00015364139
  Force max component initial, final = 0.12687677 2.3904515e-05
  Final line search alpha, max atom move = 1.0000000 2.3904515e-05
  Iterations, force evaluations = 186 372

MPI task timing breakdown:
Section |  min time  |  avg time  |  max time  |%varavg| %total
---------------------------------------------------------------
Pair    | 0.56396    | 1.5606     | 2.0422     |  33.7 | 72.22
Neigh   | 0          | 0          | 0          |   0.0 |  0.00
Comm    | 0.032048   | 0.35059    | 1.0559     |  50.0 | 16.22
Output  | 0          | 0          | 0          |   0.0 |  0.00
Modify  | 2.4467e-05 | 0.0030615  | 0.0065573  |   2.6 |  0.14
Other   |            | 0.2467     |            |       | 11.42

Nlocal:        2776.45 ave        3960 max           0 min
Histogram: 8 4 4 0 4 12 8 2 28 34
Nghost:        3879.00 ave        5424 max         232 min
Histogram: 8 0 8 0 16 0 8 8 16 40
Neighs:        79213.4 ave      115442 max           0 min
Histogram: 8 4 4 0 10 6 8 8 24 32

Total # of neighbors = 8238197
Ave neighs/atom = 28.530454
Neighbor list builds = 0
Dangerous builds = 0
The dot product: 7.36903680375011e-08
The cos of the angle between the force vector and the displacement vector: 0.00220512055274812
The angle: 89.8736557966174
Setting atom values ...
  1 settings made for x
  1 settings made for y
  1 settings made for z
Setting up cg style minimization ...
  Unit style    : metal
  Current step  : 7726
Per MPI rank memory allocation (min/avg/max) = 5.441 | 5.816 | 6.074 Mbytes
Step PotEng KinEng TotEng v_fx v_fy v_fz 
    7726   -1152449.4            0   -1152449.4 -0.0029846792 -0.047844247  0.051903677 
    7908   -1152449.4            0   -1152449.4 -4.5678766e-05 1.2577685e-05 1.9894822e-05 
Loop time of 2.11291 on 104 procs for 182 steps with 288751 atoms

99.9% CPU use with 104 MPI tasks x 1 OpenMP threads

Minimization stats:
  Stopping criterion = energy tolerance
  Energy initial, next-to-last, final = 
     -1152449.44105983  -1152449.44437212  -1152449.44437212
  Force two-norm initial, final = 0.26587192 0.00017912722
  Force max component initial, final = 0.12527975 4.5678766e-05
  Final line search alpha, max atom move = 1.0000000 4.5678766e-05
  Iterations, force evaluations = 182 364

MPI task timing breakdown:
Section |  min time  |  avg time  |  max time  |%varavg| %total
---------------------------------------------------------------
Pair    | 0.55469    | 1.5398     | 1.987      |  33.3 | 72.88
Neigh   | 0          | 0          | 0          |   0.0 |  0.00
Comm    | 0.033074   | 0.34278    | 1.0409     |  50.1 | 16.22
Output  | 0          | 0          | 0          |   0.0 |  0.00
Modify  | 2.3313e-05 | 0.003007   | 0.006458   |   2.6 |  0.14
Other   |            | 0.2273     |            |       | 10.76

Nlocal:        2776.45 ave        3960 max           0 min
Histogram: 8 4 4 0 4 12 8 2 28 34
Nghost:        3879.01 ave        5424 max         232 min
Histogram: 8 0 8 0 16 0 8 8 16 40
Neighs:        79213.4 ave      115439 max           0 min
Histogram: 8 4 4 0 10 6 8 8 24 32

Total # of neighbors = 8238194
Ave neighs/atom = 28.530443
Neighbor list builds = 0
Dangerous builds = 0
The dot product: 6.44753290315975e-08
The cos of the angle between the force vector and the displacement vector: 0.00125471828163981
The angle: 89.9281099191214
Setting atom values ...
  1 settings made for x
  1 settings made for y
  1 settings made for z
Setting up cg style minimization ...
  Unit style    : metal
  Current step  : 7908
Per MPI rank memory allocation (min/avg/max) = 5.441 | 5.816 | 6.074 Mbytes
Step PotEng KinEng TotEng v_fx v_fy v_fz 
    7908   -1152449.4            0   -1152449.4 0.0026646346 -0.045087377   0.04519813 
    8000   -1152449.4            0   -1152449.4 -7.0983334e-05 -0.00019510705 0.00025546327 
    8138   -1152449.4            0   -1152449.4 7.0395133e-07 -4.0163425e-06 3.6876249e-06 
Loop time of 2.67975 on 104 procs for 230 steps with 288751 atoms

99.9% CPU use with 104 MPI tasks x 1 OpenMP threads

Minimization stats:
  Stopping criterion = energy tolerance
  Energy initial, next-to-last, final = 
     -1152449.44590512  -1152449.44927373  -1152449.44927373
  Force two-norm initial, final = 0.26570916 3.2171915e-05
  Force max component initial, final = 0.12356655 4.6875604e-06
  Final line search alpha, max atom move = 1.0000000 4.6875604e-06
  Iterations, force evaluations = 230 460

MPI task timing breakdown:
Section |  min time  |  avg time  |  max time  |%varavg| %total
---------------------------------------------------------------
Pair    | 0.69691    | 1.9305     | 2.5189     |  37.5 | 72.04
Neigh   | 0          | 0          | 0          |   0.0 |  0.00
Comm    | 0.041683   | 0.43391    | 1.3034     |  55.4 | 16.19
Output  | 0.00013029 | 0.000136   | 0.00028245 |   0.0 |  0.01
Modify  | 2.9745e-05 | 0.0037905  | 0.0080975  |   2.9 |  0.14
Other   |            | 0.3115     |            |       | 11.62

Nlocal:        2776.45 ave        3960 max           0 min
Histogram: 8 4 4 0 4 12 8 2 28 34
Nghost:        3879.05 ave        5424 max         232 min
Histogram: 8 0 8 0 16 0 8 8 16 40
Neighs:        79213.4 ave      115435 max           0 min
Histogram: 8 4 4 0 10 6 8 8 24 32

Total # of neighbors = 8238196
Ave neighs/atom = 28.530450
Neighbor list builds = 0
Dangerous builds = 0
The dot product: 8.26305216969776e-09
The cos of the angle between the force vector and the displacement vector: 0.00150299104784549
The angle: 89.9138849238905
Setting atom values ...
  1 settings made for x
  1 settings made for y
  1 settings made for z
Setting up cg style minimization ...
  Unit style    : metal
  Current step  : 8138
Per MPI rank memory allocation (min/avg/max) = 5.441 | 5.816 | 6.074 Mbytes
Step PotEng KinEng TotEng v_fx v_fy v_fz 
    8138   -1152449.4            0   -1152449.4 -0.013307413 -0.045162354  0.057027062 
    8352   -1152449.5            0   -1152449.5 -5.0310969e-06 -1.0770671e-05 1.4948976e-05 
Loop time of 2.48008 on 104 procs for 214 steps with 288751 atoms

99.9% CPU use with 104 MPI tasks x 1 OpenMP threads

Minimization stats:
  Stopping criterion = energy tolerance
  Energy initial, next-to-last, final = 
     -1152449.44676284  -1152449.45021072  -1152449.45021072
  Force two-norm initial, final = 0.26855695 7.1599679e-05
  Force max component initial, final = 0.12192947 1.4948976e-05
  Final line search alpha, max atom move = 1.0000000 1.4948976e-05
  Iterations, force evaluations = 214 428

MPI task timing breakdown:
Section |  min time  |  avg time  |  max time  |%varavg| %total
---------------------------------------------------------------
Pair    | 0.64935    | 1.8039     | 2.3348     |  36.0 | 72.74
Neigh   | 0          | 0          | 0          |   0.0 |  0.00
Comm    | 0.037143   | 0.40456    | 1.2386     |  54.2 | 16.31
Output  | 0          | 0          | 0          |   0.0 |  0.00
Modify  | 2.7211e-05 | 0.0035445  | 0.0076541  |   2.8 |  0.14
Other   |            | 0.268      |            |       | 10.81

Nlocal:        2776.45 ave        3961 max           0 min
Histogram: 8 4 4 0 6 10 8 2 28 34
Nghost:        3879.01 ave        5426 max         232 min
Histogram: 8 0 8 0 16 0 8 8 16 40
Neighs:        79213.4 ave      115456 max           0 min
Histogram: 8 4 4 0 10 6 8 8 24 32

Total # of neighbors = 8238196
Ave neighs/atom = 28.530450
Neighbor list builds = 0
Dangerous builds = 0
The dot product: 4.94858226283974e-08
[...]
     -1152449.25885981  -1152449.26122316  -1152449.26122316
  Force two-norm initial, final = 0.21939052 7.5839532e-05
  Force max component initial, final = 0.073743844 2.0825928e-05
  Final line search alpha, max atom move = 1.0000000 2.0825928e-05
  Iterations, force evaluations = 214 428

MPI task timing breakdown:
Section |  min time  |  avg time  |  max time  |%varavg| %total
---------------------------------------------------------------
Pair    | 0.64767    | 1.8157     | 2.3518     |  36.3 | 72.83
Neigh   | 0          | 0          | 0          |   0.0 |  0.00
Comm    | 0.037851   | 0.41075    | 1.2705     |  54.5 | 16.47
Output  | 0          | 0          | 0          |   0.0 |  0.00
Modify  | 2.6079e-05 | 0.0035257  | 0.0076019  |   2.8 |  0.14
Other   |            | 0.2633     |            |       | 10.56

Nlocal:        2776.45 ave        3945 max           0 min
Histogram: 8 4 4 0 4 12 8 0 28 36
Nghost:        3878.84 ave        5428 max         232 min
Histogram: 8 0 8 0 16 0 8 8 16 40
Neighs:        79213.4 ave      115015 max           0 min
Histogram: 8 4 4 0 10 6 8 8 24 32

Total # of neighbors = 8238189
Ave neighs/atom = 28.530426
Neighbor list builds = 0
Dangerous builds = 0
The dot product: -3.07163565999704e-08
The cos of the angle between the force vector and the displacement vector: -0.00159327619609343
The angle: 90.0912880402579
Setting atom values ...
  1 settings made for x
  1 settings made for y
  1 settings made for z
Setting up cg style minimization ...
  Unit style    : metal
  Current step  : 5736
Per MPI rank memory allocation (min/avg/max) = 5.441 | 5.816 | 6.074 Mbytes
Step PotEng KinEng TotEng v_fx v_fy v_fz 
    5736   -1152449.2            0   -1152449.2  0.055584814  0.034712928 -0.050669156 
    5994   -1152449.2            0   -1152449.2 -1.6949624e-06 1.2763622e-06 1.3382045e-07 
Loop time of 3.00412 on 104 procs for 258 steps with 288751 atoms

99.9% CPU use with 104 MPI tasks x 1 OpenMP threads

Minimization stats:
  Stopping criterion = energy tolerance
  Energy initial, next-to-last, final = 
     -1152449.23326294  -1152449.23558232  -1152449.23558232
  Force two-norm initial, final = 0.21889493 1.1120013e-05
  Force max component initial, final = 0.074412011 1.6949624e-06
  Final line search alpha, max atom move = 1.0000000 1.6949624e-06
  Iterations, force evaluations = 258 516

MPI task timing breakdown:
Section |  min time  |  avg time  |  max time  |%varavg| %total
---------------------------------------------------------------
Pair    | 0.77831    | 2.167      | 2.8403     |  39.7 | 72.14
Neigh   | 0          | 0          | 0          |   0.0 |  0.00
Comm    | 0.04515    | 0.49061    | 1.489      |  58.8 | 16.33
Output  | 0          | 0          | 0          |   0.0 |  0.00
Modify  | 3.1875e-05 | 0.0042549  | 0.0090852  |   3.1 |  0.14
Other   |            | 0.3422     |            |       | 11.39

Nlocal:        2776.45 ave        3945 max           0 min
Histogram: 8 4 4 0 4 12 8 0 28 36
Nghost:        3878.86 ave        5428 max         232 min
Histogram: 8 0 8 0 16 0 8 8 16 40
Neighs:        79213.3 ave      115018 max           0 min
Histogram: 8 4 4 0 10 6 8 8 24 32

Total # of neighbors = 8238188
Ave neighs/atom = 28.530422
Neighbor list builds = 0
Dangerous builds = 0
The dot product: -4.89254773099126e-09
The cos of the angle between the force vector and the displacement vector: -0.00230128485418195
The angle: 90.1318540259836
Setting atom values ...
  1 settings made for x
  1 settings made for y
  1 settings made for z
Setting up cg style minimization ...
  Unit style    : metal
  Current step  : 5994
Per MPI rank memory allocation (min/avg/max) = 5.441 | 5.816 | 6.074 Mbytes
Step PotEng KinEng TotEng v_fx v_fy v_fz 
    5994   -1152449.2            0   -1152449.2  0.054189378   0.04064489 -0.054142722 
    6000   -1152449.2            0   -1152449.2 0.0020799965 -0.0045177116 0.0016275656 
    6200   -1152449.2            0   -1152449.2 -1.6730121e-05 -8.6566385e-06 1.4342785e-05 
Loop time of 2.43594 on 104 procs for 206 steps with 288751 atoms

99.9% CPU use with 104 MPI tasks x 1 OpenMP threads

Minimization stats:
  Stopping criterion = energy tolerance
  Energy initial, next-to-last, final = 
     -1152449.20406923  -1152449.20633841  -1152449.20633841
  Force two-norm initial, final = 0.21999182 0.0001376755
  Force max component initial, final = 0.077073451 2.7891238e-05
  Final line search alpha, max atom move = 1.0000000 2.7891238e-05
  Iterations, force evaluations = 206 412

MPI task timing breakdown:
Section |  min time  |  avg time  |  max time  |%varavg| %total
---------------------------------------------------------------
Pair    | 0.62187    | 1.7456     | 2.2796     |  35.4 | 71.66
Neigh   | 0          | 0          | 0          |   0.0 |  0.00
Comm    | 0.043218   | 0.39661    | 1.189      |  52.4 | 16.28
Output  | 9.4885e-05 | 0.00010535 | 0.00019607 |   0.0 |  0.00
Modify  | 2.5922e-05 | 0.0033978  | 0.0073168  |   2.8 |  0.14
Other   |            | 0.2902     |            |       | 11.91

Nlocal:        2776.45 ave        3945 max           0 min
Histogram: 8 4 4 0 4 12 8 0 28 36
Nghost:        3878.82 ave        5428 max         232 min
Histogram: 8 0 8 0 16 0 8 8 16 40
Neighs:        79213.4 ave      115019 max           0 min
Histogram: 8 4 4 0 10 6 8 8 24 32

Total # of neighbors = 8238189
Ave neighs/atom = 28.530426
Neighbor list builds = 0
Dangerous builds = 0
The dot product: -1.4683201577898e-07
The cos of the angle between the force vector and the displacement vector: -0.00620174137022608
The angle: 90.3553358839679
Setting atom values ...
  1 settings made for x
  1 settings made for y
  1 settings made for z
Setting up cg style minimization ...
  Unit style    : metal
  Current step  : 6200
Per MPI rank memory allocation (min/avg/max) = 5.441 | 5.816 | 6.074 Mbytes
Step PotEng KinEng TotEng v_fx v_fy v_fz 
    6200   -1152449.2            0   -1152449.2  0.056460546  0.049479341  -0.06153298 
    6489   -1152449.2            0   -1152449.2 1.6163233e-07 5.4063583e-08 -1.2218809e-07 
Loop time of 3.40229 on 104 procs for 289 steps with 288751 atoms

99.9% CPU use with 104 MPI tasks x 1 OpenMP threads

Minimization stats:
  Stopping criterion = energy tolerance
  Energy initial, next-to-last, final = 
      -1152449.1714203  -1152449.17366651  -1152449.17366651
  Force two-norm initial, final = 0.22417331 2.0738358e-06
  Force max component initial, final = 0.084328879 3.1233898e-07
  Final line search alpha, max atom move = 1.0000000 3.1233898e-07
  Iterations, force evaluations = 289 578

MPI task timing breakdown:
Section |  min time  |  avg time  |  max time  |%varavg| %total
---------------------------------------------------------------
Pair    | 0.87042    | 2.4246     | 3.2016     |  42.0 | 71.26
Neigh   | 0          | 0          | 0          |   0.0 |  0.00
Comm    | 0.050719   | 0.55438    | 1.6598     |  61.3 | 16.29
Output  | 0          | 0          | 0          |   0.0 |  0.00
Modify  | 3.8075e-05 | 0.0047674  | 0.010201   |   3.2 |  0.14
Other   |            | 0.4186     |            |       | 12.30

Nlocal:        2776.45 ave        3945 max           0 min
Histogram: 8 4 4 0 4 12 8 0 26 38
Nghost:        3878.76 ave        5428 max         232 min
Histogram: 8 0 8 0 16 0 8 8 16 40
Neighs:        79213.4 ave      115013 max           0 min
Histogram: 8 4 4 0 10 6 8 8 24 32

Total # of neighbors = 8238193
Ave neighs/atom = 28.530440
Neighbor list builds = 0
Dangerous builds = 0
The dot product: 1.72012328152109e-09
The cos of the angle between the force vector and the displacement vector: 0.00820243437300188
The angle: 89.5300298586674
Setting atom values ...
  1 settings made for x
  1 settings made for y
  1 settings made for z
Setting up cg style minimization ...
  Unit style    : metal
  Current step  : 6489
Per MPI rank memory allocation (min/avg/max) = 5.441 | 5.816 | 6.074 Mbytes
Step PotEng KinEng TotEng v_fx v_fy v_fz 
    6489   -1152449.1            0   -1152449.1  0.066151215  0.066098414 -0.078449595 
    6771   -1152449.3            0   -1152449.3 8.8793673e-06 3.721805e-06 -7.3064469e-06 
Loop time of 3.31394 on 104 procs for 282 steps with 288751 atoms

99.9% CPU use with 104 MPI tasks x 1 OpenMP threads

Minimization stats:
  Stopping criterion = energy tolerance
  Energy initial, next-to-last, final = 
     -1152449.13586427  -1152449.32253913  -1152449.32253913
  Force two-norm initial, final = 0.23791243 4.5898752e-05
  Force max component initial, final = 0.09168368 1.1839826e-05
  Final line search alpha, max atom move = 1.0000000 1.1839826e-05
  Iterations, force evaluations = 282 563

MPI task timing breakdown:
Section |  min time  |  avg time  |  max time  |%varavg| %total
---------------------------------------------------------------
Pair    | 0.86375    | 2.3828     | 3.1028     |  41.2 | 71.90
Neigh   | 3.0617e-05 | 0.008862   | 0.012981   |   3.9 |  0.27
Comm    | 0.048843   | 0.53636    | 1.6413     |  61.6 | 16.18
Output  | 0          | 0          | 0          |   0.0 |  0.00
Modify  | 3.3144e-05 | 0.0046449  | 0.010011   |   3.2 |  0.14
Other   |            | 0.3813     |            |       | 11.51

Nlocal:        2776.45 ave        3945 max           0 min
Histogram: 8 4 4 0 4 12 8 0 26 38
Nghost:        3878.68 ave        5427 max         232 min
Histogram: 8 0 8 0 16 0 8 8 16 40
Neighs:        79213.3 ave      115041 max           0 min
Histogram: 8 4 4 0 10 6 8 8 24 32

Total # of neighbors = 8238188
Ave neighs/atom = 28.530422
Neighbor list builds = 3
Dangerous builds = 0
The dot product: 3.19276295747849e-06
The cos of the angle between the force vector and the displacement vector: 0.264163335623642
The angle: 74.682756000075
Setting atom values ...
  1 settings made for x
  1 settings made for y
  1 settings made for z
Setting up cg style minimization ...
  Unit style    : metal
  Current step  : 6771
Per MPI rank memory allocation (min/avg/max) = 5.441 | 5.816 | 6.074 Mbytes
Step PotEng KinEng TotEng v_fx v_fy v_fz 
    6771   -1152449.3            0   -1152449.3   -0.0763537 -0.032222334   0.11697649 
    6997   -1152449.3            0   -1152449.3 5.4802266e-06 -4.8022653e-06 1.5658156e-06 
Loop time of 2.64721 on 104 procs for 226 steps with 288751 atoms

99.9% CPU use with 104 MPI tasks x 1 OpenMP threads

Minimization stats:
  Stopping criterion = energy tolerance
  Energy initial, next-to-last, final = 
     -1152449.32961529  -1152449.33360688  -1152449.33360688
  Force two-norm initial, final = 0.24594067 6.1545430e-05
  Force max component initial, final = 0.11697649 1.2863000e-05
  Final line search alpha, max atom move = 1.0000000 1.2863000e-05
  Iterations, force evaluations = 226 452

MPI task timing breakdown:
Section |  min time  |  avg time  |  max time  |%varavg| %total
---------------------------------------------------------------
Pair    | 0.68456    | 1.8995     | 2.5005     |  37.1 | 71.75
Neigh   | 0          | 0          | 0          |   0.0 |  0.00
Comm    | 0.041293   | 0.43011    | 1.2865     |  54.4 | 16.25
Output  | 0          | 0          | 0          |   0.0 |  0.00
Modify  | 2.7683e-05 | 0.0037274  | 0.007995   |   2.9 |  0.14
Other   |            | 0.3139     |            |       | 11.86

Nlocal:        2776.45 ave        3947 max           0 min
Histogram: 8 4 4 0 4 12 8 0 28 36
Nghost:        3878.55 ave        5428 max         232 min
Histogram: 8 0 8 0 16 0 8 8 16 40
Neighs:        79213.3 ave      115061 max           0 min
Histogram: 8 4 4 0 10 6 8 8 24 32

Total # of neighbors = 8238187
Ave neighs/atom = 28.530419
Neighbor list builds = 0
Dangerous builds = 0
The dot product: 6.75040862949777e-08
The cos of the angle between the force vector and the displacement vector: 0.00905736877531173
The angle: 89.4810439000087
Setting atom values ...
  1 settings made for x
  1 settings made for y
  1 settings made for z
Setting up cg style minimization ...
  Unit style    : metal
  Current step  : 6997
Per MPI rank memory allocation (min/avg/max) = 5.441 | 5.816 | 6.074 Mbytes
Step PotEng KinEng TotEng v_fx v_fy v_fz 
    6997   -1152449.3            0   -1152449.3 -0.061942131  0.048120684 -0.0081111329 
    7000   -1152449.3            0   -1152449.3 -0.0040244231 0.0018419974 0.0011724592 
    7218   -1152449.3            0   -1152449.3 8.5490421e-06 -1.3201763e-06 -5.9211391e-06 
Loop time of 2.58737 on 104 procs for 221 steps with 288751 atoms

99.9% CPU use with 104 MPI tasks x 1 OpenMP threads

Minimization stats:
  Stopping criterion = energy tolerance
  Energy initial, next-to-last, final = 
     -1152449.33716729  -1152449.33963279  -1152449.33963279
  Force two-norm initial, final = 0.21755774 4.0939576e-05
  Force max component initial, final = 0.098311901 8.5490421e-06
  Final line search alpha, max atom move = 1.0000000 8.5490421e-06
  Iterations, force evaluations = 221 442

MPI task timing breakdown:
Section |  min time  |  avg time  |  max time  |%varavg| %total
---------------------------------------------------------------
Pair    | 0.66619    | 1.8669     | 2.4381     |  36.8 | 72.15
Neigh   | 0          | 0          | 0          |   0.0 |  0.00
Comm    | 0.038176   | 0.4208     | 1.2859     |  54.2 | 16.26
Output  | 9.063e-05  | 9.908e-05  | 0.00018137 |   0.0 |  0.00
Modify  | 2.6266e-05 | 0.0036392  | 0.0078088  |   2.9 |  0.14
Other   |            | 0.2959     |            |       | 11.44

Nlocal:        2776.45 ave        3947 max           0 min
Histogram: 8 4 4 0 4 12 8 0 28 36
Nghost:        3878.57 ave        5428 max         232 min
Histogram: 8 0 8 0 16 0 8 8 16 40
Neighs:        79213.4 ave      115057 max           0 min
Histogram: 8 4 4 0 10 6 8 8 24 32

Total # of neighbors = 8238190
Ave neighs/atom = 28.530429
Neighbor list builds = 0
Dangerous builds = 0
The dot product: -3.41632151329102e-08
The cos of the angle between the force vector and the displacement vector: -0.00325898134584702
The angle: 90.1867262071652
Setting atom values ...
  1 settings made for x
  1 settings made for y
  1 settings made for z
Setting up cg style minimization ...
  Unit style    : metal
  Current step  : 7218
Per MPI rank memory allocation (min/avg/max) = 5.441 | 5.816 | 6.074 Mbytes
Step PotEng KinEng TotEng v_fx v_fy v_fz 
    7218   -1152449.3            0   -1152449.3 -0.059152062  0.044555238 -0.0066104629 
    7414   -1152449.3            0   -1152449.3 -4.6057307e-06 8.3502263e-06 -7.0097796e-06 
Loop time of 2.32427 on 104 procs for 196 steps with 288751 atoms

99.9% CPU use with 104 MPI tasks x 1 OpenMP threads

Minimization stats:
  Stopping criterion = energy tolerance
  Energy initial, next-to-last, final = 
     -1152449.33983093  -1152449.34231125  -1152449.34231125
  Force two-norm initial, final = 0.21684496 0.00012851951
  Force max component initial, final = 0.10179578 1.3581309e-05
  Final line search alpha, max atom move = 1.0000000 1.3581309e-05
  Iterations, force evaluations = 196 392

MPI task timing breakdown:
Section |  min time  |  avg time  |  max time  |%varavg| %total
---------------------------------------------------------------
Pair    | 0.59226    | 1.6527     | 2.1651     |  34.7 | 71.10
Neigh   | 0          | 0          | 0          |   0.0 |  0.00
Comm    | 0.035049   | 0.37176    | 1.1213     |  51.4 | 15.99
Output  | 0          | 0          | 0          |   0.0 |  0.00
Modify  | 2.3235e-05 | 0.0032292  | 0.0069212  |   2.7 |  0.14
Other   |            | 0.2966     |            |       | 12.76

Nlocal:        2776.45 ave        3947 max           0 min
Histogram: 8 4 4 0 4 12 8 0 28 36
Nghost:        3878.65 ave        5428 max         232 min
Histogram: 8 0 8 0 16 0 8 8 16 40
Neighs:        79213.4 ave      115057 max           0 min
Histogram: 8 4 4 0 10 6 8 8 24 32

Total # of neighbors = 8238189
Ave neighs/atom = 28.530426
Neighbor list builds = 0
Dangerous builds = 0
The dot product: 3.57811647470661e-08
The cos of the angle between the force vector and the displacement vector: 0.0030232394032132
The angle: 89.8267808778681
Setting atom values ...
  1 settings made for x
  1 settings made for y
  1 settings made for z
Setting up cg style minimization ...
  Unit style    : metal
  Current step  : 7414
Per MPI rank memory allocation (min/avg/max) = 5.441 | 5.816 | 6.074 Mbytes
Step PotEng KinEng TotEng v_fx v_fy v_fz 
    7414   -1152449.3            0   -1152449.3 -0.056945495  0.045202449 -0.010031321 
    7661   -1152449.3            0   -1152449.3 -1.6140226e-06 -2.0680691e-06 4.1863165e-06 
Loop time of 2.87452 on 104 procs for 247 steps with 288751 atoms

99.9% CPU use with 104 MPI tasks x 1 OpenMP threads

Minimization stats:
  Stopping criterion = energy tolerance
  Energy initial, next-to-last, final = 
     -1152449.33921069  -1152449.34170622  -1152449.34170622
  Force two-norm initial, final = 0.21711049 1.4513374e-05
  Force max component initial, final = 0.10527102 4.1863165e-06
  Final line search alpha, max atom move = 1.0000000 4.1863165e-06
  Iterations, force evaluations = 247 494

MPI task timing breakdown:
Section |  min time  |  avg time  |  max time  |%varavg| %total
---------------------------------------------------------------
Pair    | 0.7446     | 2.0914     | 2.7143     |  39.0 | 72.76
Neigh   | 0          | 0          | 0          |   0.0 |  0.00
Comm    | 0.042776   | 0.47096    | 1.4577     |  58.5 | 16.38
Output  | 0          | 0          | 0          |   0.0 |  0.00
Modify  | 2.9707e-05 | 0.0040687  | 0.0087426  |   3.0 |  0.14
Other   |            | 0.3081     |            |       | 10.72

Nlocal:        2776.45 ave        3947 max           0 min
Histogram: 8 4 4 0 4 12 8 0 28 36
Nghost:        3878.73 ave        5428 max         232 min
Histogram: 8 0 8 0 16 0 8 8 16 40
Neighs:        79213.4 ave      115057 max           0 min
Histogram: 8 4 4 0 10 6 8 8 24 32

Total # of neighbors = 8238195
Ave neighs/atom = 28.530447
Neighbor list builds = 0
Dangerous builds = 0
The dot product: 7.23314893986022e-10
The cos of the angle between the force vector and the displacement vector: 0.00014640914710072
The angle: 89.9916113737589
Setting up cg style minimization ...
  Unit style    : metal
  Current step  : 7661
Per MPI rank memory allocation (min/avg/max) = 5.441 | 5.816 | 6.074 Mbytes
Step PotEng KinEng TotEng v_fx v_fy v_fz 
    7661   -1152449.3            0   -1152449.3 -0.034219257 -0.051704898 -0.038729883 
    7853   -1152449.3            0   -1152449.3 1.0590912e-05 3.7808103e-06 -2.8287588e-06 
Loop time of 2.23934 on 104 procs for 192 steps with 288751 atoms

99.9% CPU use with 104 MPI tasks x 1 OpenMP threads

Minimization stats:
  Stopping criterion = energy tolerance
  Energy initial, next-to-last, final = 
     -1152449.34170622  -1152449.34246912  -1152449.34246912
  Force two-norm initial, final = 0.073105117 9.6461772e-05
  Force max component initial, final = 0.051704898 2.5609446e-05
  Final line search alpha, max atom move = 1.0000000 2.5609446e-05
  Iterations, force evaluations = 192 384

MPI task timing breakdown:
Section |  min time  |  avg time  |  max time  |%varavg| %total
---------------------------------------------------------------
Pair    | 0.57845    | 1.6135     | 2.1158     |  34.2 | 72.05
Neigh   | 0          | 0          | 0          |   0.0 |  0.00
Comm    | 0.033516   | 0.36566    | 1.1079     |  50.3 | 16.33
Output  | 0          | 0          | 0          |   0.0 |  0.00
Modify  | 2.1573e-05 | 0.0020619  | 0.0052881  |   2.8 |  0.09
Other   |            | 0.2581     |            |       | 11.52

Nlocal:        2776.45 ave        3945 max           0 min
Histogram: 8 4 4 0 4 12 8 0 28 36
Nghost:        3878.70 ave        5428 max         232 min
Histogram: 8 0 8 0 16 0 8 8 16 40
Neighs:        79213.4 ave      115033 max           0 min
Histogram: 8 4 4 0 10 6 8 8 24 32

Total # of neighbors = 8238191
Ave neighs/atom = 28.530433
Neighbor list builds = 0
Dangerous builds = 0
