LAMMPS (29 Oct 2020)
OMP_NUM_THREADS environment is not set. Defaulting to 1 thread. (../comm.cpp:94)
  using 1 OpenMP thread(s) per MPI task
OMP_NUM_THREADS environment is not set. Defaulting to 1 thread. (../comm.cpp:94)
  using 1 OpenMP thread(s) per MPI task
Reading data file ...
  orthogonal box = (-122.39241 -121.13707 -37.090501) to (122.39241 121.13707 37.090501)
  13 by 4 by 2 MPI processor grid
  reading atoms ...
  288751 atoms
  read_data CPU = 0.421 seconds
199981 atoms in group inner
88770 atoms in group outer
1 atoms in group carbon
Neighbor list info ...
  update every 1 steps, delay 0 steps, check yes
  max neighbors/atom: 2000, page size: 100000
  master list distance cutoff = 5.6
  ghost atom cutoff = 5.6
  binsize = 2.8, bins = 88 87 27
  1 neighbor lists, perpetual/occasional/extra = 1 0 0
  (1) pair eam/alloy, perpetual
      attributes: half, newton on
      pair build: half/bin/atomonly/newton
      stencil: half/bin/3d/newton
      bin: standard
Setting up cg style minimization ...
  Unit style    : metal
  Current step  : 0
Per MPI rank memory allocation (min/avg/max) = 5.441 | 5.816 | 6.074 Mbytes
Step v_fx v_fy v_fz PotEng KinEng TotEng 
       0    1.4758208   -1.1120033    2.4871044   -1152447.8            0   -1152447.8 
     205 1.5701323e-06 -2.5965578e-06 4.2397552e-06   -1152449.5            0   -1152449.5 
Loop time of 2.50775 on 104 procs for 205 steps with 288751 atoms

99.8% CPU use with 104 MPI tasks x 1 OpenMP threads

Minimization stats:
  Stopping criterion = energy tolerance
  Energy initial, next-to-last, final = 
     -1152447.78930168  -1152449.45035272  -1152449.45035272
  Force two-norm initial, final = 10.123863 1.5613796e-05
  Force max component initial, final = 4.5268643 4.5576978e-06
  Final line search alpha, max atom move = 1.0000000 4.5576978e-06
  Iterations, force evaluations = 205 409

MPI task timing breakdown:
Section |  min time  |  avg time  |  max time  |%varavg| %total
---------------------------------------------------------------
Pair    | 0.65528    | 1.7396     | 2.2647     |  34.8 | 69.37
Neigh   | 3.3622e-05 | 0.0087519  | 0.012695   |   3.9 |  0.35
Comm    | 0.038816   | 0.40277    | 1.1823     |  50.3 | 16.06
Output  | 0          | 0          | 0          |   0.0 |  0.00
Modify  | 2.5184e-05 | 0.002212   | 0.0056833  |   2.9 |  0.09
Other   |            | 0.3544     |            |       | 14.13

Nlocal:        2776.45 ave        3961 max           0 min
Histogram: 8 4 4 0 6 10 8 2 28 34
Nghost:        3879.01 ave        5424 max         232 min
Histogram: 8 0 8 0 16 0 8 8 16 40
Neighs:        79213.5 ave      115455 max           0 min
Histogram: 8 4 4 0 10 6 8 8 24 32

Total # of neighbors = 8238207
Ave neighs/atom = 28.530488
Neighbor list builds = 3
Dangerous builds = 1
Setting atom values ...
  1 settings made for x
  1 settings made for y
  1 settings made for z
Setting up cg style minimization ...
  Unit style    : metal
  Current step  : 205
Per MPI rank memory allocation (min/avg/max) = 5.441 | 5.816 | 6.074 Mbytes
Step PotEng KinEng TotEng v_fx v_fy v_fz 
     205   -1152449.4            0   -1152449.4  -0.01740427 0.0075710534 -0.019221902 
     322   -1152449.5            0   -1152449.5 2.5577061e-05 -8.8068138e-06 3.565381e-05 
Loop time of 1.4299 on 104 procs for 117 steps with 288751 atoms

99.9% CPU use with 104 MPI tasks x 1 OpenMP threads

Minimization stats:
  Stopping criterion = energy tolerance
  Energy initial, next-to-last, final = 
     -1152449.44953742  -1152449.45002977  -1152449.45002977
  Force two-norm initial, final = 0.10019598 0.00019045494
  Force max component initial, final = 0.050908709 4.7718212e-05
  Final line search alpha, max atom move = 1.0000000 4.7718212e-05
  Iterations, force evaluations = 117 234

MPI task timing breakdown:
Section |  min time  |  avg time  |  max time  |%varavg| %total
---------------------------------------------------------------
Pair    | 0.35693    | 0.99254    | 1.322      |  27.0 | 69.41
Neigh   | 0          | 0          | 0          |   0.0 |  0.00
Comm    | 0.020842   | 0.23407    | 0.67476    |  37.7 | 16.37
Output  | 0          | 0          | 0          |   0.0 |  0.00
Modify  | 1.5538e-05 | 0.0019442  | 0.0041133  |   2.1 |  0.14
Other   |            | 0.2014     |            |       | 14.08

Nlocal:        2776.45 ave        3961 max           0 min
Histogram: 8 4 4 0 6 10 8 2 28 34
Nghost:        3879.01 ave        5424 max         232 min
Histogram: 8 0 8 0 16 0 8 8 16 40
Neighs:        79213.4 ave      115457 max           0 min
Histogram: 8 4 4 0 10 6 8 8 24 32

Total # of neighbors = 8238197
Ave neighs/atom = 28.530454
Neighbor list builds = 0
Dangerous builds = 0
Setting atom values ...
  1 settings made for x
  1 settings made for y
  1 settings made for z
Setting up cg style minimization ...
  Unit style    : metal
  Current step  : 322
Per MPI rank memory allocation (min/avg/max) = 5.441 | 5.816 | 6.074 Mbytes
Step PotEng KinEng TotEng v_fx v_fy v_fz 
     322   -1152449.4            0   -1152449.4 -0.025073777  0.016340853 -0.024508286 
     538   -1152449.4            0   -1152449.4 -4.8194196e-06 4.6205757e-06 2.0097332e-06 
Loop time of 2.6061 on 104 procs for 216 steps with 288751 atoms

99.9% CPU use with 104 MPI tasks x 1 OpenMP threads

Minimization stats:
  Stopping criterion = energy tolerance
  Energy initial, next-to-last, final = 
     -1152449.44684088   -1152449.4481267   -1152449.4481267
  Force two-norm initial, final = 0.16020353 2.7019103e-05
  Force max component initial, final = 0.090298201 4.8194196e-06
  Final line search alpha, max atom move = 1.0000000 4.8194196e-06
  Iterations, force evaluations = 216 432

MPI task timing breakdown:
Section |  min time  |  avg time  |  max time  |%varavg| %total
---------------------------------------------------------------
Pair    | 0.65775    | 1.8193     | 2.3864     |  36.5 | 69.81
Neigh   | 0          | 0          | 0          |   0.0 |  0.00
Comm    | 0.042984   | 0.41933    | 1.2247     |  52.2 | 16.09
Output  | 0          | 0          | 0          |   0.0 |  0.00
Modify  | 2.7361e-05 | 0.0037011  | 0.017896   |   3.6 |  0.14
Other   |            | 0.3637     |            |       | 13.96

Nlocal:        2776.45 ave        3961 max           0 min
Histogram: 8 4 4 0 6 10 8 2 28 34
Nghost:        3879.01 ave        5424 max         232 min
Histogram: 8 0 8 0 16 0 8 8 16 40
Neighs:        79213.4 ave      115457 max           0 min
Histogram: 8 4 4 0 10 6 8 8 24 32

Total # of neighbors = 8238196
Ave neighs/atom = 28.530450
Neighbor list builds = 0
Dangerous builds = 0
The dot product: 6.57939048097778e-09
Setting atom values ...
  1 settings made for x
  1 settings made for y
  1 settings made for z
Setting up cg style minimization ...
  Unit style    : metal
  Current step  : 538
Per MPI rank memory allocation (min/avg/max) = 5.441 | 5.816 | 6.074 Mbytes
Step PotEng KinEng TotEng v_fx v_fy v_fz 
     538   -1152449.4            0   -1152449.4 -0.021937084  0.018269498 -0.015701753 
     683   -1152449.4            0   -1152449.4 7.7925963e-06 -6.8435053e-06 3.4098016e-06 
Loop time of 1.71609 on 104 procs for 145 steps with 288751 atoms

99.9% CPU use with 104 MPI tasks x 1 OpenMP threads

Minimization stats:
  Stopping criterion = energy tolerance
  Energy initial, next-to-last, final = 
     -1152449.44335722   -1152449.4446054   -1152449.4446054
  Force two-norm initial, final = 0.15619351 4.2901888e-05
  Force max component initial, final = 0.094808589 1.0564140e-05
  Final line search alpha, max atom move = 1.0000000 1.0564140e-05
  Iterations, force evaluations = 145 290

MPI task timing breakdown:
Section |  min time  |  avg time  |  max time  |%varavg| %total
---------------------------------------------------------------
Pair    | 0.44694    | 1.2281     | 1.5989     |  29.8 | 71.56
Neigh   | 0          | 0          | 0          |   0.0 |  0.00
Comm    | 0.028146   | 0.28306    | 0.84926    |  43.6 | 16.49
Output  | 0          | 0          | 0          |   0.0 |  0.00
Modify  | 1.9104e-05 | 0.0023994  | 0.0051108  |   2.3 |  0.14
Other   |            | 0.2025     |            |       | 11.80

Nlocal:        2776.45 ave        3961 max           0 min
Histogram: 8 4 4 0 6 10 8 2 28 34
Nghost:        3879.01 ave        5424 max         232 min
Histogram: 8 0 8 0 16 0 8 8 16 40
Neighs:        79213.4 ave      115457 max           0 min
Histogram: 8 4 4 0 10 6 8 8 24 32

Total # of neighbors = 8238195
Ave neighs/atom = 28.530447
Neighbor list builds = 0
Dangerous builds = 0
The dot product: -2.27841861302708e-08
Setting atom values ...
  1 settings made for x
  1 settings made for y
  1 settings made for z
Setting up cg style minimization ...
  Unit style    : metal
  Current step  : 683
Per MPI rank memory allocation (min/avg/max) = 5.441 | 5.816 | 6.074 Mbytes
Step PotEng KinEng TotEng v_fx v_fy v_fz 
     683   -1152449.4            0   -1152449.4 -0.019164857  0.018405608 -0.0081566511 
     797   -1152449.4            0   -1152449.4 -1.6893193e-06 -1.1587369e-06 -1.9983393e-05 
Loop time of 1.32779 on 104 procs for 114 steps with 288751 atoms

99.9% CPU use with 104 MPI tasks x 1 OpenMP threads

Minimization stats:
  Stopping criterion = energy tolerance
  Energy initial, next-to-last, final = 
     -1152449.43830561  -1152449.43953302  -1152449.43953302
  Force two-norm initial, final = 0.15368034 0.00018107487
  Force max component initial, final = 0.098445703 1.9983393e-05
  Final line search alpha, max atom move = 1.0000000 1.9983393e-05
  Iterations, force evaluations = 114 228

MPI task timing breakdown:
Section |  min time  |  avg time  |  max time  |%varavg| %total
---------------------------------------------------------------
Pair    | 0.34659    | 0.95657    | 1.2521     |  26.3 | 72.04
Neigh   | 0          | 0          | 0          |   0.0 |  0.00
Comm    | 0.019785   | 0.21532    | 0.64645    |  38.8 | 16.22
Output  | 0          | 0          | 0          |   0.0 |  0.00
Modify  | 1.4229e-05 | 0.0018875  | 0.0040459  |   2.0 |  0.14
Other   |            | 0.154      |            |       | 11.60

Nlocal:        2776.45 ave        3961 max           0 min
Histogram: 8 4 4 0 6 10 8 2 28 34
Nghost:        3879.01 ave        5424 max         232 min
Histogram: 8 0 8 0 16 0 8 8 16 40
Neighs:        79213.4 ave      115457 max           0 min
Histogram: 8 4 4 0 10 6 8 8 24 32

Total # of neighbors = 8238194
Ave neighs/atom = 28.530443
Neighbor list builds = 0
Dangerous builds = 0
The dot product: 7.03339396140331e-10
Setting atom values ...
  1 settings made for x
  1 settings made for y
  1 settings made for z
Setting up cg style minimization ...
  Unit style    : metal
  Current step  : 797
Per MPI rank memory allocation (min/avg/max) = 5.441 | 5.816 | 6.074 Mbytes
Step PotEng KinEng TotEng v_fx v_fy v_fz 
     797   -1152449.4            0   -1152449.4 -0.018997638  0.020154811 -0.002545876 
     919   -1152449.4            0   -1152449.4 -4.7580893e-07 -4.7166043e-06 -3.5193147e-05 
Loop time of 1.46982 on 104 procs for 122 steps with 288751 atoms

99.9% CPU use with 104 MPI tasks x 1 OpenMP threads

Minimization stats:
  Stopping criterion = energy tolerance
  Energy initial, next-to-last, final = 
     -1152449.43172361  -1152449.43293569  -1152449.43293569
  Force two-norm initial, final = 0.15255146 0.00015593806
  Force max component initial, final = 0.10151797 3.5193147e-05
  Final line search alpha, max atom move = 1.0000000 3.5193147e-05
  Iterations, force evaluations = 122 244

MPI task timing breakdown:
Section |  min time  |  avg time  |  max time  |%varavg| %total
---------------------------------------------------------------
Pair    | 0.37089    | 1.0332     | 1.3642     |  27.5 | 70.29
Neigh   | 0          | 0          | 0          |   0.0 |  0.00
Comm    | 0.022221   | 0.24008    | 0.69616    |  38.9 | 16.33
Output  | 0          | 0          | 0          |   0.0 |  0.00
Modify  | 1.5624e-05 | 0.0020217  | 0.0042978  |   2.1 |  0.14
Other   |            | 0.1945     |            |       | 13.23

Nlocal:        2776.45 ave        3961 max           0 min
Histogram: 8 4 4 0 6 10 8 2 28 34
Nghost:        3879.01 ave        5424 max         232 min
Histogram: 8 0 8 0 16 0 8 8 16 40
Neighs:        79213.4 ave      115457 max           0 min
Histogram: 8 4 4 0 10 6 8 8 24 32

Total # of neighbors = 8238192
Ave neighs/atom = 28.530436
Neighbor list builds = 0
Dangerous builds = 0
The dot product: -3.41761519660047e-08
Setting atom values ...
  1 settings made for x
  1 settings made for y
  1 settings made for z
Setting up cg style minimization ...
  Unit style    : metal
  Current step  : 919
Per MPI rank memory allocation (min/avg/max) = 5.441 | 5.816 | 6.074 Mbytes
Step PotEng KinEng TotEng v_fx v_fy v_fz 
     919   -1152449.4            0   -1152449.4 -0.020658283  0.023928686 0.0018842474 
    1000   -1152449.4            0   -1152449.4 0.00011478108 -0.0001250876 3.7034832e-05 
    1041   -1152449.4            0   -1152449.4 -2.0342182e-05 1.8751434e-05 -2.7205461e-05 
Loop time of 1.42598 on 104 procs for 122 steps with 288751 atoms

99.9% CPU use with 104 MPI tasks x 1 OpenMP threads

Minimization stats:
  Stopping criterion = energy tolerance
  Energy initial, next-to-last, final = 
     -1152449.42366306  -1152449.42487594  -1152449.42487594
  Force two-norm initial, final = 0.15255707 0.00019359079
  Force max component initial, final = 0.10436095 3.2065320e-05
  Final line search alpha, max atom move = 1.0000000 3.2065320e-05
  Iterations, force evaluations = 122 244

MPI task timing breakdown:
Section |  min time  |  avg time  |  max time  |%varavg| %total
---------------------------------------------------------------
Pair    | 0.37296    | 1.0253     | 1.332      |  27.2 | 71.90
Neigh   | 0          | 0          | 0          |   0.0 |  0.00
Comm    | 0.025768   | 0.23265    | 0.70287    |  40.2 | 16.32
Output  | 0.00021843 | 0.00022394 | 0.0003429  |   0.0 |  0.02
Modify  | 1.6036e-05 | 0.002033   | 0.0043606  |   2.1 |  0.14
Other   |            | 0.1658     |            |       | 11.63

Nlocal:        2776.45 ave        3960 max           0 min
Histogram: 8 4 4 0 4 12 8 2 28 34
Nghost:        3879.01 ave        5424 max         232 min
Histogram: 8 0 8 0 16 0 8 8 16 40
Neighs:        79213.4 ave      115434 max           0 min
Histogram: 8 4 4 0 10 6 8 8 24 32

Total # of neighbors = 8238190
Ave neighs/atom = 28.530429
Neighbor list builds = 0
Dangerous builds = 0
The dot product: 7.45951376584283e-08
Setting atom values ...
  1 settings made for x
  1 settings made for y
  1 settings made for z
Setting up cg style minimization ...
  Unit style    : metal
  Current step  : 1041
Per MPI rank memory allocation (min/avg/max) = 5.441 | 5.816 | 6.074 Mbytes
Step PotEng KinEng TotEng v_fx v_fy v_fz 
    1041   -1152449.4            0   -1152449.4 -0.024391716  0.031087955 0.0055545834 
    1220   -1152449.4            0   -1152449.4 9.169686e-06 -8.8086395e-06 1.2898538e-05 
Loop time of 2.10433 on 104 procs for 179 steps with 288751 atoms

99.9% CPU use with 104 MPI tasks x 1 OpenMP threads

Minimization stats:
  Stopping criterion = energy tolerance
  Energy initial, next-to-last, final = 
     -1152449.41422829  -1152449.41548465  -1152449.41548465
  Force two-norm initial, final = 0.1540578 9.3829022e-05
  Force max component initial, final = 0.10710424 1.4083834e-05
  Final line search alpha, max atom move = 1.0000000 1.4083834e-05
  Iterations, force evaluations = 179 358

MPI task timing breakdown:
Section |  min time  |  avg time  |  max time  |%varavg| %total
---------------------------------------------------------------
Pair    | 0.5441     | 1.5064     | 1.979      |  33.0 | 71.58
Neigh   | 0          | 0          | 0          |   0.0 |  0.00
Comm    | 0.030804   | 0.34346    | 1.0268     |  48.2 | 16.32
Output  | 0          | 0          | 0          |   0.0 |  0.00
Modify  | 2.2218e-05 | 0.002958   | 0.006285   |   2.6 |  0.14
Other   |            | 0.2516     |            |       | 11.95

Nlocal:        2776.45 ave        3960 max           0 min
Histogram: 8 4 4 0 4 12 8 2 28 34
Nghost:        3879.01 ave        5424 max         232 min
Histogram: 8 0 8 0 16 0 8 8 16 40
Neighs:        79213.4 ave      115434 max           0 min
Histogram: 8 4 4 0 10 6 8 8 24 32

Total # of neighbors = 8238191
Ave neighs/atom = 28.530433
Neighbor list builds = 0
Dangerous builds = 0
The dot product: -6.41649376988287e-08
Setting atom values ...
  1 settings made for x
  1 settings made for y
  1 settings made for z
Setting up cg style minimization ...
  Unit style    : metal
  Current step  : 1220
Per MPI rank memory allocation (min/avg/max) = 5.441 | 5.816 | 6.074 Mbytes
Step PotEng KinEng TotEng v_fx v_fy v_fz 
    1220   -1152449.4            0   -1152449.4 -0.026515583    0.0382966 0.0080644999 
    1356   -1152449.4            0   -1152449.4 6.3806677e-06 -1.1616935e-05 -1.2389957e-05 
Loop time of 1.5995 on 104 procs for 136 steps with 288751 atoms

99.9% CPU use with 104 MPI tasks x 1 OpenMP threads

Minimization stats:
  Stopping criterion = energy tolerance
  Energy initial, next-to-last, final = 
     -1152449.40356166  -1152449.40487795  -1152449.40487795
  Force two-norm initial, final = 0.15576371 0.00017131969
  Force max component initial, final = 0.10972319 1.6524531e-05
  Final line search alpha, max atom move = 1.0000000 1.6524531e-05
  Iterations, force evaluations = 136 272

MPI task timing breakdown:
Section |  min time  |  avg time  |  max time  |%varavg| %total
---------------------------------------------------------------
Pair    | 0.4123     | 1.1446     | 1.4959     |  28.9 | 71.56
Neigh   | 0          | 0          | 0          |   0.0 |  0.00
Comm    | 0.023735   | 0.26011    | 0.77268    |  42.0 | 16.26
Output  | 0          | 0          | 0          |   0.0 |  0.00
Modify  | 1.688e-05  | 0.0022539  | 0.0048556  |   2.2 |  0.14
Other   |            | 0.1925     |            |       | 12.04

Nlocal:        2776.45 ave        3960 max           0 min
Histogram: 8 4 4 0 4 12 8 2 28 34
Nghost:        3879.01 ave        5424 max         232 min
Histogram: 8 0 8 0 16 0 8 8 16 40
Neighs:        79213.4 ave      115442 max           0 min
Histogram: 8 4 4 0 10 6 8 8 24 32

Total # of neighbors = 8238192
Ave neighs/atom = 28.530436
Neighbor list builds = 0
Dangerous builds = 0
The dot product: -1.46475152898634e-07
Setting atom values ...
  1 settings made for x
  1 settings made for y
  1 settings made for z
Setting up cg style minimization ...
  Unit style    : metal
  Current step  : 1356
Per MPI rank memory allocation (min/avg/max) = 5.441 | 5.816 | 6.074 Mbytes
Step PotEng KinEng TotEng v_fx v_fy v_fz 
    1356   -1152449.4            0   -1152449.4 -0.025298872  0.042062226 0.0086172605 
    1558   -1152449.4            0   -1152449.4 -4.5563877e-06 2.8774986e-06 -1.5526268e-05 
Loop time of 2.38022 on 104 procs for 202 steps with 288751 atoms

99.9% CPU use with 104 MPI tasks x 1 OpenMP threads

Minimization stats:
  Stopping criterion = energy tolerance
  Energy initial, next-to-last, final = 
     -1152449.39171327  -1152449.39306761  -1152449.39306761
  Force two-norm initial, final = 0.15663673 5.0194500e-05
  Force max component initial, final = 0.1118713 1.5526268e-05
  Final line search alpha, max atom move = 1.0000000 1.5526268e-05
  Iterations, force evaluations = 202 404

MPI task timing breakdown:
Section |  min time  |  avg time  |  max time  |%varavg| %total
---------------------------------------------------------------
Pair    | 0.61363    | 1.7038     | 2.2311     |  35.1 | 71.58
Neigh   | 0          | 0          | 0          |   0.0 |  0.00
Comm    | 0.035181   | 0.39164    | 1.1818     |  51.3 | 16.45
Output  | 0          | 0          | 0          |   0.0 |  0.00
Modify  | 2.5377e-05 | 0.0033328  | 0.0070772  |   2.7 |  0.14
Other   |            | 0.2814     |            |       | 11.82

Nlocal:        2776.45 ave        3959 max           0 min
Histogram: 8 4 4 0 4 12 8 2 28 34
Nghost:        3879.01 ave        5424 max         232 min
Histogram: 8 0 8 0 16 0 8 8 16 40
Neighs:        79213.4 ave      115401 max           0 min
Histogram: 8 4 4 0 10 6 8 8 24 32

Total # of neighbors = 8238191
Ave neighs/atom = 28.530433
Neighbor list builds = 0
Dangerous builds = 0
The dot product: 2.38896852566357e-08
Setting atom values ...
  1 settings made for x
  1 settings made for y
  1 settings made for z
Setting up cg style minimization ...
  Unit style    : metal
  Current step  : 1558
Per MPI rank memory allocation (min/avg/max) = 5.441 | 5.816 | 6.074 Mbytes
Step PotEng KinEng TotEng v_fx v_fy v_fz 
    1558   -1152449.4            0   -1152449.4 -0.021762963  0.041951366 0.0082842037 
    1712   -1152449.4            0   -1152449.4 -1.4748096e-05 1.1097678e-05 -4.7638762e-05 
Loop time of 1.80208 on 104 procs for 154 steps with 288751 atoms

99.9% CPU use with 104 MPI tasks x 1 OpenMP threads

Minimization stats:
  Stopping criterion = energy tolerance
  Energy initial, next-to-last, final = 
     -1152449.37865816  -1152449.38000911  -1152449.38000911
  Force two-norm initial, final = 0.15666985 0.00018552405
  Force max component initial, final = 0.11336667 4.7638762e-05
  Final line search alpha, max atom move = 1.0000000 4.7638762e-05
  Iterations, force evaluations = 154 308

MPI task timing breakdown:
Section |  min time  |  avg time  |  max time  |%varavg| %total
---------------------------------------------------------------
Pair    | 0.47089    | 1.2973     | 1.6879     |  30.7 | 71.99
Neigh   | 0          | 0          | 0          |   0.0 |  0.00
Comm    | 0.028113   | 0.29438    | 0.88252    |  45.0 | 16.34
Output  | 0          | 0          | 0          |   0.0 |  0.00
Modify  | 1.9106e-05 | 0.0025491  | 0.0054426  |   2.4 |  0.14
Other   |            | 0.2078     |            |       | 11.53

Nlocal:        2776.45 ave        3959 max           0 min
Histogram: 8 4 4 0 4 12 8 2 28 34
Nghost:        3879.09 ave        5424 max         232 min
Histogram: 8 0 8 0 16 0 8 8 16 40
Neighs:        79213.4 ave      115401 max           0 min
Histogram: 8 4 4 0 10 6 8 8 24 32

Total # of neighbors = 8238192
Ave neighs/atom = 28.530436
Neighbor list builds = 0
Dangerous builds = 0
The dot product: 1.12816467286066e-07
Setting atom values ...
  1 settings made for x
  1 settings made for y
  1 settings made for z
Setting up cg style minimization ...
  Unit style    : metal
  Current step  : 1712
Per MPI rank memory allocation (min/avg/max) = 5.441 | 5.816 | 6.074 Mbytes
Step PotEng KinEng TotEng v_fx v_fy v_fz 
    1712   -1152449.4            0   -1152449.4 -0.017383461  0.038774098  0.007509861 
    1820   -1152449.4            0   -1152449.4 -2.6944531e-05 3.7229021e-05 -4.8790069e-05 
Loop time of 1.28039 on 104 procs for 108 steps with 288751 atoms

99.9% CPU use with 104 MPI tasks x 1 OpenMP threads

Minimization stats:
  Stopping criterion = energy tolerance
  Energy initial, next-to-last, final = 
     -1152449.36431838  -1152449.36563989  -1152449.36563989
  Force two-norm initial, final = 0.15629275 0.00032416453
  Force max component initial, final = 0.11432284 5.9078700e-05
  Final line search alpha, max atom move = 1.0000000 5.9078700e-05
  Iterations, force evaluations = 108 216

MPI task timing breakdown:
Section |  min time  |  avg time  |  max time  |%varavg| %total
---------------------------------------------------------------
Pair    | 0.32646    | 0.91086    | 1.2063     |  25.8 | 71.14
Neigh   | 0          | 0          | 0          |   0.0 |  0.00
Comm    | 0.017899   | 0.21147    | 0.62382    |  37.0 | 16.52
Output  | 0          | 0          | 0          |   0.0 |  0.00
Modify  | 1.3426e-05 | 0.0017893  | 0.0038144  |   2.0 |  0.14
Other   |            | 0.1563     |            |       | 12.20

Nlocal:        2776.45 ave        3960 max           0 min
Histogram: 8 4 4 0 4 12 8 2 28 34
Nghost:        3879.09 ave        5424 max         232 min
Histogram: 8 0 8 0 16 0 8 8 16 40
Neighs:        79213.4 ave      115442 max           0 min
Histogram: 8 4 4 0 10 6 8 8 24 32

Total # of neighbors = 8238193
Ave neighs/atom = 28.530440
Neighbor list builds = 0
Dangerous builds = 0
The dot product: 4.01638040645437e-07
Setting atom values ...
  1 settings made for x
  1 settings made for y
  1 settings made for z
Setting up cg style minimization ...
  Unit style    : metal
  Current step  : 1820
Per MPI rank memory allocation (min/avg/max) = 5.441 | 5.816 | 6.074 Mbytes
Step PotEng KinEng TotEng v_fx v_fy v_fz 
    1820   -1152449.3            0   -1152449.3  -0.01307354  0.033573408 0.0067821015 
    2000   -1152449.3            0   -1152449.3 -5.0488876e-06 6.6001745e-06 -1.2119987e-05 
    2005   -1152449.3            0   -1152449.3 8.2844093e-06 -9.5975803e-06 2.2740129e-05 
Loop time of 2.15696 on 104 procs for 185 steps with 288751 atoms

99.9% CPU use with 104 MPI tasks x 1 OpenMP threads

Minimization stats:
  Stopping criterion = energy tolerance
  Energy initial, next-to-last, final = 
     -1152449.34862602  -1152449.34990454  -1152449.34990454
  Force two-norm initial, final = 0.15592089 7.5676283e-05
  Force max component initial, final = 0.11492577 2.2740129e-05
  Final line search alpha, max atom move = 1.0000000 2.2740129e-05
  Iterations, force evaluations = 185 370

MPI task timing breakdown:
Section |  min time  |  avg time  |  max time  |%varavg| %total
---------------------------------------------------------------
Pair    | 0.56417    | 1.552      | 2.0188     |  33.5 | 71.95
Neigh   | 0          | 0          | 0          |   0.0 |  0.00
Comm    | 0.030738   | 0.3521     | 1.0578     |  49.2 | 16.32
Output  | 0.00026677 | 0.00027308 | 0.00041466 |   0.0 |  0.01
Modify  | 2.4013e-05 | 0.0030612  | 0.0065337  |   2.6 |  0.14
Other   |            | 0.2496     |            |       | 11.57

Nlocal:        2776.45 ave        3960 max           0 min
Histogram: 8 4 4 0 4 12 8 2 28 34
Nghost:        3879.09 ave        5424 max         232 min
Histogram: 8 0 8 0 16 0 8 8 16 40
Neighs:        79213.4 ave      115442 max           0 min
Histogram: 8 4 4 0 10 6 8 8 24 32

Total # of neighbors = 8238192
Ave neighs/atom = 28.530436
Neighbor list builds = 0
Dangerous builds = 0
The dot product: -8.93253409010246e-08
Setting atom values ...
  1 settings made for x
  1 settings made for y
  1 settings made for z
Setting up cg style minimization ...
  Unit style    : metal
  Current step  : 2005
Per MPI rank memory allocation (min/avg/max) = 5.441 | 5.816 | 6.074 Mbytes
Step PotEng KinEng TotEng v_fx v_fy v_fz 
    2005   -1152449.3            0   -1152449.3 -0.0092129487  0.027239753   0.00644141 
    2186   -1152449.3            0   -1152449.3 8.0541067e-06 -1.8016745e-05 6.3446522e-06 
Loop time of 2.13215 on 104 procs for 181 steps with 288751 atoms

99.9% CPU use with 104 MPI tasks x 1 OpenMP threads

Minimization stats:
  Stopping criterion = energy tolerance
  Energy initial, next-to-last, final = 
     -1152449.33152686  -1152449.33275998  -1152449.33275998
  Force two-norm initial, final = 0.15581547 8.9347343e-05
  Force max component initial, final = 0.11532871 1.8888967e-05
  Final line search alpha, max atom move = 1.0000000 1.8888967e-05
  Iterations, force evaluations = 181 362

MPI task timing breakdown:
Section |  min time  |  avg time  |  max time  |%varavg| %total
---------------------------------------------------------------
Pair    | 0.55054    | 1.5269     | 2.003      |  33.3 | 71.62
Neigh   | 0          | 0          | 0          |   0.0 |  0.00
Comm    | 0.031024   | 0.35066    | 1.0442     |  48.4 | 16.45
Output  | 0          | 0          | 0          |   0.0 |  0.00
Modify  | 2.2997e-05 | 0.0029914  | 0.0063599  |   2.6 |  0.14
Other   |            | 0.2516     |            |       | 11.80

Nlocal:        2776.45 ave        3960 max           0 min
Histogram: 8 4 4 0 4 12 8 2 28 34
Nghost:        3879.11 ave        5424 max         232 min
Histogram: 8 0 8 0 16 0 8 8 16 40
Neighs:        79213.4 ave      115442 max           0 min
Histogram: 8 4 4 0 10 6 8 8 24 32

Total # of neighbors = 8238189
Ave neighs/atom = 28.530426
Neighbor list builds = 0
Dangerous builds = 0
The dot product: -1.43657200568857e-07
Setting atom values ...
  1 settings made for x
  1 settings made for y
  1 settings made for z
Setting up cg style minimization ...
  Unit style    : metal
  Current step  : 2186
Per MPI rank memory allocation (min/avg/max) = 5.441 | 5.816 | 6.074 Mbytes
Step PotEng KinEng TotEng v_fx v_fy v_fz 
    2186   -1152449.3            0   -1152449.3 -0.006040528   0.02049184 0.0059065485 
    2308   -1152449.3            0   -1152449.3 -7.0433534e-06 -1.8649528e-06 -4.1566933e-05 
Loop time of 1.42585 on 104 procs for 122 steps with 288751 atoms

99.9% CPU use with 104 MPI tasks x 1 OpenMP threads

Minimization stats:
  Stopping criterion = energy tolerance
  Energy initial, next-to-last, final = 
     -1152449.31298352  -1152449.31417934  -1152449.31417934
  Force two-norm initial, final = 0.15615019 0.00020344885
  Force max component initial, final = 0.1157666 4.4547010e-05
  Final line search alpha, max atom move = 1.0000000 4.4547010e-05
  Iterations, force evaluations = 122 244

MPI task timing breakdown:
Section |  min time  |  avg time  |  max time  |%varavg| %total
---------------------------------------------------------------
Pair    | 0.36973    | 1.0245     | 1.3376     |  27.3 | 71.85
Neigh   | 0          | 0          | 0          |   0.0 |  0.00
Comm    | 0.022183   | 0.23129    | 0.69507    |  40.2 | 16.22
Output  | 0          | 0          | 0          |   0.0 |  0.00
Modify  | 1.5206e-05 | 0.0020234  | 0.0043228  |   2.1 |  0.14
Other   |            | 0.1681     |            |       | 11.79

Nlocal:        2776.45 ave        3960 max           0 min
Histogram: 8 4 4 0 4 12 8 2 28 34
Nghost:        3879.12 ave        5424 max         232 min
Histogram: 8 0 8 0 16 0 8 8 16 40
Neighs:        79213.3 ave      115442 max           0 min
Histogram: 8 4 4 0 10 6 8 8 24 32

Total # of neighbors = 8238188
Ave neighs/atom = 28.530422
Neighbor list builds = 0
Dangerous builds = 0
The dot product: -1.05999318552917e-08
Setting atom values ...
  1 settings made for x
  1 settings made for y
  1 settings made for z
Setting up cg style minimization ...
  Unit style    : metal
  Current step  : 2308
Per MPI rank memory allocation (min/avg/max) = 5.441 | 5.816 | 6.074 Mbytes
Step PotEng KinEng TotEng v_fx v_fy v_fz 
    2308   -1152449.3            0   -1152449.3 -0.0034418517  0.013650084 0.0052669781 
    2524   -1152449.3            0   -1152449.3 -9.3426849e-07 7.7803731e-07 -3.6904444e-06 
Loop time of 2.51639 on 104 procs for 216 steps with 288751 atoms

99.9% CPU use with 104 MPI tasks x 1 OpenMP threads

Minimization stats:
  Stopping criterion = energy tolerance
  Energy initial, next-to-last, final = 
     -1152449.29297655  -1152449.29414745  -1152449.29414745
  Force two-norm initial, final = 0.15700124 2.6940468e-05
  Force max component initial, final = 0.11638703 4.3379956e-06
  Final line search alpha, max atom move = 1.0000000 4.3379956e-06
  Iterations, force evaluations = 216 432

MPI task timing breakdown:
Section |  min time  |  avg time  |  max time  |%varavg| %total
---------------------------------------------------------------
Pair    | 0.65803    | 1.8185     | 2.3668     |  36.2 | 72.27
Neigh   | 0          | 0          | 0          |   0.0 |  0.00
Comm    | 0.039689   | 0.41308    | 1.241      |  53.4 | 16.42
Output  | 0          | 0          | 0          |   0.0 |  0.00
Modify  | 2.6804e-05 | 0.003564   | 0.0076029  |   2.8 |  0.14
Other   |            | 0.2812     |            |       | 11.18

Nlocal:        2776.45 ave        3960 max           0 min
Histogram: 8 4 4 0 4 12 8 2 28 34
Nghost:        3879.12 ave        5424 max         232 min
Histogram: 8 0 8 0 16 0 8 8 16 40
Neighs:        79213.3 ave      115442 max           0 min
Histogram: 8 4 4 0 10 6 8 8 24 32

Total # of neighbors = 8238186
Ave neighs/atom = 28.530415
Neighbor list builds = 0
Dangerous builds = 0
The dot product: 3.71948260863109e-09
Setting atom values ...
  1 settings made for x
  1 settings made for y
  1 settings made for z
Setting up cg style minimization ...
  Unit style    : metal
  Current step  : 2524
Per MPI rank memory allocation (min/avg/max) = 5.441 | 5.816 | 6.074 Mbytes
Step PotEng KinEng TotEng v_fx v_fy v_fz 
    2524   -1152449.3            0   -1152449.3 -0.001166955 0.0067060172 0.0048120579 
    2641   -1152449.3            0   -1152449.3 6.5941827e-06 -5.5535651e-06 2.6457509e-05 
Loop time of 1.36015 on 104 procs for 117 steps with 288751 atoms

99.9% CPU use with 104 MPI tasks x 1 OpenMP threads

Minimization stats:
  Stopping criterion = energy tolerance
  Energy initial, next-to-last, final = 
     -1152449.27149901  -1152449.27265666  -1152449.27265666
  Force two-norm initial, final = 0.15835196 0.0002082366
  Force max component initial, final = 0.11716996 3.1040117e-05
  Final line search alpha, max atom move = 1.0000000 3.1040117e-05
  Iterations, force evaluations = 117 234

MPI task timing breakdown:
Section |  min time  |  avg time  |  max time  |%varavg| %total
---------------------------------------------------------------
Pair    | 0.35538    | 0.98169    | 1.2785     |  26.7 | 72.18
Neigh   | 0          | 0          | 0          |   0.0 |  0.00
Comm    | 0.020051   | 0.22226    | 0.66882    |  39.3 | 16.34
Output  | 0          | 0          | 0          |   0.0 |  0.00
Modify  | 1.4549e-05 | 0.0019364  | 0.0041291  |   2.1 |  0.14
Other   |            | 0.1543     |            |       | 11.34

Nlocal:        2776.45 ave        3960 max           0 min
Histogram: 8 4 4 0 4 12 8 2 28 34
Nghost:        3879.12 ave        5424 max         232 min
Histogram: 8 0 8 0 16 0 8 8 16 40
Neighs:        79213.3 ave      115442 max           0 min
Histogram: 8 4 4 0 10 6 8 8 24 32

Total # of neighbors = 8238185
Ave neighs/atom = 28.530412
Neighbor list builds = 0
Dangerous builds = 0
The dot product: -1.93652514855199e-08
Setting atom values ...
  1 settings made for x
  1 settings made for y
  1 settings made for z
Setting up cg style minimization ...
  Unit style    : metal
  Current step  : 2641
Per MPI rank memory allocation (min/avg/max) = 5.441 | 5.816 | 6.074 Mbytes
Step PotEng KinEng TotEng v_fx v_fy v_fz 
    2641   -1152449.2            0   -1152449.2 0.00087584487 -0.00052012366 0.0039106686 
    2761   -1152449.2            0   -1152449.2 2.2963895e-06 -1.3471053e-05 -9.2043501e-06 
Loop time of 1.40983 on 104 procs for 120 steps with 288751 atoms

99.9% CPU use with 104 MPI tasks x 1 OpenMP threads

Minimization stats:
  Stopping criterion = energy tolerance
  Energy initial, next-to-last, final = 
     -1152449.24854869  -1152449.24970815  -1152449.24970815
  Force two-norm initial, final = 0.16029044 0.00023488224
  Force max component initial, final = 0.11821837 2.7475829e-05
  Final line search alpha, max atom move = 1.0000000 2.7475829e-05
  Iterations, force evaluations = 120 240

MPI task timing breakdown:
Section |  min time  |  avg time  |  max time  |%varavg| %total
---------------------------------------------------------------
Pair    | 0.36529    | 1.013      | 1.3296     |  27.1 | 71.85
Neigh   | 0          | 0          | 0          |   0.0 |  0.00
Comm    | 0.020577   | 0.23259    | 0.7005     |  39.5 | 16.50
Output  | 0          | 0          | 0          |   0.0 |  0.00
Modify  | 1.4971e-05 | 0.0019812  | 0.0042138  |   2.1 |  0.14
Other   |            | 0.1623     |            |       | 11.51

Nlocal:        2776.45 ave        3960 max           0 min
Histogram: 8 4 4 0 4 12 8 2 28 34
Nghost:        3879.12 ave        5424 max         232 min
Histogram: 8 0 8 0 16 0 8 8 16 40
Neighs:        79213.3 ave      115442 max           0 min
Histogram: 8 4 4 0 10 6 8 8 24 32

Total # of neighbors = 8238184
Ave neighs/atom = 28.530409
Neighbor list builds = 0
Dangerous builds = 0
The dot product: -1.47496747840094e-08
Setting atom values ...
  1 settings made for x
  1 settings made for y
  1 settings made for z
Setting up cg style minimization ...
  Unit style    : metal
  Current step  : 2761
Per MPI rank memory allocation (min/avg/max) = 5.441 | 5.816 | 6.074 Mbytes
Step PotEng KinEng TotEng v_fx v_fy v_fz 
    2761   -1152449.2            0   -1152449.2  0.002937351 -0.0083081779 0.0027501189 
    2945   -1152449.2            0   -1152449.2 -2.2912737e-06 1.4972027e-06 -1.007544e-05 
Loop time of 2.16576 on 104 procs for 184 steps with 288751 atoms

99.9% CPU use with 104 MPI tasks x 1 OpenMP threads

Minimization stats:
  Stopping criterion = energy tolerance
  Energy initial, next-to-last, final = 
     -1152449.22413552  -1152449.22531542  -1152449.22531542
  Force two-norm initial, final = 0.16299627 6.8497577e-05
  Force max component initial, final = 0.11966944 1.0075440e-05
  Final line search alpha, max atom move = 1.0000000 1.0075440e-05
  Iterations, force evaluations = 184 368

MPI task timing breakdown:
Section |  min time  |  avg time  |  max time  |%varavg| %total
---------------------------------------------------------------
Pair    | 0.56079    | 1.551      | 2.016      |  33.5 | 71.61
Neigh   | 0          | 0          | 0          |   0.0 |  0.00
Comm    | 0.033356   | 0.35457    | 1.0689     |  49.2 | 16.37
Output  | 0          | 0          | 0          |   0.0 |  0.00
Modify  | 2.2975e-05 | 0.0030391  | 0.0064891  |   2.6 |  0.14
Other   |            | 0.2572     |            |       | 11.87

Nlocal:        2776.45 ave        3959 max           0 min
Histogram: 8 4 4 0 4 12 8 2 28 34
Nghost:        3879.12 ave        5424 max         232 min
Histogram: 8 0 8 0 16 0 8 8 16 40
Neighs:        79213.3 ave      115398 max           0 min
Histogram: 8 4 4 0 10 6 8 8 24 32

Total # of neighbors = 8238185
Ave neighs/atom = 28.530412
Neighbor list builds = 0
Dangerous builds = 0
The dot product: 1.96847562150877e-09
Setting atom values ...
  1 settings made for x
  1 settings made for y
  1 settings made for z
Setting up cg style minimization ...
  Unit style    : metal
  Current step  : 2945
Per MPI rank memory allocation (min/avg/max) = 5.441 | 5.816 | 6.074 Mbytes
Step PotEng KinEng TotEng v_fx v_fy v_fz 
    2945   -1152449.2            0   -1152449.2 0.0053203644 -0.017219224 0.0012992435 
    3000   -1152449.2            0   -1152449.2 -2.9913693e-06 0.00017807188 0.00027092912 
    3171   -1152449.2            0   -1152449.2 1.2001308e-06 -3.2018914e-06 1.3938125e-06 
Loop time of 2.66503 on 104 procs for 226 steps with 288751 atoms

99.9% CPU use with 104 MPI tasks x 1 OpenMP threads

Minimization stats:
  Stopping criterion = energy tolerance
  Energy initial, next-to-last, final = 
     -1152449.19828947  -1152449.19951769  -1152449.19951769
  Force two-norm initial, final = 0.16656512 1.8613189e-05
  Force max component initial, final = 0.12150636 3.2500650e-06
  Final line search alpha, max atom move = 1.0000000 3.2500650e-06
  Iterations, force evaluations = 226 452

MPI task timing breakdown:
Section |  min time  |  avg time  |  max time  |%varavg| %total
---------------------------------------------------------------
Pair    | 0.68988    | 1.9062     | 2.5022     |  37.1 | 71.53
Neigh   | 0          | 0          | 0          |   0.0 |  0.00
Comm    | 0.038252   | 0.4385     | 1.3182     |  54.1 | 16.45
Output  | 0.00015285 | 0.0001551  | 0.00025398 |   0.0 |  0.01
Modify  | 2.7777e-05 | 0.0037243  | 0.0079192  |   2.9 |  0.14
Other   |            | 0.3164     |            |       | 11.87

Nlocal:        2776.45 ave        3959 max           0 min
Histogram: 8 4 4 0 4 12 8 2 28 34
Nghost:        3879.11 ave        5424 max         232 min
Histogram: 8 0 8 0 16 0 8 8 16 40
Neighs:        79213.3 ave      115398 max           0 min
Histogram: 8 4 4 0 10 6 8 8 24 32

Total # of neighbors = 8238184
Ave neighs/atom = 28.530409
Neighbor list builds = 0
Dangerous builds = 0
The dot product: 1.05359411884556e-08
Setting atom values ...
  1 settings made for x
  1 settings made for y
  1 settings made for z
Setting up cg style minimization ...
  Unit style    : metal
  Current step  : 3171
Per MPI rank memory allocation (min/avg/max) = 5.441 | 5.816 | 6.074 Mbytes
Step PotEng KinEng TotEng v_fx v_fy v_fz 
    3171   -1152449.2            0   -1152449.2 0.0085398674 -0.028716902 -0.0012628943 
    3284   -1152449.2            0   -1152449.2 -1.3016404e-06 3.1727668e-06 -1.8385722e-06 
Loop time of 1.32901 on 104 procs for 113 steps with 288751 atoms

99.9% CPU use with 104 MPI tasks x 1 OpenMP threads

Minimization stats:
  Stopping criterion = energy tolerance
  Energy initial, next-to-last, final = 
     -1152449.17108178  -1152449.17242335  -1152449.17242335
  Force two-norm initial, final = 0.17151481 0.00018290626
  Force max component initial, final = 0.12397109 6.8367056e-06
  Final line search alpha, max atom move = 1.0000000 6.8367056e-06
  Iterations, force evaluations = 113 226

MPI task timing breakdown:
Section |  min time  |  avg time  |  max time  |%varavg| %total
---------------------------------------------------------------
Pair    | 0.34471    | 0.95348    | 1.2428     |  26.4 | 71.74
Neigh   | 0          | 0          | 0          |   0.0 |  0.00
Comm    | 0.020961   | 0.21715    | 0.64692    |  38.6 | 16.34
Output  | 0          | 0          | 0          |   0.0 |  0.00
Modify  | 1.595e-05  | 0.0018743  | 0.0039705  |   2.0 |  0.14
Other   |            | 0.1565     |            |       | 11.78

Nlocal:        2776.45 ave        3958 max           0 min
Histogram: 8 4 4 0 4 12 8 2 28 34
Nghost:        3879.08 ave        5424 max         232 min
Histogram: 8 0 8 0 16 0 8 8 16 40
Neighs:        79213.3 ave      115358 max           0 min
Histogram: 8 4 4 0 10 6 8 8 24 32

Total # of neighbors = 8238185
Ave neighs/atom = 28.530412
Neighbor list builds = 0
Dangerous builds = 0
The dot product: -2.27186013785939e-08
Setting atom values ...
  1 settings made for x
  1 settings made for y
  1 settings made for z
Setting up cg style minimization ...
  Unit style    : metal
  Current step  : 3284
Per MPI rank memory allocation (min/avg/max) = 5.441 | 5.816 | 6.074 Mbytes
Step PotEng KinEng TotEng v_fx v_fy v_fz 
    3284   -1152449.1            0   -1152449.1  0.012000444 -0.042357748 -0.010470023 
    3407   -1152449.1            0   -1152449.1 5.8105454e-06 -1.9047424e-05 -2.368141e-06 
Loop time of 1.44139 on 104 procs for 123 steps with 288751 atoms

99.9% CPU use with 104 MPI tasks x 1 OpenMP threads

Minimization stats:
  Stopping criterion = energy tolerance
  Energy initial, next-to-last, final = 
     -1152449.14260179  -1152449.14414341  -1152449.14414341
  Force two-norm initial, final = 0.17789813 0.00014790514
  Force max component initial, final = 0.12745768 3.5508875e-05
  Final line search alpha, max atom move = 1.0000000 3.5508875e-05
  Iterations, force evaluations = 123 246

MPI task timing breakdown:
Section |  min time  |  avg time  |  max time  |%varavg| %total
---------------------------------------------------------------
Pair    | 0.37487    | 1.0348     | 1.3581     |  27.3 | 71.79
Neigh   | 0          | 0          | 0          |   0.0 |  0.00
Comm    | 0.021898   | 0.2366     | 0.71063    |  39.8 | 16.41
Output  | 0          | 0          | 0          |   0.0 |  0.00
Modify  | 1.5747e-05 | 0.0020364  | 0.0043543  |   2.1 |  0.14
Other   |            | 0.168      |            |       | 11.65

Nlocal:        2776.45 ave        3957 max           0 min
Histogram: 8 4 4 0 4 12 8 2 28 34
Nghost:        3879.08 ave        5424 max         232 min
Histogram: 8 0 8 0 16 0 8 8 16 40
Neighs:        79213.3 ave      115334 max           0 min
Histogram: 8 4 4 0 10 6 8 8 24 32

Total # of neighbors = 8238183
Ave neighs/atom = 28.530405
Neighbor list builds = 0
Dangerous builds = 0
The dot product: 2.40707037207073e-07
Setting atom values ...
  1 settings made for x
  1 settings made for y
  1 settings made for z
Setting up cg style minimization ...
  Unit style    : metal
  Current step  : 3407
Per MPI rank memory allocation (min/avg/max) = 5.441 | 5.816 | 6.074 Mbytes
Step PotEng KinEng TotEng v_fx v_fy v_fz 
    3407   -1152449.1            0   -1152449.1  0.015146829 -0.053053692 -0.023036393 
    3526   -1152449.1            0   -1152449.1 1.1519708e-05 -1.4489652e-05 3.7399095e-05 
Loop time of 1.42043 on 104 procs for 119 steps with 288751 atoms

99.9% CPU use with 104 MPI tasks x 1 OpenMP threads

Minimization stats:
  Stopping criterion = energy tolerance
  Energy initial, next-to-last, final = 
     -1152449.11278987  -1152449.11458182  -1152449.11458182
  Force two-norm initial, final = 0.18585372 0.00016981355
  Force max component initial, final = 0.13180955 3.7399095e-05
  Final line search alpha, max atom move = 1.0000000 3.7399095e-05
  Iterations, force evaluations = 119 238

MPI task timing breakdown:
Section |  min time  |  avg time  |  max time  |%varavg| %total
---------------------------------------------------------------
Pair    | 0.36358    | 1.0045     | 1.2998     |  26.8 | 70.72
Neigh   | 0          | 0          | 0          |   0.0 |  0.00
Comm    | 0.023269   | 0.23191    | 0.68365    |  38.9 | 16.33
Output  | 0          | 0          | 0          |   0.0 |  0.00
Modify  | 1.4951e-05 | 0.0019737  | 0.0042745  |   2.1 |  0.14
Other   |            | 0.182      |            |       | 12.82

Nlocal:        2776.45 ave        3955 max           0 min
Histogram: 8 4 4 0 4 12 8 2 28 34
Nghost:        3879.08 ave        5424 max         232 min
Histogram: 8 0 8 0 16 0 8 8 16 40
Neighs:        79213.3 ave      115270 max           0 min
Histogram: 8 4 4 0 10 6 8 8 24 32

Total # of neighbors = 8238181
Ave neighs/atom = 28.530398
Neighbor list builds = 0
Dangerous builds = 0
The dot product: 3.70696989414826e-08
Setting atom values ...
  1 settings made for x
  1 settings made for y
  1 settings made for z
Setting up cg style minimization ...
  Unit style    : metal
  Current step  : 3526
Per MPI rank memory allocation (min/avg/max) = 5.441 | 5.816 | 6.074 Mbytes
Step PotEng KinEng TotEng v_fx v_fy v_fz 
    3526   -1152449.1            0   -1152449.1  0.019126966 -0.060463812 -0.031142563 
    3687   -1152449.1            0   -1152449.1 3.4953217e-06 -1.4541943e-05 -1.4541741e-05 
Loop time of 1.89548 on 104 procs for 161 steps with 288751 atoms

99.9% CPU use with 104 MPI tasks x 1 OpenMP threads

Minimization stats:
  Stopping criterion = energy tolerance
  Energy initial, next-to-last, final = 
     -1152449.08164665   -1152449.0836463   -1152449.0836463
  Force two-norm initial, final = 0.19336574 8.5136674e-05
  Force max component initial, final = 0.1367729 1.5515503e-05
  Final line search alpha, max atom move = 1.0000000 1.5515503e-05
  Iterations, force evaluations = 161 322

MPI task timing breakdown:
Section |  min time  |  avg time  |  max time  |%varavg| %total
---------------------------------------------------------------
Pair    | 0.48723    | 1.3565     | 1.7836     |  31.4 | 71.56
Neigh   | 0          | 0          | 0          |   0.0 |  0.00
Comm    | 0.027694   | 0.30974    | 0.91539    |  45.7 | 16.34
Output  | 0          | 0          | 0          |   0.0 |  0.00
Modify  | 2.0449e-05 | 0.0026573  | 0.0056754  |   2.4 |  0.14
Other   |            | 0.2266     |            |       | 11.96

Nlocal:        2776.45 ave        3952 max           0 min
Histogram: 8 4 4 0 4 12 8 2 28 34
Nghost:        3879.08 ave        5424 max         232 min
Histogram: 8 0 8 0 16 0 8 8 16 40
Neighs:        79213.3 ave      115188 max           0 min
Histogram: 8 4 4 0 10 6 8 8 24 32

Total # of neighbors = 8238183
Ave neighs/atom = 28.530405
Neighbor list builds = 0
Dangerous builds = 0
The dot product: 3.4093985142952e-07
Setting atom values ...
  1 settings made for x
  1 settings made for y
  1 settings made for z
Setting up cg style minimization ...
  Unit style    : metal
  Current step  : 3687
Per MPI rank memory allocation (min/avg/max) = 5.441 | 5.816 | 6.074 Mbytes
Step PotEng KinEng TotEng v_fx v_fy v_fz 
    3687     -1152449            0     -1152449   0.02273362 -0.064604159 -0.039562058 
    3829   -1152449.1            0   -1152449.1 -1.6148885e-05 3.6758358e-05 -2.2424284e-07 
Loop time of 1.64317 on 104 procs for 142 steps with 288751 atoms

99.9% CPU use with 104 MPI tasks x 1 OpenMP threads

Minimization stats:
  Stopping criterion = energy tolerance
  Energy initial, next-to-last, final = 
     -1152449.04918083   -1152449.0513404   -1152449.0513404
  Force two-norm initial, final = 0.19988587 0.0002021313
  Force max component initial, final = 0.14189241 4.2145851e-05
  Final line search alpha, max atom move = 1.0000000 4.2145851e-05
  Iterations, force evaluations = 142 284

MPI task timing breakdown:
Section |  min time  |  avg time  |  max time  |%varavg| %total
---------------------------------------------------------------
Pair    | 0.42883    | 1.1908     | 1.5493     |  29.4 | 72.47
Neigh   | 0          | 0          | 0          |   0.0 |  0.00
Comm    | 0.024654   | 0.26758    | 0.80664    |  43.5 | 16.28
Output  | 0          | 0          | 0          |   0.0 |  0.00
Modify  | 1.7497e-05 | 0.0023527  | 0.0050834  |   2.3 |  0.14
Other   |            | 0.1825     |            |       | 11.10

Nlocal:        2776.45 ave        3944 max           0 min
Histogram: 8 4 4 0 4 12 8 2 26 36
Nghost:        3879.08 ave        5424 max         232 min
Histogram: 8 0 8 0 16 0 8 8 16 40
Neighs:        79213.3 ave      114927 max           0 min
Histogram: 8 4 4 0 10 6 8 8 22 34

Total # of neighbors = 8238179
Ave neighs/atom = 28.530391
Neighbor list builds = 0
Dangerous builds = 0
The dot product: -6.60195063263522e-07
Setting atom values ...
  1 settings made for x
  1 settings made for y
  1 settings made for z
Setting up cg style minimization ...
  Unit style    : metal
  Current step  : 3829
Per MPI rank memory allocation (min/avg/max) = 5.441 | 5.816 | 6.074 Mbytes
Step PotEng KinEng TotEng v_fx v_fy v_fz 
    3829     -1152449            0     -1152449  0.025110975 -0.065576132 -0.052709294 
    4000     -1152449            0     -1152449 2.9311992e-05 -4.4618361e-05 6.4593613e-05 
    4047     -1152449            0     -1152449 2.5548376e-06 -6.7331972e-06 -5.6051161e-06 
Loop time of 2.55972 on 104 procs for 218 steps with 288751 atoms

99.9% CPU use with 104 MPI tasks x 1 OpenMP threads

Minimization stats:
  Stopping criterion = energy tolerance
  Energy initial, next-to-last, final = 
     -1152449.01547708  -1152449.01780977  -1152449.01780977
  Force two-norm initial, final = 0.2064746 4.2177779e-05
  Force max component initial, final = 0.14710147 1.0513271e-05
  Final line search alpha, max atom move = 1.0000000 1.0513271e-05
  Iterations, force evaluations = 218 436

MPI task timing breakdown:
Section |  min time  |  avg time  |  max time  |%varavg| %total
---------------------------------------------------------------
Pair    | 0.66334    | 1.8424     | 2.4002     |  36.6 | 71.98
Neigh   | 0          | 0          | 0          |   0.0 |  0.00
Comm    | 0.037258   | 0.42349    | 1.2698     |  53.5 | 16.54
Output  | 0.00015467 | 0.00016131 | 0.00030626 |   0.0 |  0.01
Modify  | 2.6895e-05 | 0.0035971  | 0.0076408  |   2.8 |  0.14
Other   |            | 0.2901     |            |       | 11.33

Nlocal:        2776.45 ave        3934 max           0 min
Histogram: 8 4 4 0 4 12 8 0 28 36
Nghost:        3879.13 ave        5424 max         232 min
Histogram: 8 0 8 0 16 0 8 8 16 40
Neighs:        79213.2 ave      114613 max           0 min
Histogram: 8 4 4 0 8 8 8 8 20 36

Total # of neighbors = 8238177
Ave neighs/atom = 28.530384
Neighbor list builds = 0
Dangerous builds = 0
The dot product: 1.87227146082271e-07
Setting atom values ...
  1 settings made for x
  1 settings made for y
  1 settings made for z
Setting up cg style minimization ...
  Unit style    : metal
  Current step  : 4047
Per MPI rank memory allocation (min/avg/max) = 5.441 | 5.816 | 6.074 Mbytes
Step PotEng KinEng TotEng v_fx v_fy v_fz 
    4047     -1152449            0     -1152449  0.026306006 -0.062674272 -0.067566911 
    4218     -1152449            0     -1152449 -6.8304135e-06 1.5703777e-05 1.4396655e-05 
Loop time of 2.00632 on 104 procs for 171 steps with 288751 atoms

99.9% CPU use with 104 MPI tasks x 1 OpenMP threads

Minimization stats:
  Stopping criterion = energy tolerance
  Energy initial, next-to-last, final = 
     -1152448.98078082  -1152448.98319625  -1152448.98319625
  Force two-norm initial, final = 0.21267993 0.00027326867
  Force max component initial, final = 0.15225647 5.7468750e-05
  Final line search alpha, max atom move = 1.0000000 5.7468750e-05
  Iterations, force evaluations = 171 342

MPI task timing breakdown:
Section |  min time  |  avg time  |  max time  |%varavg| %total
---------------------------------------------------------------
Pair    | 0.51756    | 1.4391     | 1.8741     |  32.2 | 71.73
Neigh   | 0          | 0          | 0          |   0.0 |  0.00
Comm    | 0.029518   | 0.32584    | 0.96871    |  47.2 | 16.24
Output  | 0          | 0          | 0          |   0.0 |  0.00
Modify  | 2.1246e-05 | 0.002826   | 0.0060137  |   2.5 |  0.14
Other   |            | 0.2385     |            |       | 11.89

Nlocal:        2776.45 ave        3932 max           0 min
Histogram: 8 4 4 0 4 12 8 0 26 38
Nghost:        3879.13 ave        5424 max         232 min
Histogram: 8 0 8 0 16 0 8 8 16 40
Neighs:        79213.2 ave      114554 max           0 min
Histogram: 8 4 4 0 8 8 8 8 20 36

Total # of neighbors = 8238176
Ave neighs/atom = 28.530381
Neighbor list builds = 0
Dangerous builds = 0
The dot product: -4.63062610974835e-07
Setting atom values ...
  1 settings made for x
  1 settings made for y
  1 settings made for z
Setting up cg style minimization ...
  Unit style    : metal
  Current step  : 4218
Per MPI rank memory allocation (min/avg/max) = 5.441 | 5.816 | 6.074 Mbytes
Step PotEng KinEng TotEng v_fx v_fy v_fz 
    4218   -1152448.9            0   -1152448.9  0.026006805  -0.05532937 -0.077584558 
    4461     -1152449            0     -1152449 -5.0389945e-07 9.6284819e-07 5.311798e-07 
Loop time of 2.82455 on 104 procs for 243 steps with 288751 atoms

99.9% CPU use with 104 MPI tasks x 1 OpenMP threads

Minimization stats:
  Stopping criterion = energy tolerance
  Energy initial, next-to-last, final = 
       -1152448.945256  -1152448.98068021  -1152448.98068021
  Force two-norm initial, final = 0.21749521 0.00017185148
  Force max component initial, final = 0.15709192 1.6485638e-05
  Final line search alpha, max atom move = 1.0000000 1.6485638e-05
  Iterations, force evaluations = 243 485

MPI task timing breakdown:
Section |  min time  |  avg time  |  max time  |%varavg| %total
---------------------------------------------------------------
Pair    | 0.74008    | 2.0445     | 2.6504     |  38.4 | 72.38
Neigh   | 1.0531e-05 | 0.0029349  | 0.0042398  |   2.2 |  0.10
Comm    | 0.04064    | 0.46615    | 1.4166     |  56.6 | 16.50
Output  | 0          | 0          | 0          |   0.0 |  0.00
Modify  | 3.0661e-05 | 0.0039977  | 0.0084964  |   3.0 |  0.14
Other   |            | 0.307      |            |       | 10.87

Nlocal:        2776.45 ave        3931 max           0 min
Histogram: 8 4 4 0 4 12 8 0 26 38
Nghost:        3879.13 ave        5424 max         232 min
Histogram: 8 0 8 0 16 0 8 8 16 40
Neighs:        79213.3 ave      114518 max           0 min
Histogram: 8 4 4 0 8 8 8 8 20 36

Total # of neighbors = 8238183
Ave neighs/atom = 28.530405
Neighbor list builds = 1
Dangerous builds = 0
The dot product: -4.63011730258723e-08
Setting atom values ...
  1 settings made for x
  1 settings made for y
  1 settings made for z
Setting up cg style minimization ...
  Unit style    : metal
  Current step  : 4461
Per MPI rank memory allocation (min/avg/max) = 5.441 | 5.816 | 6.074 Mbytes
Step PotEng KinEng TotEng v_fx v_fy v_fz 
    4461     -1152449            0     -1152449  0.023412881 -0.024690658  -0.13266525 
    4633     -1152449            0     -1152449 -6.9776596e-06 1.4942823e-05 -2.7636288e-05 
Loop time of 1.99906 on 104 procs for 172 steps with 288751 atoms

99.9% CPU use with 104 MPI tasks x 1 OpenMP threads

Minimization stats:
  Stopping criterion = energy tolerance
  Energy initial, next-to-last, final = 
     -1152448.95838403  -1152448.96190026  -1152448.96190026
  Force two-norm initial, final = 0.24793068 0.00018198704
  Force max component initial, final = 0.16639706 5.6629559e-05
  Final line search alpha, max atom move = 1.0000000 5.6629559e-05
  Iterations, force evaluations = 172 344

MPI task timing breakdown:
Section |  min time  |  avg time  |  max time  |%varavg| %total
---------------------------------------------------------------
Pair    | 0.52207    | 1.447      | 1.8791     |  32.5 | 72.39
Neigh   | 0          | 0          | 0          |   0.0 |  0.00
Comm    | 0.028996   | 0.32619    | 0.98881    |  48.0 | 16.32
Output  | 0          | 0          | 0          |   0.0 |  0.00
Modify  | 2.1223e-05 | 0.0028355  | 0.00605    |   2.5 |  0.14
Other   |            | 0.223      |            |       | 11.16

Nlocal:        2776.45 ave        3953 max           0 min
Histogram: 8 4 4 0 4 12 8 2 28 34
Nghost:        3879.12 ave        5424 max         232 min
Histogram: 8 0 8 0 16 0 8 8 16 40
Neighs:        79213.3 ave      115222 max           0 min
Histogram: 8 4 4 0 10 6 8 8 24 32

Total # of neighbors = 8238183
Ave neighs/atom = 28.530405
Neighbor list builds = 0
Dangerous builds = 0
The dot product: 6.48560565201853e-07
Setting atom values ...
  1 settings made for x
  1 settings made for y
  1 settings made for z
Setting up cg style minimization ...
  Unit style    : metal
  Current step  : 4633
Per MPI rank memory allocation (min/avg/max) = 5.441 | 5.816 | 6.074 Mbytes
Step PotEng KinEng TotEng v_fx v_fy v_fz 
    4633   -1152448.9            0   -1152448.9  0.013671961 -0.0093033747 -0.065895746 
    4805   -1152448.9            0   -1152448.9 -6.9630215e-06 9.221774e-06 1.1495391e-05 
Loop time of 2.03574 on 104 procs for 172 steps with 288751 atoms

99.9% CPU use with 104 MPI tasks x 1 OpenMP threads

Minimization stats:
  Stopping criterion = energy tolerance
  Energy initial, next-to-last, final = 
     -1152448.93946489  -1152448.94177561  -1152448.94177561
  Force two-norm initial, final = 0.22215317 6.7967886e-05
  Force max component initial, final = 0.16907259 1.1495391e-05
  Final line search alpha, max atom move = 1.0000000 1.1495391e-05
  Iterations, force evaluations = 172 344

MPI task timing breakdown:
Section |  min time  |  avg time  |  max time  |%varavg| %total
---------------------------------------------------------------
Pair    | 0.52289    | 1.4488     | 1.9178     |  32.4 | 71.17
Neigh   | 0          | 0          | 0          |   0.0 |  0.00
Comm    | 0.029202   | 0.33445    | 0.98658    |  46.7 | 16.43
Output  | 0          | 0          | 0          |   0.0 |  0.00
Modify  | 2.1711e-05 | 0.0028401  | 0.0060988  |   2.5 |  0.14
Other   |            | 0.2496     |            |       | 12.26

Nlocal:        2776.45 ave        3950 max           0 min
Histogram: 8 4 4 0 4 12 8 2 26 36
Nghost:        3879.09 ave        5424 max         232 min
Histogram: 8 0 8 0 16 0 8 8 16 40
Neighs:        79213.3 ave      115113 max           0 min
Histogram: 8 4 4 0 10 6 8 8 24 32

Total # of neighbors = 8238186
Ave neighs/atom = 28.530415
Neighbor list builds = 0
Dangerous builds = 0
The dot product: -1.72917780936467e-07
Setting atom values ...
  1 settings made for x
  1 settings made for y
  1 settings made for z
Setting up cg style minimization ...
  Unit style    : metal
  Current step  : 4805
Per MPI rank memory allocation (min/avg/max) = 5.441 | 5.816 | 6.074 Mbytes
Step PotEng KinEng TotEng v_fx v_fy v_fz 
    4805   -1152448.9            0   -1152448.9 0.0084647715 -0.0039596779 -0.040622005 
    5000   -1152448.9            0   -1152448.9 4.5449391e-06 -5.1454646e-06 -9.5227072e-06 
    5113   -1152448.9            0   -1152448.9 2.6452503e-08 -7.1599829e-08 1.1408889e-07 
Loop time of 3.59039 on 104 procs for 308 steps with 288751 atoms

99.9% CPU use with 104 MPI tasks x 1 OpenMP threads

Minimization stats:
  Stopping criterion = energy tolerance
  Energy initial, next-to-last, final = 
      -1152448.9193395  -1152448.92162158  -1152448.92162158
  Force two-norm initial, final = 0.22067109 7.4510446e-07
  Force max component initial, final = 0.17129853 1.1408889e-07
  Final line search alpha, max atom move = 1.0000000 1.1408889e-07
  Iterations, force evaluations = 308 616

MPI task timing breakdown:
Section |  min time  |  avg time  |  max time  |%varavg| %total
---------------------------------------------------------------
Pair    | 0.94025    | 2.5872     | 3.3677     |  43.2 | 72.06
Neigh   | 0          | 0          | 0          |   0.0 |  0.00
Comm    | 0.055265   | 0.58377    | 1.7503     |  63.9 | 16.26
Output  | 0.00023512 | 0.00023821 | 0.00038289 |   0.0 |  0.01
Modify  | 3.8666e-05 | 0.0050779  | 0.010886   |   3.4 |  0.14
Other   |            | 0.4141     |            |       | 11.53

Nlocal:        2776.45 ave        3950 max           0 min
Histogram: 8 4 4 0 4 12 8 2 26 36
Nghost:        3879.09 ave        5424 max         232 min
Histogram: 8 0 8 0 16 0 8 8 16 40
Neighs:        79213.3 ave      115113 max           0 min
Histogram: 8 4 4 0 10 6 8 8 24 32

Total # of neighbors = 8238183
Ave neighs/atom = 28.530405
Neighbor list builds = 0
Dangerous builds = 0
The dot product: -8.56454131573455e-10
Setting atom values ...
  1 settings made for x
  1 settings made for y
  1 settings made for z
Setting up cg style minimization ...
  Unit style    : metal
  Current step  : 5113
Per MPI rank memory allocation (min/avg/max) = 5.441 | 5.816 | 6.074 Mbytes
Step PotEng KinEng TotEng v_fx v_fy v_fz 
    5113   -1152448.9            0   -1152448.9 0.0063214305 -0.0022501818 -0.029883931 
    5240   -1152448.9            0   -1152448.9 1.2181188e-05 -1.8734737e-05 -4.570463e-06 
Loop time of 1.56156 on 104 procs for 127 steps with 288751 atoms

99.8% CPU use with 104 MPI tasks x 1 OpenMP threads

Minimization stats:
  Stopping criterion = energy tolerance
  Energy initial, next-to-last, final = 
     -1152448.89935761  -1152448.90132763  -1152448.90132763
  Force two-norm initial, final = 0.22062953 0.00024341151
  Force max component initial, final = 0.17366439 4.9255837e-05
  Final line search alpha, max atom move = 1.0000000 4.9255837e-05
  Iterations, force evaluations = 127 254

MPI task timing breakdown:
Section |  min time  |  avg time  |  max time  |%varavg| %total
---------------------------------------------------------------
Pair    | 0.38788    | 1.078      | 1.4227     |  28.1 | 69.03
Neigh   | 0          | 0          | 0          |   0.0 |  0.00
Comm    | 0.02427    | 0.25264    | 0.7295     |  39.2 | 16.18
Output  | 0          | 0          | 0          |   0.0 |  0.00
Modify  | 1.7304e-05 | 0.0021085  | 0.0045095  |   2.2 |  0.14
Other   |            | 0.2288     |            |       | 14.65

Nlocal:        2776.45 ave        3950 max           0 min
Histogram: 8 4 4 0 4 12 8 2 26 36
Nghost:        3879.09 ave        5424 max         232 min
Histogram: 8 0 8 0 16 0 8 8 16 40
Neighs:        79213.3 ave      115113 max           0 min
Histogram: 8 4 4 0 10 6 8 8 24 32

Total # of neighbors = 8238182
Ave neighs/atom = 28.530402
Neighbor list builds = 0
Dangerous builds = 0
The dot product: 3.28157356038318e-08
Setting atom values ...
  1 settings made for x
  1 settings made for y
  1 settings made for z
Setting up cg style minimization ...
  Unit style    : metal
  Current step  : 5240
Per MPI rank memory allocation (min/avg/max) = 5.441 | 5.816 | 6.074 Mbytes
Step PotEng KinEng TotEng v_fx v_fy v_fz 
    5240   -1152448.9            0   -1152448.9 0.0046759635 -0.0019453377 -0.019955921 
    5443   -1152448.9            0   -1152448.9 1.3273337e-06 1.8187281e-06 -1.3952614e-05 
Loop time of 2.35532 on 104 procs for 203 steps with 288751 atoms

99.9% CPU use with 104 MPI tasks x 1 OpenMP threads

Minimization stats:
  Stopping criterion = energy tolerance
  Energy initial, next-to-last, final = 
     -1152448.87794439  -1152448.87975432  -1152448.87975432
  Force two-norm initial, final = 0.21934319 6.5197577e-05
  Force max component initial, final = 0.17592038 1.7738327e-05
  Final line search alpha, max atom move = 1.0000000 1.7738327e-05
  Iterations, force evaluations = 203 406

MPI task timing breakdown:
Section |  min time  |  avg time  |  max time  |%varavg| %total
---------------------------------------------------------------
Pair    | 0.61328    | 1.6991     | 2.218      |  35.1 | 72.14
Neigh   | 0          | 0          | 0          |   0.0 |  0.00
Comm    | 0.034977   | 0.38309    | 1.1465     |  51.7 | 16.27
Output  | 0          | 0          | 0          |   0.0 |  0.00
Modify  | 2.4975e-05 | 0.0033542  | 0.0072002  |   2.7 |  0.14
Other   |            | 0.2698     |            |       | 11.45

Nlocal:        2776.45 ave        3949 max           0 min
Histogram: 8 4 4 0 4 12 8 2 26 36
Nghost:        3879.09 ave        5424 max         232 min
Histogram: 8 0 8 0 16 0 8 8 16 40
Neighs:        79213.3 ave      115080 max           0 min
Histogram: 8 4 4 0 10 6 8 8 24 32

Total # of neighbors = 8238180
Ave neighs/atom = 28.530395
Neighbor list builds = 0
Dangerous builds = 0
The dot product: 3.00359840256107e-08
Setting atom values ...
  1 settings made for x
  1 settings made for y
  1 settings made for z
Setting up cg style minimization ...
  Unit style    : metal
  Current step  : 5443
Per MPI rank memory allocation (min/avg/max) = 5.441 | 5.816 | 6.074 Mbytes
Step PotEng KinEng TotEng v_fx v_fy v_fz 
    5443   -1152448.9            0   -1152448.9 0.0033284418 -0.0015507384 -0.013329072 
    5575   -1152448.9            0   -1152448.9 4.4830629e-06 -1.3678093e-05 2.1641043e-05 
Loop time of 1.58126 on 104 procs for 132 steps with 288751 atoms

99.9% CPU use with 104 MPI tasks x 1 OpenMP threads

Minimization stats:
  Stopping criterion = energy tolerance
  Energy initial, next-to-last, final = 
     -1152448.85435594  -1152448.85627953  -1152448.85627953
  Force two-norm initial, final = 0.22332556 0.00024385003
  Force max component initial, final = 0.17820275 8.0481619e-05
  Final line search alpha, max atom move = 1.0000000 8.0481619e-05
  Iterations, force evaluations = 132 264

MPI task timing breakdown:
Section |  min time  |  avg time  |  max time  |%varavg| %total
---------------------------------------------------------------
Pair    | 0.40115    | 1.1192     | 1.4766     |  28.6 | 70.78
Neigh   | 0          | 0          | 0          |   0.0 |  0.00
Comm    | 0.023312   | 0.25828    | 0.77046    |  41.1 | 16.33
Output  | 0          | 0          | 0          |   0.0 |  0.00
Modify  | 1.6273e-05 | 0.0021824  | 0.0046784  |   2.2 |  0.14
Other   |            | 0.2015     |            |       | 12.75

Nlocal:        2776.45 ave        3945 max           0 min
Histogram: 8 4 4 0 4 12 8 2 26 36
Nghost:        3879.12 ave        5424 max         232 min
Histogram: 8 0 8 0 16 0 8 8 16 40
Neighs:        79213.3 ave      114941 max           0 min
Histogram: 8 4 4 0 10 6 8 8 22 34

Total # of neighbors = 8238179
Ave neighs/atom = 28.530391
Neighbor list builds = 0
Dangerous builds = 0
The dot product: -2.37752434278073e-08
Setting atom values ...
  1 settings made for x
  1 settings made for y
  1 settings made for z
Setting up cg style minimization ...
  Unit style    : metal
  Current step  : 5575
Per MPI rank memory allocation (min/avg/max) = 5.441 | 5.816 | 6.074 Mbytes
Step PotEng KinEng TotEng v_fx v_fy v_fz 
    5575   -1152448.8            0   -1152448.8 0.0025483192 -0.0013316468 -0.0096593646 
    5772   -1152448.8            0   -1152448.8 7.5742016e-06 -1.2359385e-05 -2.5143002e-07 
Loop time of 2.29294 on 104 procs for 197 steps with 288751 atoms

99.9% CPU use with 104 MPI tasks x 1 OpenMP threads

Minimization stats:
  Stopping criterion = energy tolerance
  Energy initial, next-to-last, final = 
     -1152448.82864345  -1152448.83067994  -1152448.83067994
  Force two-norm initial, final = 0.22805222 8.4932647e-05
  Force max component initial, final = 0.18056142 2.6392855e-05
  Final line search alpha, max atom move = 1.0000000 2.6392855e-05
  Iterations, force evaluations = 197 394

MPI task timing breakdown:
Section |  min time  |  avg time  |  max time  |%varavg| %total
---------------------------------------------------------------
Pair    | 0.59839    | 1.6524     | 2.1518     |  34.6 | 72.07
Neigh   | 0          | 0          | 0          |   0.0 |  0.00
Comm    | 0.035114   | 0.37381    | 1.1249     |  51.0 | 16.30
Output  | 0          | 0          | 0          |   0.0 |  0.00
Modify  | 2.5813e-05 | 0.0032558  | 0.0069774  |   2.7 |  0.14
Other   |            | 0.2635     |            |       | 11.49

Nlocal:        2776.45 ave        3941 max           0 min
Histogram: 8 4 4 0 4 12 8 2 26 36
Nghost:        3879.12 ave        5424 max         232 min
Histogram: 8 0 8 0 16 0 8 8 16 40
Neighs:        79213.2 ave      114803 max           0 min
Histogram: 8 4 4 0 10 6 8 8 22 34

Total # of neighbors = 8238176
Ave neighs/atom = 28.530381
Neighbor list builds = 0
Dangerous builds = 0
The dot product: -1.20640784216538e-08
Setting atom values ...
  1 settings made for x
  1 settings made for y
  1 settings made for z
Setting up cg style minimization ...
  Unit style    : metal
  Current step  : 5772
Per MPI rank memory allocation (min/avg/max) = 5.441 | 5.816 | 6.074 Mbytes
Step PotEng KinEng TotEng v_fx v_fy v_fz 
    5772   -1152448.8            0   -1152448.8 0.0021641346 -0.0012820422 -0.0077025465 
    5930   -1152448.8            0   -1152448.8 1.063921e-06 1.1824378e-05 -4.5853594e-05 
Loop time of 1.85566 on 104 procs for 158 steps with 288751 atoms

99.9% CPU use with 104 MPI tasks x 1 OpenMP threads

Minimization stats:
  Stopping criterion = energy tolerance
  Energy initial, next-to-last, final = 
     -1152448.80069711  -1152448.80283142  -1152448.80283142
  Force two-norm initial, final = 0.23253955 0.00021356636
  Force max component initial, final = 0.18272619 7.2397522e-05
  Final line search alpha, max atom move = 1.0000000 7.2397522e-05
  Iterations, force evaluations = 158 316

MPI task timing breakdown:
Section |  min time  |  avg time  |  max time  |%varavg| %total
---------------------------------------------------------------
Pair    | 0.483      | 1.3357     | 1.7493     |  31.1 | 71.98
Neigh   | 0          | 0          | 0          |   0.0 |  0.00
Comm    | 0.02746    | 0.30489    | 0.90777    |  45.5 | 16.43
Output  | 0          | 0          | 0          |   0.0 |  0.00
Modify  | 1.9501e-05 | 0.0026095  | 0.0055598  |   2.4 |  0.14
Other   |            | 0.2124     |            |       | 11.45

Nlocal:        2776.45 ave        3932 max           0 min
Histogram: 8 4 4 0 4 12 8 0 26 38
Nghost:        3879.12 ave        5424 max         232 min
Histogram: 8 0 8 0 16 0 8 8 16 40
Neighs:        79213.2 ave      114534 max           0 min
Histogram: 8 4 4 0 8 8 8 8 20 36

Total # of neighbors = 8238176
Ave neighs/atom = 28.530381
Neighbor list builds = 0
Dangerous builds = 0
The dot product: -6.3297966167064e-09
Setting atom values ...
  1 settings made for x
  1 settings made for y
  1 settings made for z
Setting up cg style minimization ...
  Unit style    : metal
  Current step  : 5930
Per MPI rank memory allocation (min/avg/max) = 5.441 | 5.816 | 6.074 Mbytes
Step PotEng KinEng TotEng v_fx v_fy v_fz 
    5930   -1152448.8            0   -1152448.8 0.0020661647 -0.0015083637 -0.0064331824 
    6000   -1152448.8            0   -1152448.8 -5.1322974e-05 0.00011403374 -9.905056e-05 
    6154   -1152448.8            0   -1152448.8 -1.4819065e-08 -6.0725772e-07 2.135679e-06 
Loop time of 2.59949 on 104 procs for 224 steps with 288751 atoms

99.9% CPU use with 104 MPI tasks x 1 OpenMP threads

Minimization stats:
  Stopping criterion = energy tolerance
  Energy initial, next-to-last, final = 
     -1152448.77043866  -1152448.77264922  -1152448.77264922
  Force two-norm initial, final = 0.23656793 4.3317237e-05
  Force max component initial, final = 0.18512445 1.1397397e-05
  Final line search alpha, max atom move = 1.0000000 1.1397397e-05
  Iterations, force evaluations = 224 448

MPI task timing breakdown:
Section |  min time  |  avg time  |  max time  |%varavg| %total
---------------------------------------------------------------
Pair    | 0.677      | 1.8796     | 2.4469     |  37.0 | 72.31
Neigh   | 0          | 0          | 0          |   0.0 |  0.00
Comm    | 0.038802   | 0.42245    | 1.2723     |  54.7 | 16.25
Output  | 0.00023004 | 0.00023804 | 0.00034543 |   0.0 |  0.01
Modify  | 2.7562e-05 | 0.0036931  | 0.007887   |   2.9 |  0.14
Other   |            | 0.2935     |            |       | 11.29

Nlocal:        2776.45 ave        3931 max           0 min
Histogram: 8 4 4 0 4 12 8 0 26 38
Nghost:        3879.12 ave        5424 max         232 min
Histogram: 8 0 8 0 16 0 8 8 16 40
Neighs:        79213.2 ave      114492 max           0 min
Histogram: 8 4 4 0 8 8 8 8 20 36

Total # of neighbors = 8238169
Ave neighs/atom = 28.530357
Neighbor list builds = 0
Dangerous builds = 0
The dot product: 6.11198291729246e-10
Setting atom values ...
  1 settings made for x
  1 settings made for y
  1 settings made for z
Setting up cg style minimization ...
  Unit style    : metal
  Current step  : 6154
Per MPI rank memory allocation (min/avg/max) = 5.441 | 5.816 | 6.074 Mbytes
Step PotEng KinEng TotEng v_fx v_fy v_fz 
    6154   -1152448.7            0   -1152448.7 0.0022062246 -0.0019225849 -0.0058642886 
    6315   -1152448.7            0   -1152448.7 -6.7708587e-06 6.3510573e-06 1.6469908e-05 
Loop time of 1.8914 on 104 procs for 161 steps with 288751 atoms

99.9% CPU use with 104 MPI tasks x 1 OpenMP threads

Minimization stats:
  Stopping criterion = energy tolerance
  Energy initial, next-to-last, final = 
     -1152448.73781603  -1152448.74007775  -1152448.74007775
  Force two-norm initial, final = 0.23971788 0.00020534939
  Force max component initial, final = 0.18738835 8.1448189e-05
  Final line search alpha, max atom move = 1.0000000 8.1448189e-05
  Iterations, force evaluations = 161 322

MPI task timing breakdown:
Section |  min time  |  avg time  |  max time  |%varavg| %total
---------------------------------------------------------------
Pair    | 0.48828    | 1.3563     | 1.7705     |  31.4 | 71.71
Neigh   | 0          | 0          | 0          |   0.0 |  0.00
Comm    | 0.026399   | 0.31209    | 0.94161    |  45.7 | 16.50
Output  | 0          | 0          | 0          |   0.0 |  0.00
Modify  | 2.0026e-05 | 0.0026604  | 0.0056418  |   2.4 |  0.14
Other   |            | 0.2203     |            |       | 11.65

Nlocal:        2776.45 ave        3930 max           0 min
Histogram: 8 4 4 0 4 12 8 0 26 38
Nghost:        3879.11 ave        5424 max         232 min
Histogram: 8 0 8 0 16 0 8 8 16 40
Neighs:        79213.1 ave      114457 max           0 min
Histogram: 8 4 4 0 8 8 8 8 20 36

Total # of neighbors = 8238166
Ave neighs/atom = 28.530346
Neighbor list builds = 0
Dangerous builds = 0
The dot product: 1.85907277937921e-08
Setting atom values ...
  1 settings made for x
  1 settings made for y
  1 settings made for z
Setting up cg style minimization ...
  Unit style    : metal
  Current step  : 6315
Per MPI rank memory allocation (min/avg/max) = 5.441 | 5.816 | 6.074 Mbytes
Step PotEng KinEng TotEng v_fx v_fy v_fz 
    6315   -1152448.7            0   -1152448.7 0.0024600122 -0.0024275967 -0.0056359696 
    6492   -1152448.7            0   -1152448.7 -4.78374e-06 7.2781812e-06 2.2556904e-06 
Loop time of 2.05562 on 104 procs for 177 steps with 288751 atoms

99.9% CPU use with 104 MPI tasks x 1 OpenMP threads

Minimization stats:
  Stopping criterion = energy tolerance
  Energy initial, next-to-last, final = 
     -1152448.70279719   -1152448.7050894   -1152448.7050894
  Force two-norm initial, final = 0.24213094 0.00024480656
  Force max component initial, final = 0.18965361 7.6210401e-05
  Final line search alpha, max atom move = 1.0000000 7.6210401e-05
  Iterations, force evaluations = 177 354

MPI task timing breakdown:
Section |  min time  |  avg time  |  max time  |%varavg| %total
---------------------------------------------------------------
Pair    | 0.53606    | 1.4869     | 1.9386     |  32.9 | 72.33
Neigh   | 0          | 0          | 0          |   0.0 |  0.00
Comm    | 0.030081   | 0.3355     | 1.0082     |  48.5 | 16.32
Output  | 0          | 0          | 0          |   0.0 |  0.00
Modify  | 2.1976e-05 | 0.0029229  | 0.006277   |   2.5 |  0.14
Other   |            | 0.2303     |            |       | 11.20

Nlocal:        2776.45 ave        3930 max           0 min
Histogram: 8 4 4 0 4 12 8 0 26 38
Nghost:        3879.09 ave        5424 max         232 min
Histogram: 8 0 8 0 16 0 8 8 16 40
Neighs:        79213.1 ave      114458 max           0 min
Histogram: 8 4 4 0 8 8 8 8 20 36

Total # of neighbors = 8238166
Ave neighs/atom = 28.530346
Neighbor list builds = 0
Dangerous builds = 0
The dot product: 8.20939107512198e-09
Setting atom values ...
  1 settings made for x
  1 settings made for y
  1 settings made for z
Setting up cg style minimization ...
  Unit style    : metal
  Current step  : 6492
Per MPI rank memory allocation (min/avg/max) = 5.441 | 5.816 | 6.074 Mbytes
Step PotEng KinEng TotEng v_fx v_fy v_fz 
    6492   -1152448.7            0   -1152448.7 0.0028738021 -0.0030292488 -0.0059916125 
    6680   -1152448.7            0   -1152448.7 1.0306353e-06 8.5239446e-07 -8.7789421e-06 
Loop time of 2.22477 on 104 procs for 188 steps with 288751 atoms

99.9% CPU use with 104 MPI tasks x 1 OpenMP threads

Minimization stats:
  Stopping criterion = energy tolerance
  Energy initial, next-to-last, final = 
     -1152448.66537439  -1152448.66767972  -1152448.66767972
  Force two-norm initial, final = 0.24408392 0.00015387571
  Force max component initial, final = 0.19205724 5.4980014e-05
  Final line search alpha, max atom move = 1.0000000 5.4980014e-05
  Iterations, force evaluations = 188 376

MPI task timing breakdown:
Section |  min time  |  avg time  |  max time  |%varavg| %total
---------------------------------------------------------------
Pair    | 0.56998    | 1.5839     | 2.095      |  33.9 | 71.19
Neigh   | 0          | 0          | 0          |   0.0 |  0.00
Comm    | 0.03233    | 0.36338    | 1.0725     |  49.0 | 16.33
Output  | 0          | 0          | 0          |   0.0 |  0.00
Modify  | 2.3677e-05 | 0.0031067  | 0.0066972  |   2.6 |  0.14
Other   |            | 0.2744     |            |       | 12.33

Nlocal:        2776.45 ave        3930 max           0 min
Histogram: 8 4 4 0 4 12 8 0 26 38
Nghost:        3879.07 ave        5424 max         232 min
Histogram: 8 0 8 0 16 0 8 8 16 40
Neighs:        79213.1 ave      114457 max           0 min
Histogram: 8 4 4 0 8 8 8 8 20 36

Total # of neighbors = 8238163
Ave neighs/atom = 28.530336
Neighbor list builds = 0
Dangerous builds = 0
The dot product: -6.8120415007621e-09
Setting atom values ...
  1 settings made for x
  1 settings made for y
  1 settings made for z
Setting up cg style minimization ...
  Unit style    : metal
  Current step  : 6680
Per MPI rank memory allocation (min/avg/max) = 5.441 | 5.816 | 6.074 Mbytes
Step PotEng KinEng TotEng v_fx v_fy v_fz 
    6680   -1152448.6            0   -1152448.6 0.0034121361 -0.0037515315 -0.0066575649 
    6832   -1152448.6            0   -1152448.6 1.2411319e-06 2.0145835e-06 -1.404039e-05 
Loop time of 1.76922 on 104 procs for 152 steps with 288751 atoms

99.9% CPU use with 104 MPI tasks x 1 OpenMP threads

[...]
Nghost:        3879.16 ave        5425 max         232 min
Histogram: 8 0 8 0 16 0 8 8 16 40
Neighs:        79213.4 ave      115361 max           0 min
Histogram: 8 4 4 0 10 6 8 8 24 32

Total # of neighbors = 8238189
Ave neighs/atom = 28.530426
Neighbor list builds = 0
Dangerous builds = 0
The dot product: -3.11348708401458e-08
Setting atom values ...
  1 settings made for x
  1 settings made for y
  1 settings made for z
Setting up cg style minimization ...
  Unit style    : metal
  Current step  : 19858
Per MPI rank memory allocation (min/avg/max) = 5.441 | 5.816 | 6.074 Mbytes
Step PotEng KinEng TotEng v_fx v_fy v_fz 
   19858   -1152449.3            0   -1152449.3 -0.018668851  0.026764879 -0.023841465 
   20000   -1152449.3            0   -1152449.3 -6.9868536e-05 3.784796e-05 -8.1505218e-05 
   20036   -1152449.3            0   -1152449.3 -1.0094458e-05 -5.3862042e-07 -1.1031412e-05 
Loop time of 2.07857 on 104 procs for 178 steps with 288751 atoms

99.9% CPU use with 104 MPI tasks x 1 OpenMP threads

Minimization stats:
  Stopping criterion = energy tolerance
  Energy initial, next-to-last, final = 
     -1152449.26891642  -1152449.26986367  -1152449.26986367
  Force two-norm initial, final = 0.13379731 0.00014860206
  Force max component initial, final = 0.049774039 1.7962422e-05
  Final line search alpha, max atom move = 1.0000000 1.7962422e-05
  Iterations, force evaluations = 178 356

MPI task timing breakdown:
Section |  min time  |  avg time  |  max time  |%varavg| %total
---------------------------------------------------------------
Pair    | 0.53921    | 1.4957     | 1.9523     |  33.1 | 71.96
Neigh   | 0          | 0          | 0          |   0.0 |  0.00
Comm    | 0.032744   | 0.33797    | 1.0024     |  48.5 | 16.26
Output  | 0.00016045 | 0.00017102 | 0.00032451 |   0.0 |  0.01
Modify  | 2.1655e-05 | 0.0029435  | 0.0062872  |   2.6 |  0.14
Other   |            | 0.2418     |            |       | 11.63

Nlocal:        2776.45 ave        3960 max           0 min
Histogram: 8 4 4 0 4 12 8 4 26 34
Nghost:        3879.16 ave        5424 max         232 min
Histogram: 8 0 8 0 16 0 8 8 16 40
Neighs:        79213.4 ave      115361 max           0 min
Histogram: 8 4 4 0 10 6 8 8 24 32

Total # of neighbors = 8238190
Ave neighs/atom = 28.530429
Neighbor list builds = 0
Dangerous builds = 0
The dot product: 2.10234028453442e-08
Setting atom values ...
  1 settings made for x
  1 settings made for y
  1 settings made for z
Setting up cg style minimization ...
  Unit style    : metal
  Current step  : 20036
Per MPI rank memory allocation (min/avg/max) = 5.441 | 5.816 | 6.074 Mbytes
Step PotEng KinEng TotEng v_fx v_fy v_fz 
   20036   -1152449.3            0   -1152449.3  -0.02032976  0.023738604 -0.025349266 
   20259   -1152449.3            0   -1152449.3 5.1399128e-06 -2.1689166e-06 5.9297106e-06 
Loop time of 2.61269 on 104 procs for 223 steps with 288751 atoms

99.9% CPU use with 104 MPI tasks x 1 OpenMP threads

Minimization stats:
  Stopping criterion = energy tolerance
  Energy initial, next-to-last, final = 
     -1152449.25336329  -1152449.25428971  -1152449.25428971
  Force two-norm initial, final = 0.13318986 2.5427932e-05
  Force max component initial, final = 0.04892366 5.9297106e-06
  Final line search alpha, max atom move = 1.0000000 5.9297106e-06
  Iterations, force evaluations = 223 446

MPI task timing breakdown:
Section |  min time  |  avg time  |  max time  |%varavg| %total
---------------------------------------------------------------
Pair    | 0.67423    | 1.8804     | 2.452      |  37.2 | 71.97
Neigh   | 0          | 0          | 0          |   0.0 |  0.00
Comm    | 0.042375   | 0.42767    | 1.2545     |  53.7 | 16.37
Output  | 0          | 0          | 0          |   0.0 |  0.00
Modify  | 2.7721e-05 | 0.0036829  | 0.0079214  |   2.9 |  0.14
Other   |            | 0.3009     |            |       | 11.52

Nlocal:        2776.45 ave        3960 max           0 min
Histogram: 8 4 4 0 4 12 8 4 26 34
Nghost:        3879.11 ave        5424 max         232 min
Histogram: 8 0 8 0 16 0 8 8 16 40
Neighs:        79213.4 ave      115352 max           0 min
Histogram: 8 4 4 0 10 6 8 8 24 32

Total # of neighbors = 8238190
Ave neighs/atom = 28.530429
Neighbor list builds = 0
Dangerous builds = 0
The dot product: -1.57063464085524e-08
Setting atom values ...
  1 settings made for x
  1 settings made for y
  1 settings made for z
Setting up cg style minimization ...
  Unit style    : metal
  Current step  : 20259
Per MPI rank memory allocation (min/avg/max) = 5.441 | 5.816 | 6.074 Mbytes
Step PotEng KinEng TotEng v_fx v_fy v_fz 
   20259   -1152449.2            0   -1152449.2 -0.022765633  0.020799577 -0.027721499 
   20432   -1152449.2            0   -1152449.2 2.0417641e-05 -2.0147431e-05 2.5050612e-05 
Loop time of 2.01325 on 104 procs for 173 steps with 288751 atoms

99.9% CPU use with 104 MPI tasks x 1 OpenMP threads

Minimization stats:
  Stopping criterion = energy tolerance
  Energy initial, next-to-last, final = 
     -1152449.23627097  -1152449.23717314  -1152449.23717314
  Force two-norm initial, final = 0.13294924 0.00018365873
  Force max component initial, final = 0.048871276 3.3880049e-05
  Final line search alpha, max atom move = 1.0000000 3.3880049e-05
  Iterations, force evaluations = 173 346

MPI task timing breakdown:
Section |  min time  |  avg time  |  max time  |%varavg| %total
---------------------------------------------------------------
Pair    | 0.5237     | 1.453      | 1.8924     |  32.6 | 72.17
Neigh   | 0          | 0          | 0          |   0.0 |  0.00
Comm    | 0.0308     | 0.32726    | 0.97314    |  47.8 | 16.26
Output  | 0          | 0          | 0          |   0.0 |  0.00
Modify  | 2.1553e-05 | 0.0028597  | 0.0061299  |   2.5 |  0.14
Other   |            | 0.2301     |            |       | 11.43

Nlocal:        2776.45 ave        3960 max           0 min
Histogram: 8 4 4 0 4 12 8 4 26 34
Nghost:        3879.11 ave        5424 max         232 min
Histogram: 8 0 8 0 16 0 8 8 16 40
Neighs:        79213.4 ave      115367 max           0 min
Histogram: 8 4 4 0 10 6 8 8 24 32

Total # of neighbors = 8238189
Ave neighs/atom = 28.530426
Neighbor list builds = 0
Dangerous builds = 0
The dot product: -8.81576337921581e-08
Setting atom values ...
  1 settings made for x
  1 settings made for y
  1 settings made for z
Setting up cg style minimization ...
  Unit style    : metal
  Current step  : 20432
Per MPI rank memory allocation (min/avg/max) = 5.441 | 5.816 | 6.074 Mbytes
Step PotEng KinEng TotEng v_fx v_fy v_fz 
   20432   -1152449.2            0   -1152449.2 -0.026241737  0.018240368 -0.031299192 
   20693   -1152449.2            0   -1152449.2 -9.9744583e-08 -6.3619871e-07 -2.9350051e-08 
Loop time of 3.06839 on 104 procs for 261 steps with 288751 atoms

99.9% CPU use with 104 MPI tasks x 1 OpenMP threads

Minimization stats:
  Stopping criterion = energy tolerance
  Energy initial, next-to-last, final = 
     -1152449.21767866  -1152449.21855599  -1152449.21855599
  Force two-norm initial, final = 0.13342387 4.1580257e-06
  Force max component initial, final = 0.048759882 6.3619871e-07
  Final line search alpha, max atom move = 1.0000000 6.3619871e-07
  Iterations, force evaluations = 261 522

MPI task timing breakdown:
Section |  min time  |  avg time  |  max time  |%varavg| %total
---------------------------------------------------------------
Pair    | 0.79081    | 2.1986     | 2.8778     |  40.2 | 71.65
Neigh   | 0          | 0          | 0          |   0.0 |  0.00
Comm    | 0.044682   | 0.50395    | 1.4814     |  57.7 | 16.42
Output  | 0          | 0          | 0          |   0.0 |  0.00
Modify  | 3.2114e-05 | 0.0043127  | 0.0092585  |   3.1 |  0.14
Other   |            | 0.3616     |            |       | 11.78

Nlocal:        2776.45 ave        3960 max           0 min
Histogram: 8 4 4 0 4 12 8 4 26 34
Nghost:        3879.11 ave        5424 max         232 min
Histogram: 8 0 8 0 16 0 8 8 16 40
Neighs:        79213.4 ave      115374 max           0 min
Histogram: 8 4 4 0 10 6 8 8 24 32

Total # of neighbors = 8238189
Ave neighs/atom = 28.530426
Neighbor list builds = 0
Dangerous builds = 0
The dot product: -4.85177373092451e-10
Setting atom values ...
  1 settings made for x
  1 settings made for y
  1 settings made for z
Setting up cg style minimization ...
  Unit style    : metal
  Current step  : 20693
Per MPI rank memory allocation (min/avg/max) = 5.441 | 5.816 | 6.074 Mbytes
Step PotEng KinEng TotEng v_fx v_fy v_fz 
   20693   -1152449.2            0   -1152449.2 -0.031749147  0.015883065 -0.037175683 
   20882   -1152449.2            0   -1152449.2 2.1742917e-05 9.6115308e-06 2.2838369e-05 
Loop time of 2.20991 on 104 procs for 189 steps with 288751 atoms

99.9% CPU use with 104 MPI tasks x 1 OpenMP threads

Minimization stats:
  Stopping criterion = energy tolerance
  Energy initial, next-to-last, final = 
     -1152449.19768427  -1152449.19854884  -1152449.19854884
  Force two-norm initial, final = 0.13547016 0.0001071581
  Force max component initial, final = 0.050939971 2.4817036e-05
  Final line search alpha, max atom move = 1.0000000 2.4817036e-05
  Iterations, force evaluations = 189 378

MPI task timing breakdown:
Section |  min time  |  avg time  |  max time  |%varavg| %total
---------------------------------------------------------------
Pair    | 0.57329    | 1.5885     | 2.0705     |  34.1 | 71.88
Neigh   | 0          | 0          | 0          |   0.0 |  0.00
Comm    | 0.036563   | 0.35946    | 1.0659     |  49.9 | 16.27
Output  | 0          | 0          | 0          |   0.0 |  0.00
Modify  | 2.3096e-05 | 0.003128   | 0.0066564  |   2.6 |  0.14
Other   |            | 0.2588     |            |       | 11.71

Nlocal:        2776.45 ave        3960 max           0 min
Histogram: 8 4 4 0 4 12 8 4 26 34
Nghost:        3879.15 ave        5424 max         232 min
Histogram: 8 0 8 0 16 0 8 8 16 40
Neighs:        79213.3 ave      115374 max           0 min
Histogram: 8 4 4 0 10 6 8 8 24 32

Total # of neighbors = 8238188
Ave neighs/atom = 28.530422
Neighbor list builds = 0
Dangerous builds = 0
The dot product: -1.1493600311063e-07
Setting atom values ...
  1 settings made for x
  1 settings made for y
  1 settings made for z
Setting up cg style minimization ...
  Unit style    : metal
  Current step  : 20882
Per MPI rank memory allocation (min/avg/max) = 5.441 | 5.816 | 6.074 Mbytes
Step PotEng KinEng TotEng v_fx v_fy v_fz 
   20882   -1152449.2            0   -1152449.2 -0.041372139   0.01310685 -0.047645421 
   21000   -1152449.2            0   -1152449.2 0.0024521528 0.00015465563 0.0027039341 
   21153   -1152449.2            0   -1152449.2 -1.32293e-05 -4.2936309e-06 -1.4141869e-05 
Loop time of 3.18968 on 104 procs for 271 steps with 288751 atoms

99.9% CPU use with 104 MPI tasks x 1 OpenMP threads

Minimization stats:
  Stopping criterion = energy tolerance
  Energy initial, next-to-last, final = 
     -1152449.17655937  -1152449.24747644  -1152449.24747644
  Force two-norm initial, final = 0.14183626 8.5448094e-05
  Force max component initial, final = 0.053977611 1.9298649e-05
  Final line search alpha, max atom move = 1.0000000 1.9298649e-05
  Iterations, force evaluations = 271 542

MPI task timing breakdown:
Section |  min time  |  avg time  |  max time  |%varavg| %total
---------------------------------------------------------------
Pair    | 0.82899    | 2.285      | 2.9838     |  40.7 | 71.64
Neigh   | 1.0335e-05 | 0.0029258  | 0.004327   |   2.2 |  0.09
Comm    | 0.057189   | 0.5231     | 1.5325     |  59.2 | 16.40
Output  | 0.00024658 | 0.00025788 | 0.00041031 |   0.0 |  0.01
Modify  | 3.3704e-05 | 0.0044731  | 0.0095816  |   3.2 |  0.14
Other   |            | 0.3739     |            |       | 11.72

Nlocal:        2776.45 ave        3960 max           0 min
Histogram: 8 4 4 0 4 12 8 4 26 34
Nghost:        3879.16 ave        5424 max         232 min
Histogram: 8 0 8 0 16 0 8 8 16 40
Neighs:        79213.3 ave      115374 max           0 min
Histogram: 8 4 4 0 10 6 8 8 24 32

Total # of neighbors = 8238184
Ave neighs/atom = 28.530409
Neighbor list builds = 1
Dangerous builds = 0
The dot product: 3.38699765853528e-06
Setting atom values ...
  1 settings made for x
  1 settings made for y
  1 settings made for z
Setting up cg style minimization ...
  Unit style    : metal
  Current step  : 21153
Per MPI rank memory allocation (min/avg/max) = 5.441 | 5.816 | 6.074 Mbytes
Step PotEng KinEng TotEng v_fx v_fy v_fz 
   21153   -1152449.2            0   -1152449.2 -0.017073195 -0.048999153 -0.013851114 
   21407   -1152449.3            0   -1152449.3 1.1841101e-05 -1.8845741e-06 1.5810071e-05 
Loop time of 2.94901 on 104 procs for 254 steps with 288751 atoms

99.9% CPU use with 104 MPI tasks x 1 OpenMP threads

Minimization stats:
  Stopping criterion = energy tolerance
  Energy initial, next-to-last, final = 
     -1152449.24882715  -1152449.28881984  -1152449.28881984
  Force two-norm initial, final = 0.14400612 6.1627596e-05
  Force max component initial, final = 0.061740363 1.5810071e-05
  Final line search alpha, max atom move = 1.0000000 1.5810071e-05
  Iterations, force evaluations = 254 507

MPI task timing breakdown:
Section |  min time  |  avg time  |  max time  |%varavg| %total
---------------------------------------------------------------
Pair    | 0.77009    | 2.1283     | 2.7732     |  39.4 | 72.17
Neigh   | 1.0315e-05 | 0.0029389  | 0.0043516  |   2.2 |  0.10
Comm    | 0.048018   | 0.48041    | 1.4234     |  57.9 | 16.29
Output  | 0          | 0          | 0          |   0.0 |  0.00
Modify  | 3.019e-05  | 0.0041862  | 0.008943   |   3.0 |  0.14
Other   |            | 0.3331     |            |       | 11.30

Nlocal:        2776.45 ave        3960 max           0 min
Histogram: 8 4 4 0 4 12 8 2 28 34
Nghost:        3879.11 ave        5423 max         232 min
Histogram: 8 0 8 0 16 0 8 8 16 40
Neighs:        79213.4 ave      115363 max           0 min
Histogram: 8 4 4 0 10 6 8 8 24 32

Total # of neighbors = 8238189
Ave neighs/atom = 28.530426
Neighbor list builds = 1
Dangerous builds = 0
The dot product: -1.35725420782836e-06
Setting atom values ...
  1 settings made for x
  1 settings made for y
  1 settings made for z
Setting up cg style minimization ...
  Unit style    : metal
  Current step  : 21407
Per MPI rank memory allocation (min/avg/max) = 5.441 | 5.816 | 6.074 Mbytes
Step PotEng KinEng TotEng v_fx v_fy v_fz 
   21407   -1152449.3            0   -1152449.3 0.0047093139 -0.020586158 0.0089773626 
   21576   -1152449.3            0   -1152449.3 -6.4010337e-06 -3.2952021e-05 -5.1608186e-06 
Loop time of 1.98264 on 104 procs for 169 steps with 288751 atoms

99.9% CPU use with 104 MPI tasks x 1 OpenMP threads

Minimization stats:
  Stopping criterion = energy tolerance
  Energy initial, next-to-last, final = 
     -1152449.29986133  -1152449.30089658  -1152449.30089658
  Force two-norm initial, final = 0.13283727 0.00021782763
  Force max component initial, final = 0.055717459 4.4998887e-05
  Final line search alpha, max atom move = 1.0000000 4.4998887e-05
  Iterations, force evaluations = 169 338

MPI task timing breakdown:
Section |  min time  |  avg time  |  max time  |%varavg| %total
---------------------------------------------------------------
Pair    | 0.5128     | 1.4245     | 1.8597     |  32.4 | 71.85
Neigh   | 0          | 0          | 0          |   0.0 |  0.00
Comm    | 0.032949   | 0.32621    | 0.9551     |  46.7 | 16.45
Output  | 0          | 0          | 0          |   0.0 |  0.00
Modify  | 2.133e-05  | 0.0027989  | 0.0059673  |   2.5 |  0.14
Other   |            | 0.2291     |            |       | 11.55

Nlocal:        2776.45 ave        3960 max           0 min
Histogram: 8 4 4 0 4 12 8 2 28 34
Nghost:        3879.03 ave        5423 max         232 min
Histogram: 8 0 8 0 16 0 8 8 16 40
Neighs:        79213.4 ave      115346 max           0 min
Histogram: 8 4 4 0 10 6 8 8 24 32

Total # of neighbors = 8238192
Ave neighs/atom = 28.530436
Neighbor list builds = 0
Dangerous builds = 0
The dot product: -1.17279214866938e-07
Setting atom values ...
  1 settings made for x
  1 settings made for y
  1 settings made for z
Setting up cg style minimization ...
  Unit style    : metal
  Current step  : 21576
Per MPI rank memory allocation (min/avg/max) = 5.441 | 5.816 | 6.074 Mbytes
Step PotEng KinEng TotEng v_fx v_fy v_fz 
   21576   -1152449.3            0   -1152449.3 -0.0086620589 -0.047920951 -0.0064775225 
   21896   -1152449.3            0   -1152449.3 5.4062015e-09 1.1793574e-09 7.4138345e-09 
Loop time of 3.72757 on 104 procs for 320 steps with 288751 atoms

99.9% CPU use with 104 MPI tasks x 1 OpenMP threads

Minimization stats:
  Stopping criterion = energy tolerance
  Energy initial, next-to-last, final = 
     -1152449.31030222  -1152449.31133872  -1152449.31133872
  Force two-norm initial, final = 0.14118405 5.1113214e-07
  Force max component initial, final = 0.058327716 2.2551831e-08
  Final line search alpha, max atom move = 1.0000000 2.2551831e-08
  Iterations, force evaluations = 320 640

MPI task timing breakdown:
Section |  min time  |  avg time  |  max time  |%varavg| %total
---------------------------------------------------------------
Pair    | 0.97335    | 2.6893     | 3.5068     |  44.2 | 72.15
Neigh   | 0          | 0          | 0          |   0.0 |  0.00
Comm    | 0.05989    | 0.60752    | 1.7978     |  64.9 | 16.30
Output  | 0          | 0          | 0          |   0.0 |  0.00
Modify  | 3.9231e-05 | 0.0052847  | 0.011325   |   3.4 |  0.14
Other   |            | 0.4254     |            |       | 11.41

Nlocal:        2776.45 ave        3960 max           0 min
Histogram: 8 4 4 0 4 12 8 2 28 34
Nghost:        3879.03 ave        5423 max         232 min
Histogram: 8 0 8 0 16 0 8 8 16 40
Neighs:        79213.4 ave      115346 max           0 min
Histogram: 8 4 4 0 10 6 8 8 24 32

Total # of neighbors = 8238192
Ave neighs/atom = 28.530436
Neighbor list builds = 0
Dangerous builds = 0
The dot product: -8.66943564429863e-12
Setting up cg style minimization ...
  Unit style    : metal
  Current step  : 21896
Per MPI rank memory allocation (min/avg/max) = 5.441 | 5.816 | 6.074 Mbytes
Step PotEng KinEng TotEng v_fx v_fy v_fz 
   21896   -1152449.3            0   -1152449.3   -0.3925647   0.03297389   0.28101463 
   22000   -1152449.3            0   -1152449.3 0.0003882007 5.042352e-05 0.00073231903 
   22120   -1152449.3            0   -1152449.3 7.0453403e-06 4.8334956e-07 3.0543898e-05 
Loop time of 2.62371 on 104 procs for 224 steps with 288751 atoms

99.9% CPU use with 104 MPI tasks x 1 OpenMP threads

Minimization stats:
  Stopping criterion = energy tolerance
  Energy initial, next-to-last, final = 
     -1152449.31133872  -1152449.34247308  -1152449.34247308
  Force two-norm initial, final = 0.48390448 0.00018495418
  Force max component initial, final = 0.3925647 4.9790158e-05
  Final line search alpha, max atom move = 1.0000000 4.9790158e-05
  Iterations, force evaluations = 224 448

MPI task timing breakdown:
Section |  min time  |  avg time  |  max time  |%varavg| %total
---------------------------------------------------------------
Pair    | 0.68283    | 1.8864     | 2.4616     |  37.1 | 71.90
Neigh   | 1.0262e-05 | 0.0029396  | 0.0043387  |   2.2 |  0.11
Comm    | 0.043068   | 0.43003    | 1.2487     |  53.6 | 16.39
Output  | 0.00017564 | 0.00018325 | 0.00034534 |   0.0 |  0.01
Modify  | 2.6239e-05 | 0.0024125  | 0.0062022  |   3.1 |  0.09
Other   |            | 0.3017     |            |       | 11.50

Nlocal:        2776.45 ave        3960 max           0 min
Histogram: 8 4 4 0 4 12 8 2 28 34
Nghost:        3879.03 ave        5423 max         232 min
Histogram: 8 0 8 0 16 0 8 8 16 40
Neighs:        79213.4 ave      115354 max           0 min
Histogram: 8 4 4 0 10 6 8 8 24 32

Total # of neighbors = 8238196
Ave neighs/atom = 28.530450
Neighbor list builds = 1
Dangerous builds = 0
