LAMMPS (29 Oct 2020)
OMP_NUM_THREADS environment is not set. Defaulting to 1 thread. (../comm.cpp:94)
  using 1 OpenMP thread(s) per MPI task
Reading data file ...
  orthogonal box = (-122.39241 -121.13707 -37.090501) to (122.39241 121.13707 37.090501)
  13 by 4 by 1 MPI processor grid
  reading atoms ...
  288751 atoms
  read_data CPU = 0.441 seconds
199981 atoms in group inner
88770 atoms in group outer
1 atoms in group carbon
Neighbor list info ...
  update every 1 steps, delay 0 steps, check yes
  max neighbors/atom: 2000, page size: 100000
  master list distance cutoff = 5.6
  ghost atom cutoff = 5.6
  binsize = 2.8, bins = 88 87 27
  1 neighbor lists, perpetual/occasional/extra = 1 0 0
  (1) pair eam/alloy, perpetual
      attributes: half, newton on
      pair build: half/bin/atomonly/newton
      stencil: half/bin/3d/newton
      bin: standard
Setting up cg style minimization ...
  Unit style    : metal
  Current step  : 0
Per MPI rank memory allocation (min/avg/max) = 5.465 | 6.344 | 6.728 Mbytes
Step v_fx v_fy v_fz PotEng KinEng TotEng 
       0  -0.37454372  -0.47643386    0.6219239   -1152447.8            0   -1152447.8 
     171 5.2443435e-06 -9.9421901e-07 1.9362132e-05   -1152449.5            0   -1152449.5 
Loop time of 3.85832 on 52 procs for 171 steps with 288751 atoms

99.9% CPU use with 52 MPI tasks x 1 OpenMP threads

Minimization stats:
  Stopping criterion = linesearch alpha is zero
  Energy initial, next-to-last, final = 
     -1152447.84445693  -1152449.45035285  -1152449.45035285
  Force two-norm initial, final = 9.8199553 6.5254673e-05
  Force max component initial, final = 5.3147160 1.9362132e-05
  Final line search alpha, max atom move = 0.5 9.6810661e-06
  Iterations, force evaluations = 171 344

MPI task timing breakdown:
Section |  min time  |  avg time  |  max time  |%varavg| %total
---------------------------------------------------------------
Pair    | 0.99365    | 2.7622     | 3.6151     |  45.6 | 71.59
Neigh   | 4.2613e-05 | 0.012899   | 0.019532   |   4.9 |  0.33
Comm    | 0.057071   | 0.62399    | 1.95       |  69.8 | 16.17
Output  | 0          | 0          | 0          |   0.0 |  0.00
Modify  | 6.1665e-05 | 0.0037631  | 0.0095657  |   3.8 |  0.10
Other   |            | 0.4555     |            |       | 11.81

Nlocal:        5552.90 ave        7910 max           0 min
Histogram: 4 2 2 0 2 6 4 0 15 17
Nghost:        6213.58 ave        8769 max         412 min
Histogram: 4 0 4 0 8 0 4 5 7 20
Neighs:       158427.0 ave      230561 max           0 min
Histogram: 4 2 2 0 5 3 4 4 12 16

Total # of neighbors = 8238222
Ave neighs/atom = 28.530540
Neighbor list builds = 2
Dangerous builds = 0
2.34 2.01 -36.51 2.34285067366551 2.01217771165507 -36.5054658442117
Total wall time: 0:00:04
