LAMMPS (29 Oct 2020)
OMP_NUM_THREADS environment is not set. Defaulting to 1 thread. (../comm.cpp:94)
  using 1 OpenMP thread(s) per MPI task
OMP_NUM_THREADS environment is not set. Defaulting to 1 thread. (../comm.cpp:94)
  using 1 OpenMP thread(s) per MPI task
Reading data file ...
  orthogonal box = (-122.39241 -121.13707 -37.090501) to (122.39241 121.13707 37.090501)
  13 by 4 by 2 MPI processor grid
  reading atoms ...
  288751 atoms
  read_data CPU = 0.373 seconds
199981 atoms in group inner
88770 atoms in group outer
1 atoms in group carbon
Neighbor list info ...
  update every 1 steps, delay 0 steps, check yes
  max neighbors/atom: 2000, page size: 100000
  master list distance cutoff = 5.6
  ghost atom cutoff = 5.6
  binsize = 2.8, bins = 88 87 27
  1 neighbor lists, perpetual/occasional/extra = 1 0 0
  (1) pair eam/alloy, perpetual
      attributes: half, newton on
      pair build: half/bin/atomonly/newton
      stencil: half/bin/3d/newton
      bin: standard
Setting up cg style minimization ...
  Unit style    : metal
  Current step  : 0
Per MPI rank memory allocation (min/avg/max) = 5.441 | 5.816 | 6.074 Mbytes
Step v_fx v_fy v_fz PotEng KinEng TotEng 
       0    0.1156952   -29.566347    49.654402   -1152433.6            0   -1152433.6 
     207 2.2733962e-06 2.8990668e-06 3.4999651e-06   -1152449.5            0   -1152449.5 
Loop time of 2.47788 on 104 procs for 207 steps with 288751 atoms

99.8% CPU use with 104 MPI tasks x 1 OpenMP threads

Minimization stats:
  Stopping criterion = energy tolerance
  Energy initial, next-to-last, final = 
     -1152433.55785867  -1152449.45035272  -1152449.45035272
  Force two-norm initial, final = 86.724449 2.6315530e-05
  Force max component initial, final = 56.866845 6.5007032e-06
  Final line search alpha, max atom move = 1.0000000 6.5007032e-06
  Iterations, force evaluations = 207 406

MPI task timing breakdown:
Section |  min time  |  avg time  |  max time  |%varavg| %total
---------------------------------------------------------------
Pair    | 0.63369    | 1.7206     | 2.2525     |  35.0 | 69.44
Neigh   | 5.1203e-05 | 0.014678   | 0.021144   |   5.0 |  0.59
Comm    | 0.046093   | 0.40148    | 1.1597     |  49.6 | 16.20
Output  | 0          | 0          | 0          |   0.0 |  0.00
Modify  | 2.4062e-05 | 0.0022106  | 0.005651   |   2.9 |  0.09
Other   |            | 0.3389     |            |       | 13.68

Nlocal:        2776.45 ave        3959 max           0 min
Histogram: 8 4 4 0 4 12 8 2 28 34
Nghost:        3879.03 ave        5425 max         232 min
Histogram: 8 0 8 0 16 0 8 8 16 40
Neighs:        79213.5 ave      115415 max           0 min
Histogram: 8 4 4 0 10 6 8 8 24 32

Total # of neighbors = 8238207
Ave neighs/atom = 28.530488
Neighbor list builds = 5
Dangerous builds = 0
Setting atom values ...
  1 settings made for x
  1 settings made for y
  1 settings made for z
Setting up cg style minimization ...
  Unit style    : metal
  Current step  : 207
Per MPI rank memory allocation (min/avg/max) = 5.441 | 5.816 | 6.074 Mbytes
Step PotEng KinEng TotEng v_fx v_fy v_fz 
     207   -1152449.4            0   -1152449.4 -0.0077692704 0.0064503816  0.001223213 
     340   -1152449.5            0   -1152449.5 -6.331536e-06 -7.870598e-06 -4.0915454e-05 
Loop time of 1.58349 on 104 procs for 133 steps with 288751 atoms

99.9% CPU use with 104 MPI tasks x 1 OpenMP threads

Minimization stats:
  Stopping criterion = energy tolerance
  Energy initial, next-to-last, final = 
     -1152449.44945347  -1152449.45006286  -1152449.45006286
  Force two-norm initial, final = 0.11541203 0.00014118517
  Force max component initial, final = 0.051733414 4.0915454e-05
  Final line search alpha, max atom move = 1.0000000 4.0915454e-05
  Iterations, force evaluations = 133 266

MPI task timing breakdown:
Section |  min time  |  avg time  |  max time  |%varavg| %total
---------------------------------------------------------------
Pair    | 0.40031    | 1.1274     | 1.4661     |  28.9 | 71.20
Neigh   | 0          | 0          | 0          |   0.0 |  0.00
Comm    | 0.02652    | 0.25754    | 0.75789    |  41.5 | 16.26
Output  | 0          | 0          | 0          |   0.0 |  0.00
Modify  | 1.9059e-05 | 0.0022115  | 0.0047566  |   2.2 |  0.14
Other   |            | 0.1963     |            |       | 12.40

Nlocal:        2776.45 ave        3960 max           0 min
Histogram: 8 4 4 0 4 12 8 2 28 34
Nghost:        3879.03 ave        5424 max         232 min
Histogram: 8 0 8 0 16 0 8 8 16 40
Neighs:        79213.4 ave      115447 max           0 min
Histogram: 8 4 4 0 10 6 8 8 24 32

Total # of neighbors = 8238198
Ave neighs/atom = 28.530457
Neighbor list builds = 0
Dangerous builds = 0
Setting atom values ...
  1 settings made for x
  1 settings made for y
  1 settings made for z
Setting up cg style minimization ...
  Unit style    : metal
  Current step  : 340
Per MPI rank memory allocation (min/avg/max) = 5.441 | 5.816 | 6.074 Mbytes
Step PotEng KinEng TotEng v_fx v_fy v_fz 
     340   -1152449.4            0   -1152449.4 -0.018708008   0.01806277 0.0026231844 
     519   -1152449.4            0   -1152449.4 3.2982919e-07 1.079672e-06 5.4337995e-06 
Loop time of 2.12082 on 104 procs for 179 steps with 288751 atoms

99.8% CPU use with 104 MPI tasks x 1 OpenMP threads

Minimization stats:
  Stopping criterion = energy tolerance
  Energy initial, next-to-last, final = 
     -1152449.44670622  -1152449.44838214  -1152449.44838214
  Force two-norm initial, final = 0.19211293 8.4172477e-05
  Force max component initial, final = 0.08008545 5.4337995e-06
  Final line search alpha, max atom move = 1.0000000 5.4337995e-06
  Iterations, force evaluations = 179 358

MPI task timing breakdown:
Section |  min time  |  avg time  |  max time  |%varavg| %total
---------------------------------------------------------------
Pair    | 0.53718    | 1.5055     | 1.9746     |  33.3 | 70.99
Neigh   | 0          | 0          | 0          |   0.0 |  0.00
Comm    | 0.036632   | 0.34477    | 1.0136     |  47.7 | 16.26
Output  | 0          | 0          | 0          |   0.0 |  0.00
Modify  | 2.0582e-05 | 0.0029659  | 0.0063378  |   2.6 |  0.14
Other   |            | 0.2675     |            |       | 12.62

Nlocal:        2776.45 ave        3960 max           0 min
Histogram: 8 4 4 0 4 12 8 2 28 34
Nghost:        3879.03 ave        5427 max         232 min
Histogram: 8 0 8 0 16 0 8 8 16 40
Neighs:        79213.5 ave      115450 max           0 min
Histogram: 8 4 4 0 10 6 8 8 24 32

Total # of neighbors = 8238199
Ave neighs/atom = 28.530461
Neighbor list builds = 0
Dangerous builds = 0
The dot product: -7.02269739419457e-09
Setting atom values ...
  1 settings made for x
  1 settings made for y
  1 settings made for z
Setting up cg style minimization ...
  Unit style    : metal
  Current step  : 519
Per MPI rank memory allocation (min/avg/max) = 5.441 | 5.816 | 6.074 Mbytes
Step PotEng KinEng TotEng v_fx v_fy v_fz 
     519   -1152449.4            0   -1152449.4  -0.02359641  0.026758393 0.0026901849 
     625   -1152449.4            0   -1152449.4 -2.4458286e-06 -1.0872665e-06 -1.8488469e-05 
Loop time of 1.27013 on 104 procs for 106 steps with 288751 atoms

99.9% CPU use with 104 MPI tasks x 1 OpenMP threads

Minimization stats:
  Stopping criterion = energy tolerance
  Energy initial, next-to-last, final = 
     -1152449.44354972  -1152449.44522669  -1152449.44522669
  Force two-norm initial, final = 0.19230815 0.00021521909
  Force max component initial, final = 0.076234517 1.8488469e-05
  Final line search alpha, max atom move = 1.0000000 1.8488469e-05
  Iterations, force evaluations = 106 212

MPI task timing breakdown:
Section |  min time  |  avg time  |  max time  |%varavg| %total
---------------------------------------------------------------
Pair    | 0.32109    | 0.89955    | 1.1754     |  25.6 | 70.82
Neigh   | 0          | 0          | 0          |   0.0 |  0.00
Comm    | 0.019991   | 0.2057     | 0.60452    |  36.7 | 16.19
Output  | 0          | 0          | 0          |   0.0 |  0.00
Modify  | 1.2764e-05 | 0.0017616  | 0.0037687  |   2.0 |  0.14
Other   |            | 0.1631     |            |       | 12.84

Nlocal:        2776.45 ave        3960 max           0 min
Histogram: 8 4 4 0 4 12 8 2 28 34
Nghost:        3879.03 ave        5426 max         232 min
Histogram: 8 0 8 0 16 0 8 8 16 40
Neighs:        79213.5 ave      115450 max           0 min
Histogram: 8 4 4 0 10 6 8 8 24 32

Total # of neighbors = 8238201
Ave neighs/atom = 28.530467
Neighbor list builds = 0
Dangerous builds = 0
The dot product: 3.9918571908824e-08
Setting atom values ...
  1 settings made for x
  1 settings made for y
  1 settings made for z
Setting up cg style minimization ...
  Unit style    : metal
  Current step  : 625
Per MPI rank memory allocation (min/avg/max) = 5.441 | 5.816 | 6.074 Mbytes
Step PotEng KinEng TotEng v_fx v_fy v_fz 
     625   -1152449.4            0   -1152449.4 -0.025605702  0.033896641 0.0038420649 
     760   -1152449.4            0   -1152449.4 1.9101065e-07 -2.9826395e-06 -1.6785239e-05 
Loop time of 1.61358 on 104 procs for 135 steps with 288751 atoms

99.9% CPU use with 104 MPI tasks x 1 OpenMP threads

Minimization stats:
  Stopping criterion = energy tolerance
  Energy initial, next-to-last, final = 
     -1152449.43890901  -1152449.44057812  -1152449.44057812
  Force two-norm initial, final = 0.19188142 6.3114976e-05
  Force max component initial, final = 0.073365188 1.6785239e-05
  Final line search alpha, max atom move = 1.0000000 1.6785239e-05
  Iterations, force evaluations = 135 270

MPI task timing breakdown:
Section |  min time  |  avg time  |  max time  |%varavg| %total
---------------------------------------------------------------
Pair    | 0.41876    | 1.1407     | 1.4903     |  28.5 | 70.69
Neigh   | 0          | 0          | 0          |   0.0 |  0.00
Comm    | 0.026116   | 0.26173    | 0.76219    |  41.1 | 16.22
Output  | 0          | 0          | 0          |   0.0 |  0.00
Modify  | 1.7866e-05 | 0.0022401  | 0.0048286  |   2.2 |  0.14
Other   |            | 0.2089     |            |       | 12.95

Nlocal:        2776.45 ave        3959 max           0 min
Histogram: 8 4 4 0 4 12 8 2 28 34
Nghost:        3879.03 ave        5427 max         232 min
Histogram: 8 0 8 0 16 0 8 8 16 40
Neighs:        79213.5 ave      115428 max           0 min
Histogram: 8 4 4 0 10 6 8 8 24 32

Total # of neighbors = 8238201
Ave neighs/atom = 28.530467
Neighbor list builds = 0
Dangerous builds = 0
The dot product: 2.28217425682726e-08
Setting atom values ...
  1 settings made for x
  1 settings made for y
  1 settings made for z
Setting up cg style minimization ...
  Unit style    : metal
  Current step  : 760
Per MPI rank memory allocation (min/avg/max) = 5.441 | 5.816 | 6.074 Mbytes
Step PotEng KinEng TotEng v_fx v_fy v_fz 
     760   -1152449.4            0   -1152449.4 -0.025935139  0.039445678 0.0060439125 
     888   -1152449.4            0   -1152449.4 4.8523603e-07 4.9988243e-07 9.6309924e-06 
Loop time of 1.51565 on 104 procs for 128 steps with 288751 atoms

99.9% CPU use with 104 MPI tasks x 1 OpenMP threads

Minimization stats:
  Stopping criterion = energy tolerance
  Energy initial, next-to-last, final = 
     -1152449.43275202  -1152449.43440568  -1152449.43440568
  Force two-norm initial, final = 0.19098317 9.1438244e-05
  Force max component initial, final = 0.073731252 9.6309924e-06
  Final line search alpha, max atom move = 1.0000000 9.6309924e-06
  Iterations, force evaluations = 128 256

MPI task timing breakdown:
Section |  min time  |  avg time  |  max time  |%varavg| %total
---------------------------------------------------------------
Pair    | 0.38359    | 1.0818     | 1.4163     |  28.2 | 71.38
Neigh   | 0          | 0          | 0          |   0.0 |  0.00
Comm    | 0.022396   | 0.24581    | 0.72355    |  40.5 | 16.22
Output  | 0          | 0          | 0          |   0.0 |  0.00
Modify  | 1.4734e-05 | 0.0021196  | 0.0045391  |   2.2 |  0.14
Other   |            | 0.1859     |            |       | 12.26

Nlocal:        2776.45 ave        3957 max           0 min
Histogram: 8 4 4 0 4 12 8 2 28 34
Nghost:        3879.03 ave        5428 max         232 min
Histogram: 8 0 8 0 16 0 8 8 16 40
Neighs:        79213.5 ave      115359 max           0 min
Histogram: 8 4 4 0 10 6 8 8 24 32

Total # of neighbors = 8238200
Ave neighs/atom = 28.530464
Neighbor list builds = 0
Dangerous builds = 0
The dot product: -1.75489894925694e-08
Setting atom values ...
  1 settings made for x
  1 settings made for y
  1 settings made for z
Setting up cg style minimization ...
  Unit style    : metal
  Current step  : 888
Per MPI rank memory allocation (min/avg/max) = 5.441 | 5.816 | 6.074 Mbytes
Step PotEng KinEng TotEng v_fx v_fy v_fz 
     888   -1152449.4            0   -1152449.4 -0.025539535  0.043948302  0.009024412 
    1000   -1152449.4            0   -1152449.4 3.0324429e-06 -8.4978371e-07 4.3358385e-05 
    1005   -1152449.4            0   -1152449.4 3.0617175e-06 -7.1933384e-06 -2.0657887e-05 
Loop time of 1.37883 on 104 procs for 117 steps with 288751 atoms

99.9% CPU use with 104 MPI tasks x 1 OpenMP threads

Minimization stats:
  Stopping criterion = energy tolerance
  Energy initial, next-to-last, final = 
     -1152449.42504335   -1152449.4266789   -1152449.4266789
  Force two-norm initial, final = 0.18987314 0.00017072661
  Force max component initial, final = 0.073419671 2.0657887e-05
  Final line search alpha, max atom move = 1.0000000 2.0657887e-05
  Iterations, force evaluations = 117 234

MPI task timing breakdown:
Section |  min time  |  avg time  |  max time  |%varavg| %total
---------------------------------------------------------------
Pair    | 0.34988    | 0.98244    | 1.2862     |  26.9 | 71.25
Neigh   | 0          | 0          | 0          |   0.0 |  0.00
Comm    | 0.02167    | 0.22321    | 0.66839    |  38.9 | 16.19
Output  | 0.00027393 | 0.00027979 | 0.00041153 |   0.0 |  0.02
Modify  | 1.345e-05  | 0.001938   | 0.0041473  |   2.1 |  0.14
Other   |            | 0.171      |            |       | 12.40

Nlocal:        2776.45 ave        3957 max           0 min
Histogram: 8 4 4 0 4 12 8 2 28 34
Nghost:        3879.03 ave        5427 max         232 min
Histogram: 8 0 8 0 16 0 8 8 16 40
Neighs:        79213.5 ave      115359 max           0 min
Histogram: 8 4 4 0 10 6 8 8 24 32

Total # of neighbors = 8238202
Ave neighs/atom = 28.530471
Neighbor list builds = 0
Dangerous builds = 0
The dot product: -9.15152431137783e-09
Setting atom values ...
  1 settings made for x
  1 settings made for y
  1 settings made for z
Setting up cg style minimization ...
  Unit style    : metal
  Current step  : 1005
Per MPI rank memory allocation (min/avg/max) = 5.441 | 5.816 | 6.074 Mbytes
Step PotEng KinEng TotEng v_fx v_fy v_fz 
    1005   -1152449.4            0   -1152449.4 -0.024907311  0.047949524  0.012512768 
    1123   -1152449.4            0   -1152449.4 -1.5212297e-07 2.2266016e-06 2.5189475e-05 
Loop time of 1.38444 on 104 procs for 118 steps with 288751 atoms

99.9% CPU use with 104 MPI tasks x 1 OpenMP threads

Minimization stats:
  Stopping criterion = energy tolerance
  Energy initial, next-to-last, final = 
     -1152449.41575781  -1152449.41737469  -1152449.41737469
  Force two-norm initial, final = 0.18870928 0.00017046064
  Force max component initial, final = 0.072498894 2.5189475e-05
  Final line search alpha, max atom move = 1.0000000 2.5189475e-05
  Iterations, force evaluations = 118 236

MPI task timing breakdown:
Section |  min time  |  avg time  |  max time  |%varavg| %total
---------------------------------------------------------------
Pair    | 0.35314    | 0.9961     | 1.2927     |  27.1 | 71.95
Neigh   | 0          | 0          | 0          |   0.0 |  0.00
Comm    | 0.021951   | 0.22358    | 0.66839    |  39.4 | 16.15
Output  | 0          | 0          | 0          |   0.0 |  0.00
Modify  | 1.3568e-05 | 0.0019565  | 0.0042309  |   2.1 |  0.14
Other   |            | 0.1628     |            |       | 11.76

Nlocal:        2776.45 ave        3957 max           0 min
Histogram: 8 4 4 0 4 12 8 2 28 34
Nghost:        3879.03 ave        5426 max         232 min
Histogram: 8 0 8 0 16 0 8 8 16 40
Neighs:        79213.5 ave      115358 max           0 min
Histogram: 8 4 4 0 10 6 8 8 24 32

Total # of neighbors = 8238201
Ave neighs/atom = 28.530467
Neighbor list builds = 0
Dangerous builds = 0
The dot product: -1.74464351843549e-08
Setting atom values ...
  1 settings made for x
  1 settings made for y
  1 settings made for z
Setting up cg style minimization ...
  Unit style    : metal
  Current step  : 1123
Per MPI rank memory allocation (min/avg/max) = 5.441 | 5.816 | 6.074 Mbytes
Step PotEng KinEng TotEng v_fx v_fy v_fz 
    1123   -1152449.4            0   -1152449.4 -0.024302247  0.052064534  0.016639143 
    1264   -1152449.4            0   -1152449.4 -1.8583778e-06 2.5216538e-06 -2.1673034e-05 
Loop time of 1.67853 on 104 procs for 141 steps with 288751 atoms

99.9% CPU use with 104 MPI tasks x 1 OpenMP threads

Minimization stats:
  Stopping criterion = energy tolerance
  Energy initial, next-to-last, final = 
     -1152449.40488104  -1152449.40648197  -1152449.40648197
  Force two-norm initial, final = 0.18774819 6.6503750e-05
  Force max component initial, final = 0.071116996 2.1673034e-05
  Final line search alpha, max atom move = 1.0000000 2.1673034e-05
  Iterations, force evaluations = 141 282

MPI task timing breakdown:
Section |  min time  |  avg time  |  max time  |%varavg| %total
---------------------------------------------------------------
Pair    | 0.42078    | 1.1894     | 1.5551     |  29.7 | 70.86
Neigh   | 0          | 0          | 0          |   0.0 |  0.00
Comm    | 0.024659   | 0.27257    | 0.7978     |  42.3 | 16.24
Output  | 0          | 0          | 0          |   0.0 |  0.00
Modify  | 1.5998e-05 | 0.0023387  | 0.0050232  |   2.3 |  0.14
Other   |            | 0.2142     |            |       | 12.76

Nlocal:        2776.45 ave        3956 max           0 min
Histogram: 8 4 4 0 4 12 8 0 30 34
Nghost:        3879.03 ave        5425 max         232 min
Histogram: 8 0 8 0 16 0 8 8 16 40
Neighs:        79213.5 ave      115318 max           0 min
Histogram: 8 4 4 0 10 6 8 8 24 32

Total # of neighbors = 8238200
Ave neighs/atom = 28.530464
Neighbor list builds = 0
Dangerous builds = 0
The dot product: 3.13566663711891e-08
Setting atom values ...
  1 settings made for x
  1 settings made for y
  1 settings made for z
Setting up cg style minimization ...
  Unit style    : metal
  Current step  : 1264
Per MPI rank memory allocation (min/avg/max) = 5.441 | 5.816 | 6.074 Mbytes
Step PotEng KinEng TotEng v_fx v_fy v_fz 
    1264   -1152449.4            0   -1152449.4 -0.023823924  0.056922386  0.021459157 
    1402   -1152449.4            0   -1152449.4 1.2635485e-06 -2.3925783e-06 9.3194447e-06 
Loop time of 1.61894 on 104 procs for 138 steps with 288751 atoms

99.9% CPU use with 104 MPI tasks x 1 OpenMP threads

Minimization stats:
  Stopping criterion = energy tolerance
  Energy initial, next-to-last, final = 
     -1152449.39241343  -1152449.39400751  -1152449.39400751
  Force two-norm initial, final = 0.18715343 6.7288115e-05
  Force max component initial, final = 0.069076733 9.3194447e-06
  Final line search alpha, max atom move = 1.0000000 9.3194447e-06
  Iterations, force evaluations = 138 276

MPI task timing breakdown:
Section |  min time  |  avg time  |  max time  |%varavg| %total
---------------------------------------------------------------
Pair    | 0.41667    | 1.1661     | 1.5118     |  29.2 | 72.03
Neigh   | 0          | 0          | 0          |   0.0 |  0.00
Comm    | 0.026905   | 0.26274    | 0.78937    |  42.7 | 16.23
Output  | 0          | 0          | 0          |   0.0 |  0.00
Modify  | 1.6327e-05 | 0.0022898  | 0.00491    |   2.2 |  0.14
Other   |            | 0.1878     |            |       | 11.60

Nlocal:        2776.45 ave        3956 max           0 min
Histogram: 8 4 4 0 4 12 8 2 28 34
Nghost:        3879.03 ave        5424 max         232 min
Histogram: 8 0 8 0 16 0 8 8 16 40
Neighs:        79213.4 ave      115318 max           0 min
Histogram: 8 4 4 0 10 6 8 8 24 32

Total # of neighbors = 8238198
Ave neighs/atom = 28.530457
Neighbor list builds = 0
Dangerous builds = 0
The dot product: -1.66981631999136e-08
Setting atom values ...
  1 settings made for x
  1 settings made for y
  1 settings made for z
Setting up cg style minimization ...
  Unit style    : metal
  Current step  : 1402
Per MPI rank memory allocation (min/avg/max) = 5.441 | 5.816 | 6.074 Mbytes
Step PotEng KinEng TotEng v_fx v_fy v_fz 
    1402   -1152449.4            0   -1152449.4 -0.023452622  0.063317825  0.027469735 
    1531   -1152449.4            0   -1152449.4 4.526188e-06 -1.3540212e-05 -2.4346547e-05 
Loop time of 1.54067 on 104 procs for 129 steps with 288751 atoms

99.9% CPU use with 104 MPI tasks x 1 OpenMP threads

Minimization stats:
  Stopping criterion = energy tolerance
  Energy initial, next-to-last, final = 
      -1152449.3783805  -1152449.37998978  -1152449.37998978
  Force two-norm initial, final = 0.18737537 0.00010810519
  Force max component initial, final = 0.066305525 2.6874981e-05
  Final line search alpha, max atom move = 1.0000000 2.6874981e-05
  Iterations, force evaluations = 129 258

MPI task timing breakdown:
Section |  min time  |  avg time  |  max time  |%varavg| %total
---------------------------------------------------------------
Pair    | 0.38829    | 1.0902     | 1.4325     |  28.4 | 70.76
Neigh   | 0          | 0          | 0          |   0.0 |  0.00
Comm    | 0.029002   | 0.25013    | 0.7352     |  40.5 | 16.24
Output  | 0          | 0          | 0          |   0.0 |  0.00
Modify  | 1.6996e-05 | 0.0021406  | 0.0045657  |   2.2 |  0.14
Other   |            | 0.1982     |            |       | 12.86

Nlocal:        2776.45 ave        3956 max           0 min
Histogram: 8 4 4 0 4 12 8 2 28 34
Nghost:        3879.03 ave        5424 max         232 min
Histogram: 8 0 8 0 16 0 8 8 16 40
Neighs:        79213.4 ave      115318 max           0 min
Histogram: 8 4 4 0 10 6 8 8 24 32

Total # of neighbors = 8238198
Ave neighs/atom = 28.530457
Neighbor list builds = 0
Dangerous builds = 0
The dot product: -1.53868145671062e-07
Setting atom values ...
  1 settings made for x
  1 settings made for y
  1 settings made for z
Setting up cg style minimization ...
  Unit style    : metal
  Current step  : 1531
Per MPI rank memory allocation (min/avg/max) = 5.441 | 5.816 | 6.074 Mbytes
Step PotEng KinEng TotEng v_fx v_fy v_fz 
    1531   -1152449.4            0   -1152449.4 -0.023604659  0.074670732  0.037985147 
    1674   -1152449.4            0   -1152449.4  -1.8226e-06 4.3094593e-06 -1.1369143e-05 
Loop time of 1.71001 on 104 procs for 143 steps with 288751 atoms

99.9% CPU use with 104 MPI tasks x 1 OpenMP threads

Minimization stats:
  Stopping criterion = energy tolerance
  Energy initial, next-to-last, final = 
     -1152449.36286888  -1152449.36461496  -1152449.36461496
  Force two-norm initial, final = 0.19050061 8.6654671e-05
  Force max component initial, final = 0.074670732 1.1369143e-05
  Final line search alpha, max atom move = 1.0000000 1.1369143e-05
  Iterations, force evaluations = 143 286

MPI task timing breakdown:
Section |  min time  |  avg time  |  max time  |%varavg| %total
---------------------------------------------------------------
Pair    | 0.43       | 1.2117     | 1.5762     |  29.9 | 70.86
Neigh   | 0          | 0          | 0          |   0.0 |  0.00
Comm    | 0.025391   | 0.2798     | 0.81733    |  42.4 | 16.36
Output  | 0          | 0          | 0          |   0.0 |  0.00
Modify  | 1.7121e-05 | 0.0023681  | 0.0051147  |   2.3 |  0.14
Other   |            | 0.2162     |            |       | 12.64

Nlocal:        2776.45 ave        3956 max           0 min
Histogram: 8 4 4 0 4 12 8 2 28 34
Nghost:        3879.07 ave        5424 max         232 min
Histogram: 8 0 8 0 16 0 8 8 16 40
Neighs:        79213.4 ave      115318 max           0 min
Histogram: 8 4 4 0 10 6 8 8 24 32

Total # of neighbors = 8238197
Ave neighs/atom = 28.530454
Neighbor list builds = 0
Dangerous builds = 0
The dot product: -1.29966623823627e-09
Setting atom values ...
  1 settings made for x
  1 settings made for y
  1 settings made for z
Setting up cg style minimization ...
  Unit style    : metal
  Current step  : 1674
Per MPI rank memory allocation (min/avg/max) = 5.441 | 5.816 | 6.074 Mbytes
Step PotEng KinEng TotEng v_fx v_fy v_fz 
    1674   -1152449.3            0   -1152449.3  -0.02356057   0.10250059   0.06261439 
    1832   -1152449.4            0   -1152449.4 -6.7141242e-06 1.3066993e-05 -5.3991033e-05 
Loop time of 1.85552 on 104 procs for 158 steps with 288751 atoms

99.9% CPU use with 104 MPI tasks x 1 OpenMP threads

Minimization stats:
  Stopping criterion = energy tolerance
  Energy initial, next-to-last, final = 
      -1152449.3463592  -1152449.35088849  -1152449.35088849
  Force two-norm initial, final = 0.20593775 0.00020198164
  Force max component initial, final = 0.10250059 5.3991033e-05
  Final line search alpha, max atom move = 1.0000000 5.3991033e-05
  Iterations, force evaluations = 158 316

MPI task timing breakdown:
Section |  min time  |  avg time  |  max time  |%varavg| %total
---------------------------------------------------------------
Pair    | 0.47361    | 1.3247     | 1.7371     |  31.2 | 71.39
Neigh   | 0          | 0          | 0          |   0.0 |  0.00
Comm    | 0.031794   | 0.30014    | 0.88792    |  45.1 | 16.18
Output  | 0          | 0          | 0          |   0.0 |  0.00
Modify  | 1.8639e-05 | 0.0026106  | 0.0055823  |   2.4 |  0.14
Other   |            | 0.2281     |            |       | 12.29

Nlocal:        2776.45 ave        3956 max           0 min
Histogram: 8 4 4 0 4 12 8 2 28 34
Nghost:        3879.05 ave        5425 max         232 min
Histogram: 8 0 8 0 16 0 8 8 16 40
Neighs:        79213.4 ave      115319 max           0 min
Histogram: 8 4 4 0 10 6 8 8 24 32

Total # of neighbors = 8238192
Ave neighs/atom = 28.530436
Neighbor list builds = 0
Dangerous builds = 0
The dot product: -1.34196220871659e-06
Setting atom values ...
  1 settings made for x
  1 settings made for y
  1 settings made for z
Setting up cg style minimization ...
  Unit style    : metal
  Current step  : 1832
Per MPI rank memory allocation (min/avg/max) = 5.441 | 5.816 | 6.074 Mbytes
Step PotEng KinEng TotEng v_fx v_fy v_fz 
    1832   -1152449.3            0   -1152449.3  0.023728444   0.21798072    0.1387628 
    2000   -1152449.3            0   -1152449.3 -1.1252229e-05 0.00010245904 -3.6020171e-05 
    2024   -1152449.3            0   -1152449.3 4.5963609e-06 -1.733687e-05 1.8261047e-05 
Loop time of 2.24971 on 104 procs for 192 steps with 288751 atoms

99.9% CPU use with 104 MPI tasks x 1 OpenMP threads

Minimization stats:
  Stopping criterion = energy tolerance
  Energy initial, next-to-last, final = 
     -1152449.33554929   -1152449.3459191   -1152449.3459191
  Force two-norm initial, final = 0.29927067 0.00028422655
  Force max component initial, final = 0.21798072 6.0607147e-05
  Final line search alpha, max atom move = 1.0000000 6.0607147e-05
  Iterations, force evaluations = 192 384

MPI task timing breakdown:
Section |  min time  |  avg time  |  max time  |%varavg| %total
---------------------------------------------------------------
Pair    | 0.57988    | 1.6159     | 2.1148     |  34.3 | 71.83
Neigh   | 1.0205e-05 | 0.0029386  | 0.0042624  |   2.2 |  0.13
Comm    | 0.033241   | 0.36278    | 1.0785     |  50.1 | 16.13
Output  | 0.00024805 | 0.00025351 | 0.0004144  |   0.0 |  0.01
Modify  | 2.2702e-05 | 0.0031733  | 0.0067956  |   2.7 |  0.14
Other   |            | 0.2646     |            |       | 11.76

Nlocal:        2776.45 ave        3959 max           0 min
Histogram: 8 4 4 0 4 12 8 2 28 34
Nghost:        3879.05 ave        5429 max         232 min
Histogram: 8 0 8 0 16 0 8 8 16 40
Neighs:        79213.4 ave      115415 max           0 min
Histogram: 8 4 4 0 10 6 8 8 24 32

Total # of neighbors = 8238196
Ave neighs/atom = 28.530450
Neighbor list builds = 1
Dangerous builds = 0
The dot product: -4.74759225004879e-07
Setting atom values ...
  1 settings made for x
  1 settings made for y
  1 settings made for z
Setting up cg style minimization ...
  Unit style    : metal
  Current step  : 2024
Per MPI rank memory allocation (min/avg/max) = 5.441 | 5.816 | 6.074 Mbytes
Step PotEng KinEng TotEng v_fx v_fy v_fz 
    2024   -1152449.3            0   -1152449.3  0.070494343   0.17557695  0.080099468 
    2302   -1152449.3            0   -1152449.3 3.6818598e-06 9.6856716e-08 9.9068209e-06 
Loop time of 3.25102 on 104 procs for 278 steps with 288751 atoms

99.9% CPU use with 104 MPI tasks x 1 OpenMP threads

Minimization stats:
  Stopping criterion = energy tolerance
  Energy initial, next-to-last, final = 
     -1152449.33328138  -1152449.34468434  -1152449.34468434
  Force two-norm initial, final = 0.24757101 4.4701487e-05
  Force max component initial, final = 0.17557695 1.0182994e-05
  Final line search alpha, max atom move = 1.0000000 1.0182994e-05
  Iterations, force evaluations = 278 556

MPI task timing breakdown:
Section |  min time  |  avg time  |  max time  |%varavg| %total
---------------------------------------------------------------
Pair    | 0.83913    | 2.332      | 3.0518     |  41.3 | 71.73
Neigh   | 1.0488e-05 | 0.0029327  | 0.0042471  |   2.2 |  0.09
Comm    | 0.050472   | 0.52762    | 1.571      |  60.0 | 16.23
Output  | 0          | 0          | 0          |   0.0 |  0.00
Modify  | 3.1326e-05 | 0.0045918  | 0.0098484  |   3.2 |  0.14
Other   |            | 0.3839     |            |       | 11.81

Nlocal:        2776.45 ave        3959 max           0 min
Histogram: 8 4 4 0 4 12 8 2 28 34
Nghost:        3879.05 ave        5424 max         232 min
Histogram: 8 0 8 0 16 0 8 8 16 40
Neighs:        79213.3 ave      115414 max           0 min
Histogram: 8 4 4 0 10 6 8 8 24 32

Total # of neighbors = 8238188
Ave neighs/atom = 28.530422
Neighbor list builds = 1
Dangerous builds = 0
The dot product: 7.60745587682038e-07
Setting atom values ...
  1 settings made for x
  1 settings made for y
  1 settings made for z
Setting up cg style minimization ...
  Unit style    : metal
  Current step  : 2302
Per MPI rank memory allocation (min/avg/max) = 5.441 | 5.816 | 6.074 Mbytes
Step PotEng KinEng TotEng v_fx v_fy v_fz 
    2302   -1152449.3            0   -1152449.3  -0.04997862 -0.030016576  -0.04795334 
    2435   -1152449.3            0   -1152449.3 3.2138319e-05 1.2541715e-05 3.6162274e-05 
Loop time of 1.57501 on 104 procs for 133 steps with 288751 atoms

99.9% CPU use with 104 MPI tasks x 1 OpenMP threads

Minimization stats:
  Stopping criterion = energy tolerance
  Energy initial, next-to-last, final = 
     -1152449.34688093  -1152449.34818958  -1152449.34818958
  Force two-norm initial, final = 0.1463942 0.00014724935
  Force max component initial, final = 0.04997862 3.6162274e-05
  Final line search alpha, max atom move = 1.0000000 3.6162274e-05
  Iterations, force evaluations = 133 266

MPI task timing breakdown:
Section |  min time  |  avg time  |  max time  |%varavg| %total
---------------------------------------------------------------
Pair    | 0.40358    | 1.1232     | 1.4686     |  28.6 | 71.32
Neigh   | 0          | 0          | 0          |   0.0 |  0.00
Comm    | 0.02539    | 0.25337    | 0.75536    |  41.6 | 16.09
Output  | 0          | 0          | 0          |   0.0 |  0.00
Modify  | 1.5895e-05 | 0.0022043  | 0.0047276  |   2.2 |  0.14
Other   |            | 0.1962     |            |       | 12.46

Nlocal:        2776.45 ave        3960 max           0 min
Histogram: 8 4 4 0 4 12 8 2 28 34
Nghost:        3879.09 ave        5429 max         232 min
Histogram: 8 0 8 0 16 0 8 8 16 40
Neighs:        79213.4 ave      115421 max           0 min
Histogram: 8 4 4 0 10 6 8 8 24 32

Total # of neighbors = 8238192
Ave neighs/atom = 28.530436
Neighbor list builds = 0
Dangerous builds = 0
The dot product: -4.97635957227389e-07
Setting atom values ...
  1 settings made for x
  1 settings made for y
  1 settings made for z
Setting up cg style minimization ...
  Unit style    : metal
  Current step  : 2435
Per MPI rank memory allocation (min/avg/max) = 5.441 | 5.816 | 6.074 Mbytes
Step PotEng KinEng TotEng v_fx v_fy v_fz 
    2435   -1152449.3            0   -1152449.3 -0.006645938 0.0096421286 -0.017497532 
    2582   -1152449.4            0   -1152449.4 5.7785703e-05 5.2706596e-05 4.7196785e-05 
Loop time of 1.72843 on 104 procs for 147 steps with 288751 atoms

99.9% CPU use with 104 MPI tasks x 1 OpenMP threads

Minimization stats:
  Stopping criterion = energy tolerance
  Energy initial, next-to-last, final = 
     -1152449.34955145  -1152449.35045746  -1152449.35045746
  Force two-norm initial, final = 0.12492209 0.00025232833
  Force max component initial, final = 0.047680635 5.7785703e-05
  Final line search alpha, max atom move = 1.0000000 5.7785703e-05
  Iterations, force evaluations = 147 294

MPI task timing breakdown:
Section |  min time  |  avg time  |  max time  |%varavg| %total
---------------------------------------------------------------
Pair    | 0.44273    | 1.2348     | 1.616      |  30.1 | 71.44
Neigh   | 0          | 0          | 0          |   0.0 |  0.00
Comm    | 0.027572   | 0.28028    | 0.83239    |  43.5 | 16.22
Output  | 0          | 0          | 0          |   0.0 |  0.00
Modify  | 1.6856e-05 | 0.0024362  | 0.0052433  |   2.3 |  0.14
Other   |            | 0.2109     |            |       | 12.20

Nlocal:        2776.45 ave        3960 max           0 min
Histogram: 8 4 4 0 4 12 8 2 28 34
Nghost:        3879.09 ave        5428 max         232 min
Histogram: 8 0 8 0 16 0 8 8 16 40
Neighs:        79213.4 ave      115421 max           0 min
Histogram: 8 4 4 0 10 6 8 8 24 32

Total # of neighbors = 8238193
Ave neighs/atom = 28.530440
Neighbor list builds = 0
Dangerous builds = 0
The dot product: 6.67357962695407e-08
Setting atom values ...
  1 settings made for x
  1 settings made for y
  1 settings made for z
Setting up cg style minimization ...
  Unit style    : metal
  Current step  : 2582
Per MPI rank memory allocation (min/avg/max) = 5.441 | 5.816 | 6.074 Mbytes
Step PotEng KinEng TotEng v_fx v_fy v_fz 
    2582   -1152449.4            0   -1152449.4 -0.010168039 0.0063636292 -0.020330587 
    2743   -1152449.4            0   -1152449.4 5.3587331e-05 2.4287808e-05 6.2432415e-05 
Loop time of 1.88945 on 104 procs for 161 steps with 288751 atoms

99.9% CPU use with 104 MPI tasks x 1 OpenMP threads

Minimization stats:
  Stopping criterion = energy tolerance
  Energy initial, next-to-last, final = 
      -1152449.3506089  -1152449.35151115  -1152449.35151115
  Force two-norm initial, final = 0.12555369 0.00025181822
  Force max component initial, final = 0.047086435 6.2432415e-05
  Final line search alpha, max atom move = 1.0000000 6.2432415e-05
  Iterations, force evaluations = 161 322

MPI task timing breakdown:
Section |  min time  |  avg time  |  max time  |%varavg| %total
---------------------------------------------------------------
Pair    | 0.48427    | 1.3613     | 1.768      |  31.6 | 72.05
Neigh   | 0          | 0          | 0          |   0.0 |  0.00
Comm    | 0.030059   | 0.30593    | 0.91074    |  46.0 | 16.19
Output  | 0          | 0          | 0          |   0.0 |  0.00
Modify  | 1.8324e-05 | 0.0026652  | 0.0057059  |   2.4 |  0.14
Other   |            | 0.2196     |            |       | 11.62

Nlocal:        2776.45 ave        3960 max           0 min
Histogram: 8 4 4 0 4 12 8 2 28 34
Nghost:        3879.09 ave        5429 max         232 min
Histogram: 8 0 8 0 16 0 8 8 16 40
Neighs:        79213.4 ave      115441 max           0 min
Histogram: 8 4 4 0 10 6 8 8 24 32

Total # of neighbors = 8238189
Ave neighs/atom = 28.530426
Neighbor list builds = 0
Dangerous builds = 0
The dot product: -3.05503854016453e-08
Setting atom values ...
  1 settings made for x
  1 settings made for y
  1 settings made for z
Setting up cg style minimization ...
  Unit style    : metal
  Current step  : 2743
Per MPI rank memory allocation (min/avg/max) = 5.441 | 5.816 | 6.074 Mbytes
Step PotEng KinEng TotEng v_fx v_fy v_fz 
    2743   -1152449.4            0   -1152449.4 -0.0094231784 0.0065887265 -0.019438422 
    2943   -1152449.4            0   -1152449.4 -1.0461224e-05 -1.1526927e-05 -6.9517755e-06 
Loop time of 2.35416 on 104 procs for 200 steps with 288751 atoms

99.9% CPU use with 104 MPI tasks x 1 OpenMP threads

Minimization stats:
  Stopping criterion = energy tolerance
  Energy initial, next-to-last, final = 
      -1152449.3503548  -1152449.35125008  -1152449.35125008
  Force two-norm initial, final = 0.12511934 7.7911776e-05
  Force max component initial, final = 0.046466113 1.1526927e-05
  Final line search alpha, max atom move = 1.0000000 1.1526927e-05
  Iterations, force evaluations = 200 400

MPI task timing breakdown:
Section |  min time  |  avg time  |  max time  |%varavg| %total
---------------------------------------------------------------
Pair    | 0.60108    | 1.68       | 2.215      |  35.2 | 71.36
Neigh   | 0          | 0          | 0          |   0.0 |  0.00
Comm    | 0.037455   | 0.38206    | 1.1298     |  50.9 | 16.23
Output  | 0          | 0          | 0          |   0.0 |  0.00
Modify  | 2.2735e-05 | 0.0033008  | 0.0071055  |   2.7 |  0.14
Other   |            | 0.2888     |            |       | 12.27

Nlocal:        2776.45 ave        3959 max           0 min
Histogram: 8 4 4 0 4 12 8 2 28 34
Nghost:        3879.05 ave        5424 max         232 min
Histogram: 8 0 8 0 16 0 8 8 16 40
Neighs:        79213.4 ave      115410 max           0 min
Histogram: 8 4 4 0 10 6 8 8 24 32

Total # of neighbors = 8238191
Ave neighs/atom = 28.530433
Neighbor list builds = 0
Dangerous builds = 0
The dot product: 3.28524021256447e-10
Setting atom values ...
  1 settings made for x
  1 settings made for y
  1 settings made for z
Setting up cg style minimization ...
  Unit style    : metal
  Current step  : 2943
Per MPI rank memory allocation (min/avg/max) = 5.441 | 5.816 | 6.074 Mbytes
Step PotEng KinEng TotEng v_fx v_fy v_fz 
    2943   -1152449.3            0   -1152449.3 -0.0085771235  0.006442958 -0.018094268 
    3000   -1152449.3            0   -1152449.3 -3.2501759e-05 0.00024685608 -0.00024201335 
    3159   -1152449.3            0   -1152449.3 -1.6611256e-06 1.1469958e-06 -3.4257002e-06 
Loop time of 2.51605 on 104 procs for 216 steps with 288751 atoms

99.9% CPU use with 104 MPI tasks x 1 OpenMP threads

Minimization stats:
  Stopping criterion = energy tolerance
  Energy initial, next-to-last, final = 
     -1152449.34875691   -1152449.3496403   -1152449.3496403
  Force two-norm initial, final = 0.12426389 3.9123233e-05
  Force max component initial, final = 0.045829769 3.4257002e-06
  Final line search alpha, max atom move = 1.0000000 3.4257002e-06
  Iterations, force evaluations = 216 432

MPI task timing breakdown:
Section |  min time  |  avg time  |  max time  |%varavg| %total
---------------------------------------------------------------
Pair    | 0.64979    | 1.8241     | 2.3646     |  36.5 | 72.50
Neigh   | 0          | 0          | 0          |   0.0 |  0.00
Comm    | 0.042731   | 0.40759    | 1.2273     |  53.5 | 16.20
Output  | 0.00017942 | 0.00018222 | 0.00029479 |   0.0 |  0.01
Modify  | 2.4543e-05 | 0.0035693  | 0.0076947  |   2.8 |  0.14
Other   |            | 0.2806     |            |       | 11.15

Nlocal:        2776.45 ave        3959 max           0 min
Histogram: 8 4 4 0 4 12 8 2 28 34
Nghost:        3879.03 ave        5424 max         232 min
Histogram: 8 0 8 0 16 0 8 8 16 40
Neighs:        79213.4 ave      115410 max           0 min
Histogram: 8 4 4 0 10 6 8 8 24 32

Total # of neighbors = 8238191
Ave neighs/atom = 28.530433
Neighbor list builds = 0
Dangerous builds = 0
The dot product: 1.95684865385724e-09
Setting atom values ...
  1 settings made for x
  1 settings made for y
  1 settings made for z
Setting up cg style minimization ...
  Unit style    : metal
  Current step  : 3159
Per MPI rank memory allocation (min/avg/max) = 5.441 | 5.816 | 6.074 Mbytes
Step PotEng KinEng TotEng v_fx v_fy v_fz 
    3159   -1152449.3            0   -1152449.3 -0.0076110778 0.0060949352 -0.016396977 
    3354   -1152449.3            0   -1152449.3 7.9882018e-07 5.7819483e-06 -3.3073456e-06 
Loop time of 2.29262 on 104 procs for 195 steps with 288751 atoms

99.9% CPU use with 104 MPI tasks x 1 OpenMP threads

Minimization stats:
  Stopping criterion = energy tolerance
  Energy initial, next-to-last, final = 
     -1152449.34580451  -1152449.34667391  -1152449.34667391
  Force two-norm initial, final = 0.12325859 8.5387721e-05
  Force max component initial, final = 0.045143941 6.7132277e-06
  Final line search alpha, max atom move = 1.0000000 6.7132277e-06
  Iterations, force evaluations = 195 390

MPI task timing breakdown:
Section |  min time  |  avg time  |  max time  |%varavg| %total
---------------------------------------------------------------
Pair    | 0.58656    | 1.6444     | 2.1564     |  34.9 | 71.73
Neigh   | 0          | 0          | 0          |   0.0 |  0.00
Comm    | 0.035204   | 0.37353    | 1.1085     |  50.4 | 16.29
Output  | 0          | 0          | 0          |   0.0 |  0.00
Modify  | 2.2025e-05 | 0.0032231  | 0.0068893  |   2.7 |  0.14
Other   |            | 0.2715     |            |       | 11.84

Nlocal:        2776.45 ave        3959 max           0 min
Histogram: 8 4 4 0 4 12 8 2 28 34
Nghost:        3879.03 ave        5424 max         232 min
Histogram: 8 0 8 0 16 0 8 8 16 40
Neighs:        79213.4 ave      115410 max           0 min
Histogram: 8 4 4 0 10 6 8 8 24 32

Total # of neighbors = 8238190
Ave neighs/atom = 28.530429
Neighbor list builds = 0
Dangerous builds = 0
The dot product: 3.17578232678315e-09
Setting atom values ...
  1 settings made for x
  1 settings made for y
  1 settings made for z
Setting up cg style minimization ...
  Unit style    : metal
  Current step  : 3354
Per MPI rank memory allocation (min/avg/max) = 5.441 | 5.816 | 6.074 Mbytes
Step PotEng KinEng TotEng v_fx v_fy v_fz 
    3354   -1152449.3            0   -1152449.3 -0.006783913 0.0054564771 -0.014669479 
    3527   -1152449.3            0   -1152449.3 4.3463931e-05 4.8598008e-05 2.8312946e-05 
Loop time of 2.01776 on 104 procs for 173 steps with 288751 atoms

99.9% CPU use with 104 MPI tasks x 1 OpenMP threads

Minimization stats:
  Stopping criterion = energy tolerance
  Energy initial, next-to-last, final = 
      -1152449.3414889  -1152449.34234541  -1152449.34234541
  Force two-norm initial, final = 0.12244081 0.0001895964
  Force max component initial, final = 0.044419833 4.8598008e-05
  Final line search alpha, max atom move = 1.0000000 4.8598008e-05
  Iterations, force evaluations = 173 346

MPI task timing breakdown:
Section |  min time  |  avg time  |  max time  |%varavg| %total
---------------------------------------------------------------
Pair    | 0.52017    | 1.4548     | 1.8902     |  32.5 | 72.10
Neigh   | 0          | 0          | 0          |   0.0 |  0.00
Comm    | 0.029844   | 0.32504    | 0.97938    |  47.7 | 16.11
Output  | 0          | 0          | 0          |   0.0 |  0.00
Modify  | 1.9938e-05 | 0.0028638  | 0.0061912  |   2.5 |  0.14
Other   |            | 0.235      |            |       | 11.65

Nlocal:        2776.45 ave        3959 max           0 min
Histogram: 8 4 4 0 4 12 8 2 28 34
Nghost:        3879.01 ave        5424 max         232 min
Histogram: 8 0 8 0 16 0 8 8 16 40
Neighs:        79213.4 ave      115414 max           0 min
Histogram: 8 4 4 0 10 6 8 8 24 32

Total # of neighbors = 8238191
Ave neighs/atom = 28.530433
Neighbor list builds = 0
Dangerous builds = 0
The dot product: 2.7668047885636e-09
Setting atom values ...
  1 settings made for x
  1 settings made for y
  1 settings made for z
Setting up cg style minimization ...
  Unit style    : metal
  Current step  : 3527
Per MPI rank memory allocation (min/avg/max) = 5.441 | 5.816 | 6.074 Mbytes
Step PotEng KinEng TotEng v_fx v_fy v_fz 
    3527   -1152449.3            0   -1152449.3 -0.0061327914 0.0045538709 -0.012990757 
    3707   -1152449.3            0   -1152449.3 -3.0289578e-05 -3.0474736e-05 -2.2397595e-05 
Loop time of 2.10962 on 104 procs for 180 steps with 288751 atoms

99.9% CPU use with 104 MPI tasks x 1 OpenMP threads

Minimization stats:
  Stopping criterion = energy tolerance
  Energy initial, next-to-last, final = 
     -1152449.33579557  -1152449.33664447  -1152449.33664447
  Force two-norm initial, final = 0.12194445 0.00013703554
  Force max component initial, final = 0.044193815 3.0474736e-05
  Final line search alpha, max atom move = 1.0000000 3.0474736e-05
  Iterations, force evaluations = 180 360

MPI task timing breakdown:
Section |  min time  |  avg time  |  max time  |%varavg| %total
---------------------------------------------------------------
Pair    | 0.54466    | 1.5112     | 1.9763     |  33.2 | 71.63
Neigh   | 0          | 0          | 0          |   0.0 |  0.00
Comm    | 0.041142   | 0.34321    | 1.0265     |  48.2 | 16.27
Output  | 0          | 0          | 0          |   0.0 |  0.00
Modify  | 2.0481e-05 | 0.0029741  | 0.0063948  |   2.6 |  0.14
Other   |            | 0.2522     |            |       | 11.96

Nlocal:        2776.45 ave        3959 max           0 min
Histogram: 8 4 4 0 4 12 8 2 28 34
Nghost:        3879.03 ave        5424 max         232 min
Histogram: 8 0 8 0 16 0 8 8 16 40
Neighs:        79213.4 ave      115414 max           0 min
Histogram: 8 4 4 0 10 6 8 8 24 32

Total # of neighbors = 8238192
Ave neighs/atom = 28.530436
Neighbor list builds = 0
Dangerous builds = 0
The dot product: 7.09096206329405e-10
Setting atom values ...
  1 settings made for x
  1 settings made for y
  1 settings made for z
Setting up cg style minimization ...
  Unit style    : metal
  Current step  : 3707
Per MPI rank memory allocation (min/avg/max) = 5.441 | 5.816 | 6.074 Mbytes
Step PotEng KinEng TotEng v_fx v_fy v_fz 
    3707   -1152449.3            0   -1152449.3 -0.0058403976   0.00322157 -0.011510592 
    3895   -1152449.3            0   -1152449.3 -4.456137e-07 6.0996858e-06 -5.5054976e-06 
Loop time of 2.19916 on 104 procs for 188 steps with 288751 atoms

99.9% CPU use with 104 MPI tasks x 1 OpenMP threads

Minimization stats:
  Stopping criterion = energy tolerance
  Energy initial, next-to-last, final = 
     -1152449.32870564  -1152449.32955201  -1152449.32955201
  Force two-norm initial, final = 0.12187407 0.00010028503
  Force max component initial, final = 0.044024139 2.0066280e-05
  Final line search alpha, max atom move = 1.0000000 2.0066280e-05
  Iterations, force evaluations = 188 376

MPI task timing breakdown:
Section |  min time  |  avg time  |  max time  |%varavg| %total
---------------------------------------------------------------
Pair    | 0.56663    | 1.5847     | 2.0692     |  34.0 | 72.06
Neigh   | 0          | 0          | 0          |   0.0 |  0.00
Comm    | 0.032704   | 0.3556     | 1.0602     |  49.8 | 16.17
Output  | 0          | 0          | 0          |   0.0 |  0.00
Modify  | 2.1195e-05 | 0.0031108  | 0.0066738  |   2.6 |  0.14
Other   |            | 0.2558     |            |       | 11.63

Nlocal:        2776.45 ave        3959 max           0 min
Histogram: 8 4 4 0 4 12 8 2 28 34
Nghost:        3879.05 ave        5424 max         232 min
Histogram: 8 0 8 0 16 0 8 8 16 40
Neighs:        79213.4 ave      115414 max           0 min
Histogram: 8 4 4 0 10 6 8 8 24 32

Total # of neighbors = 8238190
Ave neighs/atom = 28.530429
Neighbor list builds = 0
Dangerous builds = 0
The dot product: 2.3521382975434e-09
Setting atom values ...
  1 settings made for x
  1 settings made for y
  1 settings made for z
Setting up cg style minimization ...
  Unit style    : metal
  Current step  : 3895
Per MPI rank memory allocation (min/avg/max) = 5.441 | 5.816 | 6.074 Mbytes
Step PotEng KinEng TotEng v_fx v_fy v_fz 
    3895   -1152449.3            0   -1152449.3 -0.0057413346 0.0017145776 -0.010180804 
    4000   -1152449.3            0   -1152449.3 -6.8293759e-05 -5.4244219e-05 -6.199551e-05 
    4099   -1152449.3            0   -1152449.3 3.7166532e-06 1.5769438e-05 -6.7760781e-06 
Loop time of 2.37421 on 104 procs for 204 steps with 288751 atoms

99.9% CPU use with 104 MPI tasks x 1 OpenMP threads

Minimization stats:
  Stopping criterion = energy tolerance
  Energy initial, next-to-last, final = 
     -1152449.32018994  -1152449.32103983  -1152449.32103983
  Force two-norm initial, final = 0.12213436 6.6757360e-05
  Force max component initial, final = 0.043854201 1.6137419e-05
  Final line search alpha, max atom move = 1.0000000 1.6137419e-05
  Iterations, force evaluations = 204 408

MPI task timing breakdown:
Section |  min time  |  avg time  |  max time  |%varavg| %total
---------------------------------------------------------------
Pair    | 0.61462    | 1.7099     | 2.2361     |  35.3 | 72.02
Neigh   | 0          | 0          | 0          |   0.0 |  0.00
Comm    | 0.035055   | 0.38469    | 1.153      |  51.6 | 16.20
Output  | 0.00022633 | 0.00023752 | 0.00036751 |   0.0 |  0.01
Modify  | 2.3001e-05 | 0.0033691  | 0.0072399  |   2.7 |  0.14
Other   |            | 0.276      |            |       | 11.63

Nlocal:        2776.45 ave        3959 max           0 min
Histogram: 8 4 4 0 4 12 8 2 28 34
Nghost:        3879.05 ave        5424 max         232 min
Histogram: 8 0 8 0 16 0 8 8 16 40
Neighs:        79213.3 ave      115418 max           0 min
Histogram: 8 4 4 0 10 6 8 8 24 32

Total # of neighbors = 8238188
Ave neighs/atom = 28.530422
Neighbor list builds = 0
Dangerous builds = 0
The dot product: 1.83494852158792e-09
Setting atom values ...
  1 settings made for x
  1 settings made for y
  1 settings made for z
Setting up cg style minimization ...
  Unit style    : metal
  Current step  : 4099
Per MPI rank memory allocation (min/avg/max) = 5.441 | 5.816 | 6.074 Mbytes
Step PotEng KinEng TotEng v_fx v_fy v_fz 
    4099   -1152449.3            0   -1152449.3 -0.0059388217 -7.9427566e-05 -0.0090746162 
    4276   -1152449.3            0   -1152449.3 -2.413493e-05 -2.7792873e-05 -1.5100673e-05 
Loop time of 2.08008 on 104 procs for 177 steps with 288751 atoms

99.9% CPU use with 104 MPI tasks x 1 OpenMP threads

Minimization stats:
  Stopping criterion = energy tolerance
  Energy initial, next-to-last, final = 
     -1152449.31021707  -1152449.31107364  -1152449.31107364
  Force two-norm initial, final = 0.12265961 0.00014831039
  Force max component initial, final = 0.043703797 2.7792873e-05
  Final line search alpha, max atom move = 1.0000000 2.7792873e-05
  Iterations, force evaluations = 177 354

MPI task timing breakdown:
Section |  min time  |  avg time  |  max time  |%varavg| %total
---------------------------------------------------------------
Pair    | 0.53663    | 1.4978     | 1.9543     |  33.0 | 72.01
Neigh   | 0          | 0          | 0          |   0.0 |  0.00
Comm    | 0.034584   | 0.33614    | 1.0094     |  48.5 | 16.16
Output  | 0          | 0          | 0          |   0.0 |  0.00
Modify  | 2.1854e-05 | 0.002926   | 0.0063147  |   2.5 |  0.14
Other   |            | 0.2432     |            |       | 11.69

Nlocal:        2776.45 ave        3959 max           0 min
Histogram: 8 4 4 0 4 12 8 2 28 34
Nghost:        3879.03 ave        5424 max         232 min
Histogram: 8 0 8 0 16 0 8 8 16 40
Neighs:        79213.4 ave      115419 max           0 min
Histogram: 8 4 4 0 10 6 8 8 24 32

Total # of neighbors = 8238189
Ave neighs/atom = 28.530426
Neighbor list builds = 0
Dangerous builds = 0
The dot product: 9.62591715167456e-09
Setting atom values ...
  1 settings made for x
  1 settings made for y
  1 settings made for z
Setting up cg style minimization ...
  Unit style    : metal
  Current step  : 4276
Per MPI rank memory allocation (min/avg/max) = 5.441 | 5.816 | 6.074 Mbytes
Step PotEng KinEng TotEng v_fx v_fy v_fz 
    4276   -1152449.3            0   -1152449.3 -0.0064840309 -0.0021238047 -0.0083047829 
    4482   -1152449.3            0   -1152449.3 5.6789886e-06 1.5260199e-06 7.5386914e-06 
Loop time of 2.46469 on 104 procs for 206 steps with 288751 atoms

99.9% CPU use with 104 MPI tasks x 1 OpenMP threads

Minimization stats:
  Stopping criterion = energy tolerance
  Energy initial, next-to-last, final = 
     -1152449.29875832  -1152449.29962133  -1152449.29962133
  Force two-norm initial, final = 0.12333412 5.7977066e-05
  Force max component initial, final = 0.043522678 7.8840480e-06
  Final line search alpha, max atom move = 1.0000000 7.8840480e-06
  Iterations, force evaluations = 206 412

MPI task timing breakdown:
Section |  min time  |  avg time  |  max time  |%varavg| %total
---------------------------------------------------------------
Pair    | 0.62408    | 1.7337     | 2.2738     |  35.4 | 70.34
Neigh   | 0          | 0          | 0          |   0.0 |  0.00
Comm    | 0.040093   | 0.39731    | 1.1705     |  51.2 | 16.12
Output  | 0          | 0          | 0          |   0.0 |  0.00
Modify  | 2.3957e-05 | 0.0034091  | 0.0074017  |   2.7 |  0.14
Other   |            | 0.3302     |            |       | 13.40

Nlocal:        2776.45 ave        3959 max           0 min
Histogram: 8 4 4 0 4 12 8 2 28 34
Nghost:        3879.11 ave        5424 max         232 min
Histogram: 8 0 8 0 16 0 8 8 16 40
Neighs:        79213.4 ave      115419 max           0 min
Histogram: 8 4 4 0 10 6 8 8 24 32

Total # of neighbors = 8238189
Ave neighs/atom = 28.530426
Neighbor list builds = 0
Dangerous builds = 0
The dot product: -3.40552014501919e-09
Setting atom values ...
  1 settings made for x
  1 settings made for y
  1 settings made for z
Setting up cg style minimization ...
  Unit style    : metal
  Current step  : 4482
Per MPI rank memory allocation (min/avg/max) = 5.441 | 5.816 | 6.074 Mbytes
Step PotEng KinEng TotEng v_fx v_fy v_fz 
    4482   -1152449.3            0   -1152449.3 -0.007379351 -0.0042255149 -0.0080333449 
    4673   -1152449.3            0   -1152449.3 -1.9071969e-05 -8.7498685e-06 -2.2484082e-05 
Loop time of 2.24527 on 104 procs for 191 steps with 288751 atoms

99.9% CPU use with 104 MPI tasks x 1 OpenMP threads

Minimization stats:
  Stopping criterion = energy tolerance
  Energy initial, next-to-last, final = 
      -1152449.2857935  -1152449.28665873  -1152449.28665873
  Force two-norm initial, final = 0.12398356 9.6798217e-05
  Force max component initial, final = 0.043344599 2.2484082e-05
  Final line search alpha, max atom move = 1.0000000 2.2484082e-05
  Iterations, force evaluations = 191 382

MPI task timing breakdown:
Section |  min time  |  avg time  |  max time  |%varavg| %total
---------------------------------------------------------------
Pair    | 0.57729    | 1.6151     | 2.0992     |  34.3 | 71.93
Neigh   | 0          | 0          | 0          |   0.0 |  0.00
Comm    | 0.037525   | 0.36501    | 1.0846     |  49.6 | 16.26
Output  | 0          | 0          | 0          |   0.0 |  0.00
Modify  | 2.1856e-05 | 0.0031622  | 0.0068198  |   2.6 |  0.14
Other   |            | 0.262      |            |       | 11.67

Nlocal:        2776.45 ave        3959 max           0 min
Histogram: 8 4 4 0 4 12 8 2 28 34
Nghost:        3879.12 ave        5424 max         232 min
Histogram: 8 0 8 0 16 0 8 8 16 40
Neighs:        79213.3 ave      115419 max           0 min
Histogram: 8 4 4 0 10 6 8 8 24 32

Total # of neighbors = 8238187
Ave neighs/atom = 28.530419
Neighbor list builds = 0
Dangerous builds = 0
The dot product: 1.61021092117791e-08
Setting atom values ...
  1 settings made for x
  1 settings made for y
  1 settings made for z
Setting up cg style minimization ...
  Unit style    : metal
  Current step  : 4673
Per MPI rank memory allocation (min/avg/max) = 5.441 | 5.816 | 6.074 Mbytes
Step PotEng KinEng TotEng v_fx v_fy v_fz 
    4673   -1152449.3            0   -1152449.3 -0.0088743299 -0.0063225457 -0.0087038083 
    4852   -1152449.3            0   -1152449.3 5.7727222e-06 -2.3073876e-06 1.0751235e-05 
Loop time of 2.10028 on 104 procs for 179 steps with 288751 atoms

99.9% CPU use with 104 MPI tasks x 1 OpenMP threads

Minimization stats:
  Stopping criterion = energy tolerance
  Energy initial, next-to-last, final = 
      -1152449.2713186  -1152449.27217925  -1152449.27217925
  Force two-norm initial, final = 0.12455911 0.00013060705
  Force max component initial, final = 0.04312807 1.0751235e-05
  Final line search alpha, max atom move = 1.0000000 1.0751235e-05
  Iterations, force evaluations = 179 358

MPI task timing breakdown:
Section |  min time  |  avg time  |  max time  |%varavg| %total
---------------------------------------------------------------
Pair    | 0.54084    | 1.5075     | 1.9742     |  33.2 | 71.77
Neigh   | 0          | 0          | 0          |   0.0 |  0.00
Comm    | 0.031764   | 0.34166    | 1.0151     |  48.4 | 16.27
Output  | 0          | 0          | 0          |   0.0 |  0.00
Modify  | 2.0313e-05 | 0.0029581  | 0.0063589  |   2.6 |  0.14
Other   |            | 0.2482     |            |       | 11.82

Nlocal:        2776.45 ave        3959 max           0 min
Histogram: 8 4 4 0 4 12 8 2 28 34
Nghost:        3879.12 ave        5424 max         232 min
Histogram: 8 0 8 0 16 0 8 8 16 40
Neighs:        79213.3 ave      115419 max           0 min
Histogram: 8 4 4 0 10 6 8 8 24 32

Total # of neighbors = 8238186
Ave neighs/atom = 28.530415
Neighbor list builds = 0
Dangerous builds = 0
The dot product: -6.57204418364171e-09
Setting atom values ...
  1 settings made for x
  1 settings made for y
  1 settings made for z
Setting up cg style minimization ...
  Unit style    : metal
  Current step  : 4852
Per MPI rank memory allocation (min/avg/max) = 5.441 | 5.816 | 6.074 Mbytes
Step PotEng KinEng TotEng v_fx v_fy v_fz 
    4852   -1152449.3            0   -1152449.3 -0.011016214 -0.0081473999 -0.010615695 
    5000   -1152449.3            0   -1152449.3 -4.4199345e-05 7.1392427e-06 -7.4148128e-05 
    5025   -1152449.3            0   -1152449.3 4.0980727e-05 1.1655432e-05 5.4269609e-05 
Loop time of 2.02123 on 104 procs for 173 steps with 288751 atoms

99.9% CPU use with 104 MPI tasks x 1 OpenMP threads

Minimization stats:
  Stopping criterion = energy tolerance
  Energy initial, next-to-last, final = 
      -1152449.2553591  -1152449.25620685  -1152449.25620685
  Force two-norm initial, final = 0.1251176 0.00018585847
  Force max component initial, final = 0.044201167 5.4269609e-05
  Final line search alpha, max atom move = 1.0000000 5.4269609e-05
  Iterations, force evaluations = 173 346

MPI task timing breakdown:
Section |  min time  |  avg time  |  max time  |%varavg| %total
---------------------------------------------------------------
Pair    | 0.52054    | 1.4604     | 1.8951     |  32.7 | 72.25
Neigh   | 0          | 0          | 0          |   0.0 |  0.00
Comm    | 0.030075   | 0.32977    | 0.97987    |  47.6 | 16.32
Output  | 0.00033322 | 0.00033591 | 0.00046876 |   0.0 |  0.02
Modify  | 1.9566e-05 | 0.0028675  | 0.0061986  |   2.5 |  0.14
Other   |            | 0.2278     |            |       | 11.27

Nlocal:        2776.45 ave        3959 max           0 min
Histogram: 8 4 4 0 4 12 8 2 28 34
Nghost:        3879.12 ave        5424 max         232 min
Histogram: 8 0 8 0 16 0 8 8 16 40
Neighs:        79213.3 ave      115417 max           0 min
Histogram: 8 4 4 0 10 6 8 8 24 32

Total # of neighbors = 8238187
Ave neighs/atom = 28.530419
Neighbor list builds = 0
Dangerous builds = 0
The dot product: -7.99877967568395e-08
Setting atom values ...
  1 settings made for x
  1 settings made for y
  1 settings made for z
Setting up cg style minimization ...
  Unit style    : metal
  Current step  : 5025
Per MPI rank memory allocation (min/avg/max) = 5.441 | 5.816 | 6.074 Mbytes
Step PotEng KinEng TotEng v_fx v_fy v_fz 
    5025   -1152449.2            0   -1152449.2 -0.014241267 -0.0096129182 -0.014543171 
    5266   -1152449.2            0   -1152449.2 2.1345592e-06 1.3171074e-08 3.3111194e-06 
Loop time of 2.82043 on 104 procs for 241 steps with 288751 atoms

99.9% CPU use with 104 MPI tasks x 1 OpenMP threads

Minimization stats:
  Stopping criterion = energy tolerance
  Energy initial, next-to-last, final = 
       -1152449.237997  -1152449.23883313  -1152449.23883313
  Force two-norm initial, final = 0.12630963 1.1072901e-05
  Force max component initial, final = 0.047461029 3.3111194e-06
  Final line search alpha, max atom move = 1.0000000 3.3111194e-06
  Iterations, force evaluations = 241 482

MPI task timing breakdown:
Section |  min time  |  avg time  |  max time  |%varavg| %total
---------------------------------------------------------------
Pair    | 0.72566    | 2.024      | 2.6537     |  38.5 | 71.76
Neigh   | 0          | 0          | 0          |   0.0 |  0.00
Comm    | 0.048912   | 0.45722    | 1.3655     |  56.1 | 16.21
Output  | 0          | 0          | 0          |   0.0 |  0.00
Modify  | 2.7369e-05 | 0.0039821  | 0.0085726  |   3.0 |  0.14
Other   |            | 0.3353     |            |       | 11.89

Nlocal:        2776.45 ave        3960 max           0 min
Histogram: 8 4 4 0 4 12 8 2 28 34
Nghost:        3879.12 ave        5424 max         232 min
Histogram: 8 0 8 0 16 0 8 8 16 40
Neighs:        79213.3 ave      115437 max           0 min
Histogram: 8 4 4 0 10 6 8 8 24 32

Total # of neighbors = 8238185
Ave neighs/atom = 28.530412
Neighbor list builds = 0
Dangerous builds = 0
The dot product: -7.85282247869021e-09
Setting atom values ...
  1 settings made for x
  1 settings made for y
  1 settings made for z
Setting up cg style minimization ...
  Unit style    : metal
  Current step  : 5266
Per MPI rank memory allocation (min/avg/max) = 5.441 | 5.816 | 6.074 Mbytes
Step PotEng KinEng TotEng v_fx v_fy v_fz 
    5266   -1152449.2            0   -1152449.2 -0.019309511 -0.010407988 -0.022006626 
    5543   -1152449.3            0   -1152449.3 -5.7906932e-06 -2.0916824e-06 -7.4174828e-06 
Loop time of 3.23069 on 104 procs for 277 steps with 288751 atoms

99.9% CPU use with 104 MPI tasks x 1 OpenMP threads

Minimization stats:
  Stopping criterion = energy tolerance
  Energy initial, next-to-last, final = 
     -1152449.21946028    -1152449.250044    -1152449.250044
  Force two-norm initial, final = 0.13031135 5.8025158e-05
  Force max component initial, final = 0.050695571 1.3666972e-05
  Final line search alpha, max atom move = 1.0000000 1.3666972e-05
  Iterations, force evaluations = 277 552

MPI task timing breakdown:
Section |  min time  |  avg time  |  max time  |%varavg| %total
---------------------------------------------------------------
Pair    | 0.83302    | 2.3233     | 3.0163     |  41.1 | 71.91
Neigh   | 1.0604e-05 | 0.0029283  | 0.0042596  |   2.2 |  0.09
Comm    | 0.051911   | 0.51979    | 1.558      |  60.4 | 16.09
Output  | 0          | 0          | 0          |   0.0 |  0.00
Modify  | 3.128e-05  | 0.0045628  | 0.00983    |   3.2 |  0.14
Other   |            | 0.3801     |            |       | 11.77

Nlocal:        2776.45 ave        3960 max           0 min
Histogram: 8 4 4 0 4 12 8 2 28 34
Nghost:        3879.12 ave        5424 max         232 min
Histogram: 8 0 8 0 16 0 8 8 16 40
Neighs:        79213.3 ave      115437 max           0 min
Histogram: 8 4 4 0 10 6 8 8 24 32

Total # of neighbors = 8238179
Ave neighs/atom = 28.530391
Neighbor list builds = 1
Dangerous builds = 0
The dot product: 7.15545445268305e-07
Setting atom values ...
  1 settings made for x
  1 settings made for y
  1 settings made for z
Setting up cg style minimization ...
  Unit style    : metal
  Current step  : 5543
Per MPI rank memory allocation (min/avg/max) = 5.441 | 5.816 | 6.074 Mbytes
Step PotEng KinEng TotEng v_fx v_fy v_fz 
    5543   -1152449.2            0   -1152449.2 -0.027988343 -0.033889436 -0.023826098 
    5763   -1152449.2            0   -1152449.2 8.6665941e-06 3.4220759e-06 1.5074902e-05 
Loop time of 2.57391 on 104 procs for 220 steps with 288751 atoms

99.9% CPU use with 104 MPI tasks x 1 OpenMP threads

Minimization stats:
  Stopping criterion = energy tolerance
  Energy initial, next-to-last, final = 
     -1152449.24564027  -1152449.24930735  -1152449.24930735
  Force two-norm initial, final = 0.15068044 0.00013474357
  Force max component initial, final = 0.055806914 2.4562469e-05
  Final line search alpha, max atom move = 1.0000000 2.4562469e-05
  Iterations, force evaluations = 220 440

MPI task timing breakdown:
Section |  min time  |  avg time  |  max time  |%varavg| %total
---------------------------------------------------------------
Pair    | 0.66624    | 1.8442     | 2.4146     |  36.5 | 71.65
Neigh   | 0          | 0          | 0          |   0.0 |  0.00
Comm    | 0.037843   | 0.41666    | 1.2432     |  53.3 | 16.19
Output  | 0          | 0          | 0          |   0.0 |  0.00
Modify  | 2.5125e-05 | 0.0036396  | 0.0078112  |   2.8 |  0.14
Other   |            | 0.3095     |            |       | 12.02

Nlocal:        2776.45 ave        3959 max           0 min
Histogram: 8 4 4 0 4 12 8 2 28 34
Nghost:        3879.03 ave        5424 max         232 min
Histogram: 8 0 8 0 16 0 8 8 16 40
Neighs:        79213.3 ave      115407 max           0 min
Histogram: 8 4 4 0 10 6 8 8 24 32

Total # of neighbors = 8238183
Ave neighs/atom = 28.530405
Neighbor list builds = 0
Dangerous builds = 0
The dot product: -7.48520636546925e-07
Setting atom values ...
  1 settings made for x
  1 settings made for y
  1 settings made for z
Setting up cg style minimization ...
  Unit style    : metal
  Current step  : 5763
Per MPI rank memory allocation (min/avg/max) = 5.441 | 5.816 | 6.074 Mbytes
Step PotEng KinEng TotEng v_fx v_fy v_fz 
    5763   -1152449.3            0   -1152449.3 -0.014973593 -0.038233538 0.0010320982 
    5952   -1152449.3            0   -1152449.3 -3.8558986e-06 -3.0775242e-07 -9.346231e-06 
Loop time of 2.21007 on 104 procs for 189 steps with 288751 atoms

99.9% CPU use with 104 MPI tasks x 1 OpenMP threads

Minimization stats:
  Stopping criterion = energy tolerance
  Energy initial, next-to-last, final = 
     -1152449.25028353  -1152449.25219008  -1152449.25219008
  Force two-norm initial, final = 0.15357692 9.1958113e-05
  Force max component initial, final = 0.055036572 2.0326839e-05
  Final line search alpha, max atom move = 1.0000000 2.0326839e-05
  Iterations, force evaluations = 189 378

MPI task timing breakdown:
Section |  min time  |  avg time  |  max time  |%varavg| %total
---------------------------------------------------------------
Pair    | 0.56905    | 1.5948     | 2.0814     |  34.1 | 72.16
Neigh   | 0          | 0          | 0          |   0.0 |  0.00
Comm    | 0.033576   | 0.35871    | 1.0672     |  50.0 | 16.23
Output  | 0          | 0          | 0          |   0.0 |  0.00
Modify  | 2.1468e-05 | 0.0031239  | 0.0067172  |   2.6 |  0.14
Other   |            | 0.2534     |            |       | 11.47

Nlocal:        2776.45 ave        3956 max           0 min
Histogram: 8 4 4 0 4 12 8 0 30 34
Nghost:        3879.11 ave        5424 max         232 min
Histogram: 8 0 8 0 16 0 8 8 16 40
Neighs:        79213.3 ave      115303 max           0 min
Histogram: 8 4 4 0 10 6 8 8 24 32

Total # of neighbors = 8238186
Ave neighs/atom = 28.530415
Neighbor list builds = 0
Dangerous builds = 0
The dot product: 9.00412478457596e-08
Setting atom values ...
  1 settings made for x
  1 settings made for y
  1 settings made for z
Setting up cg style minimization ...
  Unit style    : metal
  Current step  : 5952
Per MPI rank memory allocation (min/avg/max) = 5.441 | 5.816 | 6.074 Mbytes
Step PotEng KinEng TotEng v_fx v_fy v_fz 
    5952   -1152449.3            0   -1152449.3 -0.014281109  -0.04935338  0.012759659 
    6000   -1152449.3            0   -1152449.3 4.1525448e-05 4.5453467e-06 0.00010353121 
    6042   -1152449.3            0   -1152449.3 1.7714846e-05 9.0470955e-06 3.6973059e-05 
Loop time of 1.05326 on 104 procs for 90 steps with 288751 atoms

99.9% CPU use with 104 MPI tasks x 1 OpenMP threads

Minimization stats:
  Stopping criterion = energy tolerance
  Energy initial, next-to-last, final = 
     -1152449.25427187  -1152449.25547189  -1152449.25547189
  Force two-norm initial, final = 0.15226176 0.00017252722
  Force max component initial, final = 0.055470852 3.6973059e-05
  Final line search alpha, max atom move = 1.0000000 3.6973059e-05
  Iterations, force evaluations = 90 180

MPI task timing breakdown:
Section |  min time  |  avg time  |  max time  |%varavg| %total
---------------------------------------------------------------
Pair    | 0.27209    | 0.75664    | 0.99225    |  23.5 | 71.84
Neigh   | 0          | 0          | 0          |   0.0 |  0.00
Comm    | 0.016276   | 0.17049    | 0.50828    |  34.3 | 16.19
Output  | 0.00015674 | 0.00015938 | 0.00025955 |   0.0 |  0.02
Modify  | 1.0403e-05 | 0.0014919  | 0.0032378  |   1.8 |  0.14
Other   |            | 0.1245     |            |       | 11.82

Nlocal:        2776.45 ave        3956 max           0 min
Histogram: 8 4 4 0 4 12 8 0 30 34
Nghost:        3879.11 ave        5424 max         232 min
Histogram: 8 0 8 0 16 0 8 8 16 40
Neighs:        79213.3 ave      115300 max           0 min
Histogram: 8 4 4 0 10 6 8 8 24 32

Total # of neighbors = 8238182
Ave neighs/atom = 28.530402
Neighbor list builds = 0
Dangerous builds = 0
The dot product: -2.30031776161441e-07
Setting atom values ...
  1 settings made for x
  1 settings made for y
  1 settings made for z
Setting up cg style minimization ...
  Unit style    : metal
  Current step  : 6042
Per MPI rank memory allocation (min/avg/max) = 5.441 | 5.816 | 6.074 Mbytes
Step PotEng KinEng TotEng v_fx v_fy v_fz 
    6042   -1152449.3            0   -1152449.3 -0.013620802 -0.057463118  0.020619442 
    6312   -1152449.3            0   -1152449.3 -1.4214114e-06 2.5007415e-06 -6.2242574e-06 
Loop time of 3.18051 on 104 procs for 270 steps with 288751 atoms

99.9% CPU use with 104 MPI tasks x 1 OpenMP threads

Minimization stats:
  Stopping criterion = energy tolerance
  Energy initial, next-to-last, final = 
     -1152449.25693172  -1152449.29755644  -1152449.29755644
  Force two-norm initial, final = 0.15749113 3.1753630e-05
  Force max component initial, final = 0.057463118 6.2242574e-06
  Final line search alpha, max atom move = 1.0000000 6.2242574e-06
  Iterations, force evaluations = 270 539

MPI task timing breakdown:
Section |  min time  |  avg time  |  max time  |%varavg| %total
---------------------------------------------------------------
Pair    | 0.8144     | 2.2758     | 2.9658     |  40.7 | 71.55
Neigh   | 1.0312e-05 | 0.0029354  | 0.0042566  |   2.2 |  0.09
Comm    | 0.050281   | 0.5136     | 1.5161     |  59.0 | 16.15
Output  | 0          | 0          | 0          |   0.0 |  0.00
Modify  | 3.0877e-05 | 0.0044488  | 0.0096205  |   3.1 |  0.14
Other   |            | 0.3837     |            |       | 12.07

Nlocal:        2776.45 ave        3958 max           0 min
Histogram: 8 4 4 0 4 12 8 2 28 34
Nghost:        3879.11 ave        5424 max         232 min
Histogram: 8 0 8 0 16 0 8 8 16 40
Neighs:        79213.4 ave      115370 max           0 min
Histogram: 8 4 4 0 10 6 8 8 24 32

Total # of neighbors = 8238197
Ave neighs/atom = 28.530454
Neighbor list builds = 1
Dangerous builds = 0
The dot product: -5.57835614779971e-08
Setting atom values ...
  1 settings made for x
  1 settings made for y
  1 settings made for z
Setting up cg style minimization ...
  Unit style    : metal
  Current step  : 6312
Per MPI rank memory allocation (min/avg/max) = 5.441 | 5.816 | 6.074 Mbytes
Step PotEng KinEng TotEng v_fx v_fy v_fz 
    6312   -1152449.3            0   -1152449.3  0.028767582  0.058998195  0.058746775 
    6604   -1152449.3            0   -1152449.3 1.1073684e-07 -1.3179177e-07 4.2946231e-07 
Loop time of 3.40058 on 104 procs for 292 steps with 288751 atoms

99.9% CPU use with 104 MPI tasks x 1 OpenMP threads

Minimization stats:
  Stopping criterion = energy tolerance
  Energy initial, next-to-last, final = 
     -1152449.30887232    -1152449.311154    -1152449.311154
  Force two-norm initial, final = 0.16258008 2.1483356e-06
  Force max component initial, final = 0.058998195 6.4826612e-07
  Final line search alpha, max atom move = 1.0000000 6.4826612e-07
  Iterations, force evaluations = 292 584

MPI task timing breakdown:
Section |  min time  |  avg time  |  max time  |%varavg| %total
---------------------------------------------------------------
Pair    | 0.87898    | 2.4491     | 3.1968     |  42.3 | 72.02
Neigh   | 0          | 0          | 0          |   0.0 |  0.00
Comm    | 0.049824   | 0.55329    | 1.6564     |  61.8 | 16.27
Output  | 0          | 0          | 0          |   0.0 |  0.00
Modify  | 3.2779e-05 | 0.0048174  | 0.010332   |   3.3 |  0.14
Other   |            | 0.3934     |            |       | 11.57

Nlocal:        2776.45 ave        3954 max           0 min
Histogram: 8 4 4 0 4 12 8 0 30 34
Nghost:        3879.07 ave        5424 max         232 min
Histogram: 8 0 8 0 16 0 8 8 16 40
Neighs:        79213.4 ave      115248 max           0 min
Histogram: 8 4 4 0 10 6 8 8 24 32

Total # of neighbors = 8238197
Ave neighs/atom = 28.530454
Neighbor list builds = 0
Dangerous builds = 0
The dot product: 5.65192858063236e-10
Setting atom values ...
  1 settings made for x
  1 settings made for y
  1 settings made for z
Setting up cg style minimization ...
  Unit style    : metal
  Current step  : 6604
Per MPI rank memory allocation (min/avg/max) = 5.441 | 5.816 | 6.074 Mbytes
Step PotEng KinEng TotEng v_fx v_fy v_fz 
    6604   -1152449.3            0   -1152449.3 -0.006054135 -0.071118524  0.027048216 
    6722   -1152449.3            0   -1152449.3 1.216054e-05 -3.1915904e-05 5.8117544e-05 
Loop time of 1.37483 on 104 procs for 118 steps with 288751 atoms

99.9% CPU use with 104 MPI tasks x 1 OpenMP threads

Minimization stats:
  Stopping criterion = energy tolerance
  Energy initial, next-to-last, final = 
     -1152449.32050108  -1152449.32174516  -1152449.32174516
  Force two-norm initial, final = 0.16162293 0.00027572106
  Force max component initial, final = 0.071118524 7.0288228e-05
  Final line search alpha, max atom move = 1.0000000 7.0288228e-05
  Iterations, force evaluations = 118 236

MPI task timing breakdown:
Section |  min time  |  avg time  |  max time  |%varavg| %total
---------------------------------------------------------------
Pair    | 0.3549     | 0.99512    | 1.2917     |  27.0 | 72.38
Neigh   | 0          | 0          | 0          |   0.0 |  0.00
Comm    | 0.021627   | 0.22244    | 0.66755    |  39.5 | 16.18
Output  | 0          | 0          | 0          |   0.0 |  0.00
Modify  | 1.3483e-05 | 0.0019521  | 0.0042004  |   2.1 |  0.14
Other   |            | 0.1553     |            |       | 11.30

Nlocal:        2776.45 ave        3958 max           0 min
Histogram: 8 4 4 0 4 12 8 4 26 34
Nghost:        3879.09 ave        5425 max         232 min
Histogram: 8 0 8 0 16 0 8 8 16 40
Neighs:        79213.4 ave      115379 max           0 min
Histogram: 8 4 4 0 10 6 8 8 24 32

Total # of neighbors = 8238195
Ave neighs/atom = 28.530447
Neighbor list builds = 0
Dangerous builds = 0
The dot product: 2.63181429071345e-07
Setting atom values ...
  1 settings made for x
  1 settings made for y
  1 settings made for z
Setting up cg style minimization ...
  Unit style    : metal
  Current step  : 6722
Per MPI rank memory allocation (min/avg/max) = 5.441 | 5.816 | 6.074 Mbytes
Step PotEng KinEng TotEng v_fx v_fy v_fz 
    6722   -1152449.3            0   -1152449.3 -0.00048395587 -0.053841392   0.03147209 
    6903   -1152449.3            0   -1152449.3 -5.5820917e-06 -1.2384593e-05 -9.6217053e-06 
Loop time of 2.12222 on 104 procs for 181 steps with 288751 atoms

99.9% CPU use with 104 MPI tasks x 1 OpenMP threads

Minimization stats:
  Stopping criterion = energy tolerance
  Energy initial, next-to-last, final = 
      -1152449.3295213  -1152449.33070676  -1152449.33070676
  Force two-norm initial, final = 0.15656049 0.0001163362
  Force max component initial, final = 0.053996904 2.0582603e-05
  Final line search alpha, max atom move = 1.0000000 2.0582603e-05
  Iterations, force evaluations = 181 362

MPI task timing breakdown:
Section |  min time  |  avg time  |  max time  |%varavg| %total
---------------------------------------------------------------
Pair    | 0.54505    | 1.5212     | 1.9899     |  33.4 | 71.68
Neigh   | 0          | 0          | 0          |   0.0 |  0.00
Comm    | 0.032089   | 0.3451     | 1.0251     |  48.6 | 16.26
Output  | 0          | 0          | 0          |   0.0 |  0.00
Modify  | 2.2471e-05 | 0.0029931  | 0.0064023  |   2.6 |  0.14
Other   |            | 0.2529     |            |       | 11.92

Nlocal:        2776.45 ave        3958 max           0 min
Histogram: 8 4 4 0 4 12 8 4 26 34
Nghost:        3879.12 ave        5425 max         232 min
Histogram: 8 0 8 0 16 0 8 8 16 40
Neighs:        79213.4 ave      115379 max           0 min
Histogram: 8 4 4 0 10 6 8 8 24 32

Total # of neighbors = 8238197
Ave neighs/atom = 28.530454
Neighbor list builds = 0
Dangerous builds = 0
The dot product: 1.48913704670208e-08
Setting atom values ...
  1 settings made for x
  1 settings made for y
  1 settings made for z
Setting up cg style minimization ...
  Unit style    : metal
  Current step  : 6903
Per MPI rank memory allocation (min/avg/max) = 5.441 | 5.816 | 6.074 Mbytes
Step PotEng KinEng TotEng v_fx v_fy v_fz 
    6903   -1152449.3            0   -1152449.3 -0.0012782432 -0.058253897  0.030875989 
    7000   -1152449.3            0   -1152449.3 -2.5987837e-05 -2.1431397e-05 -6.6707265e-05 
    7132   -1152449.3            0   -1152449.3 4.563978e-07 3.1184242e-06 -4.6591241e-07 
Loop time of 2.66689 on 104 procs for 229 steps with 288751 atoms

99.9% CPU use with 104 MPI tasks x 1 OpenMP threads

Minimization stats:
  Stopping criterion = energy tolerance
  Energy initial, next-to-last, final = 
     -1152449.33685044  -1152449.33806669  -1152449.33806669
  Force two-norm initial, final = 0.15888276 2.4077374e-05
  Force max component initial, final = 0.058253897 5.1779524e-06
  Final line search alpha, max atom move = 1.0000000 5.1779524e-06
  Iterations, force evaluations = 229 458

MPI task timing breakdown:
Section |  min time  |  avg time  |  max time  |%varavg| %total
---------------------------------------------------------------
Pair    | 0.68653    | 1.9309     | 2.5076     |  37.7 | 72.40
Neigh   | 0          | 0          | 0          |   0.0 |  0.00
Comm    | 0.040537   | 0.4355     | 1.2953     |  55.0 | 16.33
Output  | 0.0002403  | 0.00024274 | 0.00038023 |   0.0 |  0.01
Modify  | 2.5885e-05 | 0.00379    | 0.0081501  |   2.9 |  0.14
Other   |            | 0.2965     |            |       | 11.12

Nlocal:        2776.45 ave        3958 max           0 min
Histogram: 8 4 4 0 4 12 8 4 26 34
Nghost:        3879.12 ave        5426 max         232 min
Histogram: 8 0 8 0 16 0 8 8 16 40
Neighs:        79213.4 ave      115379 max           0 min
Histogram: 8 4 4 0 10 6 8 8 24 32

Total # of neighbors = 8238197
Ave neighs/atom = 28.530454
Neighbor list builds = 0
Dangerous builds = 0
The dot product: -1.15594360592774e-08
Setting atom values ...
  1 settings made for x
  1 settings made for y
  1 settings made for z
Setting up cg style minimization ...
  Unit style    : metal
  Current step  : 7132
Per MPI rank memory allocation (min/avg/max) = 5.441 | 5.816 | 6.074 Mbytes
Step PotEng KinEng TotEng v_fx v_fy v_fz 
    7132   -1152449.3            0   -1152449.3 -0.0013006945  -0.05878353    0.0301162 
    7308   -1152449.3            0   -1152449.3 1.0641627e-05 1.2501024e-05 2.5086945e-05 
[...]
Histogram: 8 4 4 0 4 12 8 4 26 34
Nghost:        3879.11 ave        5424 max         232 min
Histogram: 8 0 8 0 16 0 8 8 16 40
Neighs:        79213.5 ave      115355 max           0 min
Histogram: 8 4 4 0 10 6 8 8 24 32

Total # of neighbors = 8238200
Ave neighs/atom = 28.530464
Neighbor list builds = 0
Dangerous builds = 0
The dot product: 6.33623598298241e-10
Setting atom values ...
  1 settings made for x
  1 settings made for y
  1 settings made for z
Setting up cg style minimization ...
  Unit style    : metal
  Current step  : 27285
Per MPI rank memory allocation (min/avg/max) = 5.441 | 5.816 | 6.074 Mbytes
Step PotEng KinEng TotEng v_fx v_fy v_fz 
   27285   -1152449.4            0   -1152449.4 -0.029761921 0.0082274447 -0.042298717 
   27519   -1152449.4            0   -1152449.4 -1.001831e-06 -6.0376163e-07 -1.4250925e-06 
Loop time of 2.78091 on 104 procs for 234 steps with 288751 atoms

99.9% CPU use with 104 MPI tasks x 1 OpenMP threads

Minimization stats:
  Stopping criterion = energy tolerance
  Energy initial, next-to-last, final = 
     -1152449.43343075  -1152449.43488069  -1152449.43488069
  Force two-norm initial, final = 0.1737195 2.0024213e-05
  Force max component initial, final = 0.074382931 4.3549128e-06
  Final line search alpha, max atom move = 1.0000000 4.3549128e-06
  Iterations, force evaluations = 234 468

MPI task timing breakdown:
Section |  min time  |  avg time  |  max time  |%varavg| %total
---------------------------------------------------------------
Pair    | 0.70642    | 1.9761     | 2.5962     |  38.1 | 71.06
Neigh   | 0          | 0          | 0          |   0.0 |  0.00
Comm    | 0.040735   | 0.45608    | 1.344      |  55.5 | 16.40
Output  | 0          | 0          | 0          |   0.0 |  0.00
Modify  | 2.8374e-05 | 0.0038661  | 0.0083878  |   2.9 |  0.14
Other   |            | 0.3449     |            |       | 12.40

Nlocal:        2776.45 ave        3959 max           0 min
Histogram: 8 4 4 0 4 12 8 4 26 34
Nghost:        3879.11 ave        5424 max         232 min
Histogram: 8 0 8 0 16 0 8 8 16 40
Neighs:        79213.5 ave      115358 max           0 min
Histogram: 8 4 4 0 10 6 8 8 24 32

Total # of neighbors = 8238200
Ave neighs/atom = 28.530464
Neighbor list builds = 0
Dangerous builds = 0
The dot product: 6.63884027080357e-09
Setting atom values ...
  1 settings made for x
  1 settings made for y
  1 settings made for z
Setting up cg style minimization ...
  Unit style    : metal
  Current step  : 27519
Per MPI rank memory allocation (min/avg/max) = 5.441 | 5.816 | 6.074 Mbytes
Step PotEng KinEng TotEng v_fx v_fy v_fz 
   27519   -1152449.4            0   -1152449.4 -0.028429447  0.011995309 -0.040494698 
   27695   -1152449.4            0   -1152449.4 -2.0108621e-06 1.3290857e-05 -2.8392822e-06 
Loop time of 2.06775 on 104 procs for 176 steps with 288751 atoms

99.9% CPU use with 104 MPI tasks x 1 OpenMP threads

Minimization stats:
  Stopping criterion = energy tolerance
  Energy initial, next-to-last, final = 
     -1152449.42793906  -1152449.42934087  -1152449.42934087
  Force two-norm initial, final = 0.17101801 0.00018235607
  Force max component initial, final = 0.073578666 2.0965832e-05
  Final line search alpha, max atom move = 1.0000000 2.0965832e-05
  Iterations, force evaluations = 176 352

MPI task timing breakdown:
Section |  min time  |  avg time  |  max time  |%varavg| %total
---------------------------------------------------------------
Pair    | 0.53116    | 1.4818     | 1.9485     |  33.0 | 71.66
Neigh   | 0          | 0          | 0          |   0.0 |  0.00
Comm    | 0.0329     | 0.33779    | 1.0114     |  48.2 | 16.34
Output  | 0          | 0          | 0          |   0.0 |  0.00
Modify  | 2.1688e-05 | 0.0029096  | 0.0063249  |   2.6 |  0.14
Other   |            | 0.2453     |            |       | 11.86

Nlocal:        2776.45 ave        3959 max           0 min
Histogram: 8 4 4 0 4 12 8 4 26 34
Nghost:        3879.11 ave        5424 max         232 min
Histogram: 8 0 8 0 16 0 8 8 16 40
Neighs:        79213.5 ave      115364 max           0 min
Histogram: 8 4 4 0 10 6 8 8 24 32

Total # of neighbors = 8238205
Ave neighs/atom = 28.530481
Neighbor list builds = 0
Dangerous builds = 0
The dot product: 3.80896699955604e-09
Setting atom values ...
  1 settings made for x
  1 settings made for y
  1 settings made for z
Setting up cg style minimization ...
  Unit style    : metal
  Current step  : 27695
Per MPI rank memory allocation (min/avg/max) = 5.441 | 5.816 | 6.074 Mbytes
Step PotEng KinEng TotEng v_fx v_fy v_fz 
   27695   -1152449.4            0   -1152449.4 -0.026847698  0.016689905 -0.038316389 
   27900   -1152449.4            0   -1152449.4 6.4437332e-06 -1.1974843e-05 9.1776064e-06 
Loop time of 2.42656 on 104 procs for 205 steps with 288751 atoms

99.9% CPU use with 104 MPI tasks x 1 OpenMP threads

Minimization stats:
  Stopping criterion = energy tolerance
  Energy initial, next-to-last, final = 
      -1152449.4208451    -1152449.422193    -1152449.422193
  Force two-norm initial, final = 0.16832812 7.3942598e-05
  Force max component initial, final = 0.072775834 1.1974843e-05
  Final line search alpha, max atom move = 1.0000000 1.1974843e-05
  Iterations, force evaluations = 205 410

MPI task timing breakdown:
Section |  min time  |  avg time  |  max time  |%varavg| %total
---------------------------------------------------------------
Pair    | 0.62004    | 1.7328     | 2.2831     |  35.8 | 71.41
Neigh   | 0          | 0          | 0          |   0.0 |  0.00
Comm    | 0.037263   | 0.40109    | 1.1985     |  52.0 | 16.53
Output  | 0          | 0          | 0          |   0.0 |  0.00
Modify  | 2.5171e-05 | 0.003384   | 0.0072679  |   2.7 |  0.14
Other   |            | 0.2893     |            |       | 11.92

Nlocal:        2776.45 ave        3959 max           0 min
Histogram: 8 4 4 0 4 12 8 4 26 34
Nghost:        3879.18 ave        5425 max         232 min
Histogram: 8 0 8 0 16 0 8 8 16 40
Neighs:        79213.5 ave      115365 max           0 min
Histogram: 8 4 4 0 10 6 8 8 24 32

Total # of neighbors = 8238206
Ave neighs/atom = 28.530485
Neighbor list builds = 0
Dangerous builds = 0
The dot product: -3.37985770137556e-08
Setting atom values ...
  1 settings made for x
  1 settings made for y
  1 settings made for z
Setting up cg style minimization ...
  Unit style    : metal
  Current step  : 27900
Per MPI rank memory allocation (min/avg/max) = 5.441 | 5.816 | 6.074 Mbytes
Step PotEng KinEng TotEng v_fx v_fy v_fz 
   27900   -1152449.4            0   -1152449.4 -0.024851689  0.022667784 -0.035528287 
   28000   -1152449.4            0   -1152449.4 -3.8712718e-05 0.00013515049 -5.5107686e-05 
   28085   -1152449.4            0   -1152449.4 -3.4756699e-06 -3.6399978e-06 -4.9849937e-06 
Loop time of 2.19406 on 104 procs for 185 steps with 288751 atoms

99.9% CPU use with 104 MPI tasks x 1 OpenMP threads

Minimization stats:
  Stopping criterion = energy tolerance
  Energy initial, next-to-last, final = 
     -1152449.41221838  -1152449.41351048  -1152449.41351048
  Force two-norm initial, final = 0.16592169 0.00012306941
  Force max component initial, final = 0.071922594 2.0982887e-05
  Final line search alpha, max atom move = 1.0000000 2.0982887e-05
  Iterations, force evaluations = 185 370

MPI task timing breakdown:
Section |  min time  |  avg time  |  max time  |%varavg| %total
---------------------------------------------------------------
Pair    | 0.56367    | 1.5601     | 2.0488     |  33.7 | 71.11
Neigh   | 0          | 0          | 0          |   0.0 |  0.00
Comm    | 0.033217   | 0.35801    | 1.0621     |  48.9 | 16.32
Output  | 0.00023898 | 0.00024838 | 0.00040032 |   0.0 |  0.01
Modify  | 2.2897e-05 | 0.0030613  | 0.0066289  |   2.6 |  0.14
Other   |            | 0.2726     |            |       | 12.43

Nlocal:        2776.45 ave        3959 max           0 min
Histogram: 8 4 4 0 4 12 8 4 26 34
Nghost:        3879.18 ave        5424 max         232 min
Histogram: 8 0 8 0 16 0 8 8 16 40
Neighs:        79213.5 ave      115362 max           0 min
Histogram: 8 4 4 0 10 6 8 8 24 32

Total # of neighbors = 8238207
Ave neighs/atom = 28.530488
Neighbor list builds = 0
Dangerous builds = 0
The dot product: 1.41213368567983e-08
Setting atom values ...
  1 settings made for x
  1 settings made for y
  1 settings made for z
Setting up cg style minimization ...
  Unit style    : metal
  Current step  : 28085
Per MPI rank memory allocation (min/avg/max) = 5.441 | 5.816 | 6.074 Mbytes
Step PotEng KinEng TotEng v_fx v_fy v_fz 
   28085   -1152449.4            0   -1152449.4 -0.021848686   0.03177626 -0.031284752 
   28272   -1152449.4            0   -1152449.4 1.1446001e-05 4.1881589e-06 1.6428987e-05 
Loop time of 2.20698 on 104 procs for 187 steps with 288751 atoms

99.9% CPU use with 104 MPI tasks x 1 OpenMP threads

Minimization stats:
  Stopping criterion = energy tolerance
  Energy initial, next-to-last, final = 
     -1152449.40223405  -1152449.40349436  -1152449.40349436
  Force two-norm initial, final = 0.1648798 8.8485334e-05
  Force max component initial, final = 0.071639379 1.6428987e-05
  Final line search alpha, max atom move = 1.0000000 1.6428987e-05
  Iterations, force evaluations = 187 374

MPI task timing breakdown:
Section |  min time  |  avg time  |  max time  |%varavg| %total
---------------------------------------------------------------
Pair    | 0.56584    | 1.5805     | 2.0755     |  34.2 | 71.62
Neigh   | 0          | 0          | 0          |   0.0 |  0.00
Comm    | 0.038415   | 0.36533    | 1.0975     |  49.7 | 16.55
Output  | 0          | 0          | 0          |   0.0 |  0.00
Modify  | 2.3721e-05 | 0.0030899  | 0.0067059  |   2.6 |  0.14
Other   |            | 0.258      |            |       | 11.69

Nlocal:        2776.45 ave        3959 max           0 min
Histogram: 8 4 4 0 4 12 8 4 26 34
Nghost:        3879.18 ave        5424 max         232 min
Histogram: 8 0 8 0 16 0 8 8 16 40
Neighs:        79213.5 ave      115362 max           0 min
Histogram: 8 4 4 0 10 6 8 8 24 32

Total # of neighbors = 8238204
Ave neighs/atom = 28.530478
Neighbor list builds = 0
Dangerous builds = 0
The dot product: -3.28139577474308e-08
Setting atom values ...
  1 settings made for x
  1 settings made for y
  1 settings made for z
Setting up cg style minimization ...
  Unit style    : metal
  Current step  : 28272
Per MPI rank memory allocation (min/avg/max) = 5.441 | 5.816 | 6.074 Mbytes
Step PotEng KinEng TotEng v_fx v_fy v_fz 
   28272   -1152449.4            0   -1152449.4 -0.018223319   0.04282906 -0.026179895 
   28311   -1152449.4            0   -1152449.4 -3.0086146e-05 -2.7026324e-06 -4.3233278e-05 
Loop time of 0.469146 on 104 procs for 39 steps with 288751 atoms

99.9% CPU use with 104 MPI tasks x 1 OpenMP threads

Minimization stats:
  Stopping criterion = energy tolerance
  Energy initial, next-to-last, final = 
      -1152449.3913216  -1152449.39281355  -1152449.39281355
  Force two-norm initial, final = 0.16743774 0.00028884219
  Force max component initial, final = 0.071366839 5.9707571e-05
  Final line search alpha, max atom move = 1.0000000 5.9707571e-05
  Iterations, force evaluations = 39 78

MPI task timing breakdown:
Section |  min time  |  avg time  |  max time  |%varavg| %total
---------------------------------------------------------------
Pair    | 0.12476    | 0.33355    | 0.4374     |  15.2 | 71.10
Neigh   | 0          | 0          | 0          |   0.0 |  0.00
Comm    | 0.0070228  | 0.076428   | 0.22392    |  22.5 | 16.29
Output  | 0          | 0          | 0          |   0.0 |  0.00
Modify  | 5.2815e-06 | 0.00065279 | 0.0014082  |   0.0 |  0.14
Other   |            | 0.05852    |            |       | 12.47

Nlocal:        2776.45 ave        3959 max           0 min
Histogram: 8 4 4 0 4 12 8 4 26 34
Nghost:        3879.16 ave        5424 max         232 min
Histogram: 8 0 8 0 16 0 8 8 16 40
Neighs:        79213.5 ave      115362 max           0 min
Histogram: 8 4 4 0 10 6 8 8 24 32

Total # of neighbors = 8238204
Ave neighs/atom = 28.530478
Neighbor list builds = 0
Dangerous builds = 0
The dot product: 2.08887644955553e-08
Setting atom values ...
  1 settings made for x
  1 settings made for y
  1 settings made for z
Setting up cg style minimization ...
  Unit style    : metal
  Current step  : 28311
Per MPI rank memory allocation (min/avg/max) = 5.441 | 5.816 | 6.074 Mbytes
Step PotEng KinEng TotEng v_fx v_fy v_fz 
   28311   -1152449.4            0   -1152449.4 -0.015191325  0.053130917  -0.02214527 
   28461   -1152449.4            0   -1152449.4 -9.3638289e-06 -2.4100104e-05 -1.3327362e-05 
Loop time of 1.77286 on 104 procs for 150 steps with 288751 atoms

99.9% CPU use with 104 MPI tasks x 1 OpenMP threads

Minimization stats:
  Stopping criterion = energy tolerance
  Energy initial, next-to-last, final = 
     -1152449.38080731  -1152449.38279577  -1152449.38279577
  Force two-norm initial, final = 0.1713173 0.00023051952
  Force max component initial, final = 0.070082464 2.7166832e-05
  Final line search alpha, max atom move = 1.0000000 2.7166832e-05
  Iterations, force evaluations = 150 300

MPI task timing breakdown:
Section |  min time  |  avg time  |  max time  |%varavg| %total
---------------------------------------------------------------
Pair    | 0.45353    | 1.2682     | 1.6705     |  30.6 | 71.53
Neigh   | 0          | 0          | 0          |   0.0 |  0.00
Comm    | 0.025579   | 0.2921     | 0.87078    |  44.4 | 16.48
Output  | 0          | 0          | 0          |   0.0 |  0.00
Modify  | 1.8422e-05 | 0.0024744  | 0.0053276  |   2.4 |  0.14
Other   |            | 0.2101     |            |       | 11.85

Nlocal:        2776.45 ave        3959 max           0 min
Histogram: 8 4 4 0 4 12 8 4 26 34
Nghost:        3879.16 ave        5424 max         232 min
Histogram: 8 0 8 0 16 0 8 8 16 40
Neighs:        79213.5 ave      115362 max           0 min
Histogram: 8 4 4 0 10 6 8 8 24 32

Total # of neighbors = 8238206
Ave neighs/atom = 28.530485
Neighbor list builds = 0
Dangerous builds = 0
The dot product: -4.20829744741536e-07
Setting atom values ...
  1 settings made for x
  1 settings made for y
  1 settings made for z
Setting up cg style minimization ...
  Unit style    : metal
  Current step  : 28461
Per MPI rank memory allocation (min/avg/max) = 5.441 | 5.816 | 6.074 Mbytes
Step PotEng KinEng TotEng v_fx v_fy v_fz 
   28461   -1152449.4            0   -1152449.4 -0.014783133  0.052409789 -0.022077055 
   28550   -1152449.4            0   -1152449.4 2.1328454e-05 -8.7900952e-06 3.0802654e-05 
Loop time of 1.04906 on 104 procs for 89 steps with 288751 atoms

99.9% CPU use with 104 MPI tasks x 1 OpenMP threads

Minimization stats:
  Stopping criterion = energy tolerance
  Energy initial, next-to-last, final = 
     -1152449.37165236  -1152449.37328708  -1152449.37328708
  Force two-norm initial, final = 0.16717883 0.00017360605
  Force max component initial, final = 0.070096483 4.5938361e-05
  Final line search alpha, max atom move = 1.0000000 4.5938361e-05
  Iterations, force evaluations = 89 178

MPI task timing breakdown:
Section |  min time  |  avg time  |  max time  |%varavg| %total
---------------------------------------------------------------
Pair    | 0.2695     | 0.75161    | 0.98723    |  23.5 | 71.65
Neigh   | 0          | 0          | 0          |   0.0 |  0.00
Comm    | 0.015924   | 0.17149    | 0.5143     |  34.3 | 16.35
Output  | 0          | 0          | 0          |   0.0 |  0.00
Modify  | 1.1178e-05 | 0.0014776  | 0.0032173  |   1.8 |  0.14
Other   |            | 0.1245     |            |       | 11.87

Nlocal:        2776.45 ave        3959 max           0 min
Histogram: 8 4 4 0 4 12 8 4 26 34
Nghost:        3879.18 ave        5424 max         232 min
Histogram: 8 0 8 0 16 0 8 8 16 40
Neighs:        79213.5 ave      115359 max           0 min
Histogram: 8 4 4 0 10 6 8 8 24 32

Total # of neighbors = 8238205
Ave neighs/atom = 28.530481
Neighbor list builds = 0
Dangerous builds = 0
The dot product: -1.20772009055633e-07
Setting atom values ...
  1 settings made for x
  1 settings made for y
  1 settings made for z
Setting up cg style minimization ...
  Unit style    : metal
  Current step  : 28550
Per MPI rank memory allocation (min/avg/max) = 5.441 | 5.816 | 6.074 Mbytes
Step PotEng KinEng TotEng v_fx v_fy v_fz 
   28550   -1152449.4            0   -1152449.4 -0.014704279  0.049269874 -0.022262325 
   28647   -1152449.4            0   -1152449.4 1.5400873e-05 -2.7380106e-06 2.2210323e-05 
Loop time of 1.14728 on 104 procs for 97 steps with 288751 atoms

99.9% CPU use with 104 MPI tasks x 1 OpenMP threads

Minimization stats:
  Stopping criterion = energy tolerance
  Energy initial, next-to-last, final = 
     -1152449.36223053  -1152449.36366853  -1152449.36366853
  Force two-norm initial, final = 0.16283817 0.00011116803
  Force max component initial, final = 0.069731917 2.2848821e-05
  Final line search alpha, max atom move = 1.0000000 2.2848821e-05
  Iterations, force evaluations = 97 194

MPI task timing breakdown:
Section |  min time  |  avg time  |  max time  |%varavg| %total
---------------------------------------------------------------
Pair    | 0.29579    | 0.82152    | 1.0811     |  24.5 | 71.61
Neigh   | 0          | 0          | 0          |   0.0 |  0.00
Comm    | 0.016797   | 0.18837    | 0.5607     |  35.8 | 16.42
Output  | 0          | 0          | 0          |   0.0 |  0.00
Modify  | 1.2145e-05 | 0.0016091  | 0.0034947  |   1.9 |  0.14
Other   |            | 0.1358     |            |       | 11.84

Nlocal:        2776.45 ave        3959 max           0 min
Histogram: 8 4 4 0 4 12 8 4 26 34
Nghost:        3879.18 ave        5424 max         232 min
Histogram: 8 0 8 0 16 0 8 8 16 40
Neighs:        79213.5 ave      115359 max           0 min
Histogram: 8 4 4 0 10 6 8 8 24 32

Total # of neighbors = 8238206
Ave neighs/atom = 28.530485
Neighbor list builds = 0
Dangerous builds = 0
The dot product: -4.42917834065607e-08
Setting atom values ...
  1 settings made for x
  1 settings made for y
  1 settings made for z
Setting up cg style minimization ...
  Unit style    : metal
  Current step  : 28647
Per MPI rank memory allocation (min/avg/max) = 5.441 | 5.816 | 6.074 Mbytes
Step PotEng KinEng TotEng v_fx v_fy v_fz 
   28647   -1152449.4            0   -1152449.4 -0.014158094  0.048065083 -0.021705406 
   28778   -1152449.4            0   -1152449.4 2.2443212e-05 -1.306316e-05 3.2655038e-05 
Loop time of 1.54723 on 104 procs for 131 steps with 288751 atoms

99.9% CPU use with 104 MPI tasks x 1 OpenMP threads

Minimization stats:
  Stopping criterion = energy tolerance
  Energy initial, next-to-last, final = 
     -1152449.35227741  -1152449.35365207  -1152449.35365207
  Force two-norm initial, final = 0.16002083 0.00017017015
  Force max component initial, final = 0.069182017 3.2655038e-05
  Final line search alpha, max atom move = 1.0000000 3.2655038e-05
  Iterations, force evaluations = 131 262

MPI task timing breakdown:
Section |  min time  |  avg time  |  max time  |%varavg| %total
---------------------------------------------------------------
Pair    | 0.39659    | 1.1031     | 1.4536     |  28.4 | 71.30
Neigh   | 0          | 0          | 0          |   0.0 |  0.00
Comm    | 0.023387   | 0.25186    | 0.75301    |  41.5 | 16.28
Output  | 0          | 0          | 0          |   0.0 |  0.00
Modify  | 1.6324e-05 | 0.0021688  | 0.0047106  |   2.2 |  0.14
Other   |            | 0.1901     |            |       | 12.28

Nlocal:        2776.45 ave        3959 max           0 min
Histogram: 8 4 4 0 4 12 8 4 26 34
Nghost:        3879.20 ave        5424 max         232 min
Histogram: 8 0 8 0 16 0 8 8 16 40
Neighs:        79213.5 ave      115359 max           0 min
Histogram: 8 4 4 0 10 6 8 8 24 32

Total # of neighbors = 8238203
Ave neighs/atom = 28.530474
Neighbor list builds = 0
Dangerous builds = 0
The dot product: -1.32989545023821e-07
