LAMMPS (29 Oct 2020)
OMP_NUM_THREADS environment is not set. Defaulting to 1 thread. (../comm.cpp:94)
  using 1 OpenMP thread(s) per MPI task
OMP_NUM_THREADS environment is not set. Defaulting to 1 thread. (../comm.cpp:94)
  using 1 OpenMP thread(s) per MPI task
Reading data file ...
  orthogonal box = (-122.39241 -121.13707 -37.090501) to (122.39241 121.13707 37.090501)
  13 by 4 by 2 MPI processor grid
  reading atoms ...
  288751 atoms
  read_data CPU = 0.460 seconds
199981 atoms in group inner
88770 atoms in group outer
1 atoms in group carbon
Neighbor list info ...
  update every 1 steps, delay 0 steps, check yes
  max neighbors/atom: 2000, page size: 100000
  master list distance cutoff = 5.6
  ghost atom cutoff = 5.6
  binsize = 2.8, bins = 88 87 27
  1 neighbor lists, perpetual/occasional/extra = 1 0 0
  (1) pair eam/alloy, perpetual
      attributes: half, newton on
      pair build: half/bin/atomonly/newton
      stencil: half/bin/3d/newton
      bin: standard
Setting up cg style minimization ...
  Unit style    : metal
  Current step  : 0
Per MPI rank memory allocation (min/avg/max) = 5.441 | 5.816 | 6.074 Mbytes
Step v_fx v_fy v_fz PotEng KinEng TotEng 
       0   0.14317834   -30.654004    51.307906     -1152433            0     -1152433 
     166 -2.890933e-06 -1.0766803e-05 -2.3841066e-05   -1152449.5            0   -1152449.5 
Loop time of 1.95186 on 104 procs for 166 steps with 288751 atoms

99.8% CPU use with 104 MPI tasks x 1 OpenMP threads

Minimization stats:
  Stopping criterion = energy tolerance
  Energy initial, next-to-last, final = 
     -1152432.99753404   -1152449.4503527   -1152449.4503527
  Force two-norm initial, final = 89.393883 0.00012768724
  Force max component initial, final = 58.345080 2.3841066e-05
  Final line search alpha, max atom move = 1.0000000 2.3841066e-05
  Iterations, force evaluations = 166 324

MPI task timing breakdown:
Section |  min time  |  avg time  |  max time  |%varavg| %total
---------------------------------------------------------------
Pair    | 0.5201     | 1.375      | 1.7702     |  30.8 | 70.44
Neigh   | 5.3694e-05 | 0.015205   | 0.022614   |   5.1 |  0.78
Comm    | 0.032334   | 0.31915    | 0.94661    |  45.5 | 16.35
Output  | 0          | 0          | 0          |   0.0 |  0.00
Modify  | 1.8973e-05 | 0.00177    | 0.0045774  |   2.6 |  0.09
Other   |            | 0.2408     |            |       | 12.34

Nlocal:        2776.45 ave        3961 max           0 min
Histogram: 8 4 4 0 6 10 8 2 28 34
Nghost:        3879.01 ave        5424 max         232 min
Histogram: 8 0 8 0 16 0 8 8 16 40
Neighs:        79213.5 ave      115463 max           0 min
Histogram: 8 4 4 0 10 6 8 8 24 32

Total # of neighbors = 8238208
Ave neighs/atom = 28.530492
Neighbor list builds = 5
Dangerous builds = 0
Setting atom values ...
  1 settings made for x
  1 settings made for y
  1 settings made for z
Setting up cg style minimization ...
  Unit style    : metal
  Current step  : 166
Per MPI rank memory allocation (min/avg/max) = 5.441 | 5.816 | 6.074 Mbytes
Step PotEng KinEng TotEng v_fx v_fy v_fz 
     166   -1152449.4            0   -1152449.4   0.01022254 -0.0083422748 -0.023223234 
     334   -1152449.5            0   -1152449.5 -4.2114127e-07 -9.2564064e-06 -7.2556888e-06 
Loop time of 1.9829 on 104 procs for 168 steps with 288751 atoms

99.9% CPU use with 104 MPI tasks x 1 OpenMP threads

Minimization stats:
  Stopping criterion = energy tolerance
  Energy initial, next-to-last, final = 
     -1152449.44967138  -1152449.45009686  -1152449.45009686
  Force two-norm initial, final = 0.094783432 0.00013070542
  Force max component initial, final = 0.045876212 9.2564064e-06
  Final line search alpha, max atom move = 1.0000000 9.2564064e-06
  Iterations, force evaluations = 168 336

MPI task timing breakdown:
Section |  min time  |  avg time  |  max time  |%varavg| %total
---------------------------------------------------------------
Pair    | 0.51042    | 1.4237     | 1.8367     |  32.2 | 71.80
Neigh   | 0          | 0          | 0          |   0.0 |  0.00
Comm    | 0.034768   | 0.32348    | 0.96672    |  47.4 | 16.31
Output  | 0          | 0          | 0          |   0.0 |  0.00
Modify  | 2.1003e-05 | 0.0027931  | 0.0059219  |   2.5 |  0.14
Other   |            | 0.233      |            |       | 11.75

Nlocal:        2776.45 ave        3961 max           0 min
Histogram: 8 4 4 0 6 10 8 2 28 34
Nghost:        3879.01 ave        5425 max         232 min
Histogram: 8 0 8 0 16 0 8 8 16 40
Neighs:        79213.4 ave      115455 max           0 min
Histogram: 8 4 4 0 10 6 8 8 24 32

Total # of neighbors = 8238197
Ave neighs/atom = 28.530454
Neighbor list builds = 0
Dangerous builds = 0
Setting atom values ...
  1 settings made for x
  1 settings made for y
  1 settings made for z
Setting up cg style minimization ...
  Unit style    : metal
  Current step  : 334
Per MPI rank memory allocation (min/avg/max) = 5.441 | 5.816 | 6.074 Mbytes
Step PotEng KinEng TotEng v_fx v_fy v_fz 
     334   -1152449.4            0   -1152449.4  0.014025335 -0.014740844 -0.040907624 
     529   -1152449.4            0   -1152449.4 -2.4536334e-07 -9.6764046e-07 -4.318221e-07 
Loop time of 2.30274 on 104 procs for 195 steps with 288751 atoms

99.9% CPU use with 104 MPI tasks x 1 OpenMP threads

Minimization stats:
  Stopping criterion = energy tolerance
  Energy initial, next-to-last, final = 
     -1152449.44696702  -1152449.44832316  -1152449.44832316
  Force two-norm initial, final = 0.16775917 9.0757232e-05
  Force max component initial, final = 0.088617795 2.1456088e-06
  Final line search alpha, max atom move = 1.0000000 2.1456088e-06
  Iterations, force evaluations = 195 390

MPI task timing breakdown:
Section |  min time  |  avg time  |  max time  |%varavg| %total
---------------------------------------------------------------
Pair    | 0.59084    | 1.6412     | 2.1317     |  34.7 | 71.27
Neigh   | 0          | 0          | 0          |   0.0 |  0.00
Comm    | 0.035331   | 0.37624    | 1.1221     |  50.1 | 16.34
Output  | 0          | 0          | 0          |   0.0 |  0.00
Modify  | 2.3283e-05 | 0.0032251  | 0.0069156  |   2.7 |  0.14
Other   |            | 0.2821     |            |       | 12.25

Nlocal:        2776.45 ave        3961 max           0 min
Histogram: 8 4 4 0 6 10 8 2 28 34
Nghost:        3879.01 ave        5425 max         232 min
Histogram: 8 0 8 0 16 0 8 8 16 40
Neighs:        79213.4 ave      115455 max           0 min
Histogram: 8 4 4 0 10 6 8 8 24 32

Total # of neighbors = 8238196
Ave neighs/atom = 28.530450
Neighbor list builds = 0
Dangerous builds = 0
The dot product: 1.98365802674878e-10
Setting atom values ...
  1 settings made for x
  1 settings made for y
  1 settings made for z
Setting up cg style minimization ...
  Unit style    : metal
  Current step  : 529
Per MPI rank memory allocation (min/avg/max) = 5.441 | 5.816 | 6.074 Mbytes
Step PotEng KinEng TotEng v_fx v_fy v_fz 
     529   -1152449.4            0   -1152449.4  0.010939773 -0.015806224 -0.041143726 
     747   -1152449.4            0   -1152449.4 -3.8940818e-07 -5.4630705e-06 -4.7870616e-06 
Loop time of 2.55542 on 104 procs for 218 steps with 288751 atoms

99.9% CPU use with 104 MPI tasks x 1 OpenMP threads

Minimization stats:
  Stopping criterion = energy tolerance
  Energy initial, next-to-last, final = 
     -1152449.44350376  -1152449.44484004  -1152449.44484004
  Force two-norm initial, final = 0.16533478 3.9106770e-05
  Force max component initial, final = 0.092661436 8.4488076e-06
  Final line search alpha, max atom move = 1.0000000 8.4488076e-06
  Iterations, force evaluations = 218 436

MPI task timing breakdown:
Section |  min time  |  avg time  |  max time  |%varavg| %total
---------------------------------------------------------------
Pair    | 0.6578     | 1.8423     | 2.3757     |  36.8 | 72.09
Neigh   | 0          | 0          | 0          |   0.0 |  0.00
Comm    | 0.044081   | 0.42022    | 1.2576     |  54.0 | 16.44
Output  | 0          | 0          | 0          |   0.0 |  0.00
Modify  | 2.6479e-05 | 0.0036149  | 0.0076716  |   2.8 |  0.14
Other   |            | 0.2893     |            |       | 11.32

Nlocal:        2776.45 ave        3961 max           0 min
Histogram: 8 4 4 0 6 10 8 2 28 34
Nghost:        3879.01 ave        5424 max         232 min
Histogram: 8 0 8 0 16 0 8 8 16 40
Neighs:        79213.4 ave      115455 max           0 min
Histogram: 8 4 4 0 10 6 8 8 24 32

Total # of neighbors = 8238194
Ave neighs/atom = 28.530443
Neighbor list builds = 0
Dangerous builds = 0
The dot product: 1.07479054351486e-08
Setting atom values ...
  1 settings made for x
  1 settings made for y
  1 settings made for z
Setting up cg style minimization ...
  Unit style    : metal
  Current step  : 747
Per MPI rank memory allocation (min/avg/max) = 5.441 | 5.816 | 6.074 Mbytes
Step PotEng KinEng TotEng v_fx v_fy v_fz 
     747   -1152449.4            0   -1152449.4  0.011027218 -0.013698406 -0.044652945 
     888   -1152449.4            0   -1152449.4 -4.9761016e-06 -2.4839375e-05 -1.6349068e-05 
Loop time of 1.65354 on 104 procs for 141 steps with 288751 atoms

99.9% CPU use with 104 MPI tasks x 1 OpenMP threads

Minimization stats:
  Stopping criterion = energy tolerance
  Energy initial, next-to-last, final = 
     -1152449.43837142  -1152449.43968983  -1152449.43968983
  Force two-norm initial, final = 0.16401805 0.00018700323
  Force max component initial, final = 0.096413591 2.4839375e-05
  Final line search alpha, max atom move = 1.0000000 2.4839375e-05
  Iterations, force evaluations = 141 282

MPI task timing breakdown:
Section |  min time  |  avg time  |  max time  |%varavg| %total
---------------------------------------------------------------
Pair    | 0.42864    | 1.1853     | 1.5354     |  29.4 | 71.68
Neigh   | 0          | 0          | 0          |   0.0 |  0.00
Comm    | 0.031937   | 0.26924    | 0.81008    |  43.0 | 16.28
Output  | 0          | 0          | 0          |   0.0 |  0.00
Modify  | 1.8925e-05 | 0.0023327  | 0.0049363  |   2.3 |  0.14
Other   |            | 0.1967     |            |       | 11.89

Nlocal:        2776.45 ave        3961 max           0 min
Histogram: 8 4 4 0 6 10 8 2 28 34
Nghost:        3879.01 ave        5424 max         232 min
Histogram: 8 0 8 0 16 0 8 8 16 40
Neighs:        79213.4 ave      115457 max           0 min
Histogram: 8 4 4 0 10 6 8 8 24 32

Total # of neighbors = 8238195
Ave neighs/atom = 28.530447
Neighbor list builds = 0
Dangerous builds = 0
The dot product: 5.53984562868813e-08
Setting atom values ...
  1 settings made for x
  1 settings made for y
  1 settings made for z
Setting up cg style minimization ...
  Unit style    : metal
  Current step  : 888
Per MPI rank memory allocation (min/avg/max) = 5.441 | 5.816 | 6.074 Mbytes
Step PotEng KinEng TotEng v_fx v_fy v_fz 
     888   -1152449.4            0   -1152449.4  0.013277047 -0.008298096 -0.052280588 
    1000   -1152449.4            0   -1152449.4 -1.0770302e-05 -6.7097414e-05 -5.9754801e-05 
    1031   -1152449.4            0   -1152449.4 5.3604725e-07 -7.8057202e-06 -1.2448757e-05 
Loop time of 1.68483 on 104 procs for 143 steps with 288751 atoms

99.9% CPU use with 104 MPI tasks x 1 OpenMP threads

Minimization stats:
  Stopping criterion = energy tolerance
  Energy initial, next-to-last, final = 
     -1152449.43170007  -1152449.43304258  -1152449.43304258
  Force two-norm initial, final = 0.16432488 0.00011338458
  Force max component initial, final = 0.10021289 1.2448757e-05
  Final line search alpha, max atom move = 1.0000000 1.2448757e-05
  Iterations, force evaluations = 143 286

MPI task timing breakdown:
Section |  min time  |  avg time  |  max time  |%varavg| %total
---------------------------------------------------------------
Pair    | 0.43238    | 1.2096     | 1.5661     |  29.8 | 71.79
Neigh   | 0          | 0          | 0          |   0.0 |  0.00
Comm    | 0.02792    | 0.27529    | 0.83099    |  43.5 | 16.34
Output  | 0.00054113 | 0.00055446 | 0.00068093 |   0.0 |  0.03
Modify  | 1.7149e-05 | 0.002373   | 0.005018   |   2.3 |  0.14
Other   |            | 0.197      |            |       | 11.69

Nlocal:        2776.45 ave        3961 max           0 min
Histogram: 8 4 4 0 6 10 8 2 28 34
Nghost:        3879.01 ave        5424 max         232 min
Histogram: 8 0 8 0 16 0 8 8 16 40
Neighs:        79213.4 ave      115457 max           0 min
Histogram: 8 4 4 0 10 6 8 8 24 32

Total # of neighbors = 8238195
Ave neighs/atom = 28.530447
Neighbor list builds = 0
Dangerous builds = 0
The dot product: 6.64989685026417e-08
Setting atom values ...
  1 settings made for x
  1 settings made for y
  1 settings made for z
Setting up cg style minimization ...
  Unit style    : metal
  Current step  : 1031
Per MPI rank memory allocation (min/avg/max) = 5.441 | 5.816 | 6.074 Mbytes
Step PotEng KinEng TotEng v_fx v_fy v_fz 
    1031   -1152449.4            0   -1152449.4  0.015130738 0.0011039435 -0.059487428 
    1140   -1152449.4            0   -1152449.4 8.183251e-06 4.0587186e-05 3.7320312e-05 
Loop time of 1.28132 on 104 procs for 109 steps with 288751 atoms

99.9% CPU use with 104 MPI tasks x 1 OpenMP threads

Minimization stats:
  Stopping criterion = energy tolerance
  Energy initial, next-to-last, final = 
     -1152449.42373146  -1152449.42513765  -1152449.42513765
  Force two-norm initial, final = 0.16508473 0.00021767468
  Force max component initial, final = 0.10387092 5.4247413e-05
  Final line search alpha, max atom move = 1.0000000 5.4247413e-05
  Iterations, force evaluations = 109 218

MPI task timing breakdown:
Section |  min time  |  avg time  |  max time  |%varavg| %total
---------------------------------------------------------------
Pair    | 0.32981    | 0.91549    | 1.1874     |  25.9 | 71.45
Neigh   | 0          | 0          | 0          |   0.0 |  0.00
Comm    | 0.021854   | 0.20681    | 0.61999    |  38.1 | 16.14
Output  | 0          | 0          | 0          |   0.0 |  0.00
Modify  | 1.3523e-05 | 0.0018068  | 0.0038236  |   2.0 |  0.14
Other   |            | 0.1572     |            |       | 12.27

Nlocal:        2776.45 ave        3961 max           0 min
Histogram: 8 4 4 0 6 10 8 2 28 34
Nghost:        3879.01 ave        5424 max         232 min
Histogram: 8 0 8 0 16 0 8 8 16 40
Neighs:        79213.4 ave      115457 max           0 min
Histogram: 8 4 4 0 10 6 8 8 24 32

Total # of neighbors = 8238194
Ave neighs/atom = 28.530443
Neighbor list builds = 0
Dangerous builds = 0
The dot product: -1.5094382846519e-07
Setting atom values ...
  1 settings made for x
  1 settings made for y
  1 settings made for z
Setting up cg style minimization ...
  Unit style    : metal
  Current step  : 1140
Per MPI rank memory allocation (min/avg/max) = 5.441 | 5.816 | 6.074 Mbytes
Step PotEng KinEng TotEng v_fx v_fy v_fz 
    1140   -1152449.4            0   -1152449.4   0.01355873 0.0091033133 -0.061917385 
    1374   -1152449.4            0   -1152449.4 5.4071788e-07 1.5004859e-06 2.442816e-07 
Loop time of 2.72255 on 104 procs for 234 steps with 288751 atoms

99.9% CPU use with 104 MPI tasks x 1 OpenMP threads

Minimization stats:
  Stopping criterion = energy tolerance
  Energy initial, next-to-last, final = 
     -1152449.41460596  -1152449.41604952  -1152449.41604952
  Force two-norm initial, final = 0.1646715 1.3964770e-05
  Force max component initial, final = 0.10654884 2.2050040e-06
  Final line search alpha, max atom move = 1.0000000 2.2050040e-06
  Iterations, force evaluations = 234 468

MPI task timing breakdown:
Section |  min time  |  avg time  |  max time  |%varavg| %total
---------------------------------------------------------------
Pair    | 0.70402    | 1.9692     | 2.551      |  38.0 | 72.33
Neigh   | 0          | 0          | 0          |   0.0 |  0.00
Comm    | 0.040813   | 0.44279    | 1.336      |  56.4 | 16.26
Output  | 0          | 0          | 0          |   0.0 |  0.00
Modify  | 2.7398e-05 | 0.0038672  | 0.0082407  |   2.9 |  0.14
Other   |            | 0.3067     |            |       | 11.27

Nlocal:        2776.45 ave        3961 max           0 min
Histogram: 8 4 4 0 6 10 8 2 28 34
Nghost:        3879.01 ave        5424 max         232 min
Histogram: 8 0 8 0 16 0 8 8 16 40
Neighs:        79213.4 ave      115457 max           0 min
Histogram: 8 4 4 0 10 6 8 8 24 32

Total # of neighbors = 8238194
Ave neighs/atom = 28.530443
Neighbor list builds = 0
Dangerous builds = 0
The dot product: 6.31189406076875e-09
Setting atom values ...
  1 settings made for x
  1 settings made for y
  1 settings made for z
Setting up cg style minimization ...
  Unit style    : metal
  Current step  : 1374
Per MPI rank memory allocation (min/avg/max) = 5.441 | 5.816 | 6.074 Mbytes
Step PotEng KinEng TotEng v_fx v_fy v_fz 
    1374   -1152449.4            0   -1152449.4 0.0096337669  0.013134184 -0.059674144 
    1547   -1152449.4            0   -1152449.4 1.0898654e-06 1.2179854e-05  3.53973e-05 
Loop time of 2.02706 on 104 procs for 173 steps with 288751 atoms

99.9% CPU use with 104 MPI tasks x 1 OpenMP threads

Minimization stats:
  Stopping criterion = energy tolerance
  Energy initial, next-to-last, final = 
     -1152449.40430572  -1152449.40573625  -1152449.40573625
  Force two-norm initial, final = 0.16314294 0.00016256918
  Force max component initial, final = 0.10803869 3.5397300e-05
  Final line search alpha, max atom move = 1.0000000 3.5397300e-05
  Iterations, force evaluations = 173 346

MPI task timing breakdown:
Section |  min time  |  avg time  |  max time  |%varavg| %total
---------------------------------------------------------------
Pair    | 0.52467    | 1.456      | 1.887      |  32.6 | 71.83
Neigh   | 0          | 0          | 0          |   0.0 |  0.00
Comm    | 0.032253   | 0.32882    | 0.98616    |  47.9 | 16.22
Output  | 0          | 0          | 0          |   0.0 |  0.00
Modify  | 2.0775e-05 | 0.0028617  | 0.0060643  |   2.5 |  0.14
Other   |            | 0.2393     |            |       | 11.81

Nlocal:        2776.45 ave        3961 max           0 min
Histogram: 8 4 4 0 6 10 8 2 28 34
Nghost:        3879.01 ave        5424 max         232 min
Histogram: 8 0 8 0 16 0 8 8 16 40
Neighs:        79213.4 ave      115457 max           0 min
Histogram: 8 4 4 0 10 6 8 8 24 32

Total # of neighbors = 8238196
Ave neighs/atom = 28.530450
Neighbor list builds = 0
Dangerous builds = 0
The dot product: -2.45281508581729e-07
Setting atom values ...
  1 settings made for x
  1 settings made for y
  1 settings made for z
Setting up cg style minimization ...
  Unit style    : metal
  Current step  : 1547
Per MPI rank memory allocation (min/avg/max) = 5.441 | 5.816 | 6.074 Mbytes
Step PotEng KinEng TotEng v_fx v_fy v_fz 
    1547   -1152449.4            0   -1152449.4 0.0052798351  0.013261312 -0.053875019 
    1733   -1152449.4            0   -1152449.4 -4.7390696e-06 -1.4988872e-05 1.0797818e-05 
Loop time of 2.17283 on 104 procs for 186 steps with 288751 atoms

99.9% CPU use with 104 MPI tasks x 1 OpenMP threads

Minimization stats:
  Stopping criterion = energy tolerance
  Energy initial, next-to-last, final = 
      -1152449.3927505  -1152449.39412944  -1152449.39412944
  Force two-norm initial, final = 0.16084468 9.9766141e-05
  Force max component initial, final = 0.10855343 1.9965099e-05
  Final line search alpha, max atom move = 1.0000000 1.9965099e-05
  Iterations, force evaluations = 186 372

MPI task timing breakdown:
Section |  min time  |  avg time  |  max time  |%varavg| %total
---------------------------------------------------------------
Pair    | 0.56197    | 1.5709     | 2.0312     |  33.9 | 72.30
Neigh   | 0          | 0          | 0          |   0.0 |  0.00
Comm    | 0.034714   | 0.35444    | 1.0709     |  50.4 | 16.31
Output  | 0          | 0          | 0          |   0.0 |  0.00
Modify  | 2.3115e-05 | 0.0030773  | 0.0065333  |   2.6 |  0.14
Other   |            | 0.2444     |            |       | 11.25

Nlocal:        2776.45 ave        3961 max           0 min
Histogram: 8 4 4 0 6 10 8 2 28 34
Nghost:        3879.01 ave        5424 max         232 min
Histogram: 8 0 8 0 16 0 8 8 16 40
Neighs:        79213.4 ave      115455 max           0 min
Histogram: 8 4 4 0 10 6 8 8 24 32

Total # of neighbors = 8238197
Ave neighs/atom = 28.530454
Neighbor list builds = 0
Dangerous builds = 0
The dot product: -1.74379056981873e-07
Setting atom values ...
  1 settings made for x
  1 settings made for y
  1 settings made for z
Setting up cg style minimization ...
  Unit style    : metal
  Current step  : 1733
Per MPI rank memory allocation (min/avg/max) = 5.441 | 5.816 | 6.074 Mbytes
Step PotEng KinEng TotEng v_fx v_fy v_fz 
    1733   -1152449.4            0   -1152449.4 0.0016611105  0.010525029    -0.046729 
    1918   -1152449.4            0   -1152449.4 2.3016396e-06 6.8419563e-06 2.0835587e-05 
Loop time of 2.15748 on 104 procs for 185 steps with 288751 atoms

99.9% CPU use with 104 MPI tasks x 1 OpenMP threads

Minimization stats:
  Stopping criterion = energy tolerance
  Energy initial, next-to-last, final = 
      -1152449.3798557  -1152449.38117005  -1152449.38117005
  Force two-norm initial, final = 0.15868569 9.9648829e-05
  Force max component initial, final = 0.10854099 2.0835587e-05
  Final line search alpha, max atom move = 1.0000000 2.0835587e-05
  Iterations, force evaluations = 185 370

MPI task timing breakdown:
Section |  min time  |  avg time  |  max time  |%varavg| %total
---------------------------------------------------------------
Pair    | 0.55921    | 1.5572     | 2.0223     |  33.8 | 72.18
Neigh   | 0          | 0          | 0          |   0.0 |  0.00
Comm    | 0.032799   | 0.3526     | 1.0657     |  49.8 | 16.34
Output  | 0          | 0          | 0          |   0.0 |  0.00
Modify  | 2.2062e-05 | 0.0030613  | 0.0064904  |   2.6 |  0.14
Other   |            | 0.2446     |            |       | 11.34

Nlocal:        2776.45 ave        3961 max           0 min
Histogram: 8 4 4 0 6 10 8 2 28 34
Nghost:        3879.01 ave        5425 max         232 min
Histogram: 8 0 8 0 16 0 8 8 16 40
Neighs:        79213.4 ave      115455 max           0 min
Histogram: 8 4 4 0 10 6 8 8 24 32

Total # of neighbors = 8238193
Ave neighs/atom = 28.530440
Neighbor list builds = 0
Dangerous builds = 0
The dot product: -1.10455030325269e-07
Setting atom values ...
  1 settings made for x
  1 settings made for y
  1 settings made for z
Setting up cg style minimization ...
  Unit style    : metal
  Current step  : 1918
Per MPI rank memory allocation (min/avg/max) = 5.441 | 5.816 | 6.074 Mbytes
Step PotEng KinEng TotEng v_fx v_fy v_fz 
    1918   -1152449.4            0   -1152449.4 -0.00088985769 0.0064124223 -0.039600259 
    2000   -1152449.4            0   -1152449.4 -2.0415086e-05 -3.3990129e-05 -0.00020298255 
    2100   -1152449.4            0   -1152449.4 2.6940502e-06 9.3870679e-06 7.6911576e-06 
Loop time of 2.11697 on 104 procs for 182 steps with 288751 atoms

99.9% CPU use with 104 MPI tasks x 1 OpenMP threads

Minimization stats:
  Stopping criterion = energy tolerance
  Energy initial, next-to-last, final = 
     -1152449.36556203  -1152449.36681911  -1152449.36681911
  Force two-norm initial, final = 0.1571571 0.00010686047
  Force max component initial, final = 0.10844631 1.8909387e-05
  Final line search alpha, max atom move = 1.0000000 1.8909387e-05
  Iterations, force evaluations = 182 364

MPI task timing breakdown:
Section |  min time  |  avg time  |  max time  |%varavg| %total
---------------------------------------------------------------
Pair    | 0.5482     | 1.5339     | 1.9786     |  33.5 | 72.46
Neigh   | 0          | 0          | 0          |   0.0 |  0.00
Comm    | 0.035023   | 0.34647    | 1.045      |  49.7 | 16.37
Output  | 0.00024799 | 0.00025996 | 0.00037351 |   0.0 |  0.01
Modify  | 2.1857e-05 | 0.0030032  | 0.0063718  |   2.6 |  0.14
Other   |            | 0.2334     |            |       | 11.02

Nlocal:        2776.45 ave        3961 max           0 min
Histogram: 8 4 4 0 6 10 8 3 27 34
Nghost:        3879.01 ave        5429 max         232 min
Histogram: 8 0 8 0 16 0 8 8 16 40
Neighs:        79213.4 ave      115455 max           0 min
Histogram: 8 4 4 0 10 6 8 8 24 32

Total # of neighbors = 8238192
Ave neighs/atom = 28.530436
Neighbor list builds = 0
Dangerous builds = 0
The dot product: -7.79081177360345e-09
Setting atom values ...
  1 settings made for x
  1 settings made for y
  1 settings made for z
Setting up cg style minimization ...
  Unit style    : metal
  Current step  : 2100
Per MPI rank memory allocation (min/avg/max) = 5.441 | 5.816 | 6.074 Mbytes
Step PotEng KinEng TotEng v_fx v_fy v_fz 
    2100   -1152449.3            0   -1152449.3 -0.0025771756 0.0017284773 -0.033228272 
    2274   -1152449.4            0   -1152449.4 3.0335282e-06 1.7396407e-07 3.3693184e-05 
Loop time of 2.02103 on 104 procs for 174 steps with 288751 atoms

99.9% CPU use with 104 MPI tasks x 1 OpenMP threads

Minimization stats:
  Stopping criterion = energy tolerance
  Energy initial, next-to-last, final = 
     -1152449.34983915  -1152449.35105068  -1152449.35105068
  Force two-norm initial, final = 0.15638797 0.00014496719
  Force max component initial, final = 0.10844932 3.3693184e-05
  Final line search alpha, max atom move = 1.0000000 3.3693184e-05
  Iterations, force evaluations = 174 348

MPI task timing breakdown:
Section |  min time  |  avg time  |  max time  |%varavg| %total
---------------------------------------------------------------
Pair    | 0.52419    | 1.4588     | 1.8932     |  32.7 | 72.18
Neigh   | 0          | 0          | 0          |   0.0 |  0.00
Comm    | 0.032298   | 0.32949    | 0.99113    |  48.0 | 16.30
Output  | 0          | 0          | 0          |   0.0 |  0.00
Modify  | 2.0725e-05 | 0.0028766  | 0.0061282  |   2.5 |  0.14
Other   |            | 0.2299     |            |       | 11.37

Nlocal:        2776.45 ave        3961 max           0 min
Histogram: 8 4 4 0 6 10 8 4 26 34
Nghost:        3879.01 ave        5429 max         232 min
Histogram: 8 0 8 0 16 0 8 8 16 40
Neighs:        79213.4 ave      115455 max           0 min
Histogram: 8 4 4 0 10 6 8 8 24 32

Total # of neighbors = 8238192
Ave neighs/atom = 28.530436
Neighbor list builds = 0
Dangerous builds = 0
The dot product: -1.62020340143995e-07
Setting atom values ...
  1 settings made for x
  1 settings made for y
  1 settings made for z
Setting up cg style minimization ...
  Unit style    : metal
  Current step  : 2274
Per MPI rank memory allocation (min/avg/max) = 5.441 | 5.816 | 6.074 Mbytes
Step PotEng KinEng TotEng v_fx v_fy v_fz 
    2274   -1152449.3            0   -1152449.3 -0.0036850152 -0.0030204307   -0.0278112 
    2418   -1152449.3            0   -1152449.3 1.1806841e-05 1.8856008e-05 7.1950197e-05 
Loop time of 1.66593 on 104 procs for 144 steps with 288751 atoms

99.9% CPU use with 104 MPI tasks x 1 OpenMP threads

Minimization stats:
  Stopping criterion = energy tolerance
  Energy initial, next-to-last, final = 
     -1152449.33266604   -1152449.3338471   -1152449.3338471
  Force two-norm initial, final = 0.15633502 0.00027939231
  Force max component initial, final = 0.10872564 7.1950197e-05
  Final line search alpha, max atom move = 1.0000000 7.1950197e-05
  Iterations, force evaluations = 144 288

MPI task timing breakdown:
Section |  min time  |  avg time  |  max time  |%varavg| %total
---------------------------------------------------------------
Pair    | 0.43513    | 1.2129     | 1.5684     |  29.8 | 72.81
Neigh   | 0          | 0          | 0          |   0.0 |  0.00
Comm    | 0.02512    | 0.27245    | 0.82467    |  44.1 | 16.35
Output  | 0          | 0          | 0          |   0.0 |  0.00
Modify  | 1.741e-05  | 0.0023852  | 0.0050521  |   2.3 |  0.14
Other   |            | 0.1782     |            |       | 10.70

Nlocal:        2776.45 ave        3961 max           0 min
Histogram: 8 4 4 0 6 10 8 4 26 34
Nghost:        3879.01 ave        5429 max         232 min
Histogram: 8 0 8 0 16 0 8 8 16 40
Neighs:        79213.4 ave      115445 max           0 min
Histogram: 8 4 4 0 10 6 8 8 24 32

Total # of neighbors = 8238193
Ave neighs/atom = 28.530440
Neighbor list builds = 0
Dangerous builds = 0
The dot product: -2.54548412746355e-07
Setting atom values ...
  1 settings made for x
  1 settings made for y
  1 settings made for z
Setting up cg style minimization ...
  Unit style    : metal
  Current step  : 2418
Per MPI rank memory allocation (min/avg/max) = 5.441 | 5.816 | 6.074 Mbytes
Step PotEng KinEng TotEng v_fx v_fy v_fz 
    2418   -1152449.3            0   -1152449.3 -0.0044583898 -0.0076343851 -0.023267359 
    2642   -1152449.3            0   -1152449.3 1.7099136e-06 6.1522909e-06 3.8300633e-06 
Loop time of 2.61088 on 104 procs for 224 steps with 288751 atoms

99.9% CPU use with 104 MPI tasks x 1 OpenMP threads

Minimization stats:
  Stopping criterion = energy tolerance
  Energy initial, next-to-last, final = 
     -1152449.31403208  -1152449.31519718  -1152449.31519718
  Force two-norm initial, final = 0.15691083 2.4129249e-05
  Force max component initial, final = 0.10936066 6.1522909e-06
  Final line search alpha, max atom move = 1.0000000 6.1522909e-06
  Iterations, force evaluations = 224 448

MPI task timing breakdown:
Section |  min time  |  avg time  |  max time  |%varavg| %total
---------------------------------------------------------------
Pair    | 0.67659    | 1.8802     | 2.4401     |  37.1 | 72.02
Neigh   | 0          | 0          | 0          |   0.0 |  0.00
Comm    | 0.041853   | 0.42508    | 1.2705     |  54.4 | 16.28
Output  | 0          | 0          | 0          |   0.0 |  0.00
Modify  | 2.6435e-05 | 0.0037028  | 0.0078371  |   2.9 |  0.14
Other   |            | 0.3019     |            |       | 11.56

Nlocal:        2776.45 ave        3961 max           0 min
Histogram: 8 4 4 0 6 10 8 6 24 34
Nghost:        3879.01 ave        5427 max         232 min
Histogram: 8 0 8 0 16 0 8 8 16 40
Neighs:        79213.4 ave      115445 max           0 min
Histogram: 8 4 4 0 10 6 8 8 24 32

Total # of neighbors = 8238193
Ave neighs/atom = 28.530440
Neighbor list builds = 0
Dangerous builds = 0
The dot product: -1.00329964796241e-08
Setting atom values ...
  1 settings made for x
  1 settings made for y
  1 settings made for z
Setting up cg style minimization ...
  Unit style    : metal
  Current step  : 2642
Per MPI rank memory allocation (min/avg/max) = 5.441 | 5.816 | 6.074 Mbytes
Step PotEng KinEng TotEng v_fx v_fy v_fz 
    2642   -1152449.3            0   -1152449.3 -0.0051534442 -0.012154763 -0.019834575 
    2824   -1152449.3            0   -1152449.3 1.2818059e-06 -3.9318557e-07 9.8073032e-06 
Loop time of 2.11157 on 104 procs for 182 steps with 288751 atoms

99.9% CPU use with 104 MPI tasks x 1 OpenMP threads

Minimization stats:
  Stopping criterion = energy tolerance
  Energy initial, next-to-last, final = 
     -1152449.29393051  -1152449.29509321  -1152449.29509321
  Force two-norm initial, final = 0.15808198 8.4782157e-05
  Force max component initial, final = 0.11029899 9.8073032e-06
  Final line search alpha, max atom move = 1.0000000 9.8073032e-06
  Iterations, force evaluations = 182 364

MPI task timing breakdown:
Section |  min time  |  avg time  |  max time  |%varavg| %total
---------------------------------------------------------------
Pair    | 0.54771    | 1.5314     | 1.9795     |  33.5 | 72.53
Neigh   | 0          | 0          | 0          |   0.0 |  0.00
Comm    | 0.031925   | 0.34671    | 1.043      |  49.4 | 16.42
Output  | 0          | 0          | 0          |   0.0 |  0.00
Modify  | 2.1674e-05 | 0.0030097  | 0.00638    |   2.6 |  0.14
Other   |            | 0.2304     |            |       | 10.91

Nlocal:        2776.45 ave        3961 max           0 min
Histogram: 8 4 4 0 6 10 8 6 24 34
Nghost:        3879.01 ave        5425 max         232 min
Histogram: 8 0 8 0 16 0 8 8 16 40
Neighs:        79213.4 ave      115445 max           0 min
Histogram: 8 4 4 0 10 6 8 8 24 32

Total # of neighbors = 8238193
Ave neighs/atom = 28.530440
Neighbor list builds = 0
Dangerous builds = 0
The dot product: -2.64042249889827e-08
Setting atom values ...
  1 settings made for x
  1 settings made for y
  1 settings made for z
Setting up cg style minimization ...
  Unit style    : metal
  Current step  : 2824
Per MPI rank memory allocation (min/avg/max) = 5.441 | 5.816 | 6.074 Mbytes
Step PotEng KinEng TotEng v_fx v_fy v_fz 
    2824   -1152449.3            0   -1152449.3 -0.0058162329 -0.016593719 -0.016804479 
    2993   -1152449.3            0   -1152449.3 6.2283233e-06 1.1518566e-05 2.6449346e-05 
Loop time of 1.99359 on 104 procs for 169 steps with 288751 atoms

99.9% CPU use with 104 MPI tasks x 1 OpenMP threads

Minimization stats:
  Stopping criterion = energy tolerance
  Energy initial, next-to-last, final = 
     -1152449.27236007  -1152449.27353262  -1152449.27353262
  Force two-norm initial, final = 0.15977834 0.00016931507
  Force max component initial, final = 0.11157581 3.8738575e-05
  Final line search alpha, max atom move = 1.0000000 3.8738575e-05
  Iterations, force evaluations = 169 338

MPI task timing breakdown:
Section |  min time  |  avg time  |  max time  |%varavg| %total
---------------------------------------------------------------
Pair    | 0.5176     | 1.4214     | 1.8434     |  32.0 | 71.30
Neigh   | 0          | 0          | 0          |   0.0 |  0.00
Comm    | 0.032637   | 0.32443    | 0.98849    |  46.9 | 16.27
Output  | 0          | 0          | 0          |   0.0 |  0.00
Modify  | 2.0195e-05 | 0.0027934  | 0.0059182  |   2.5 |  0.14
Other   |            | 0.245      |            |       | 12.29

Nlocal:        2776.45 ave        3961 max           0 min
Histogram: 8 4 4 0 6 10 8 6 24 34
Nghost:        3879.01 ave        5425 max         232 min
Histogram: 8 0 8 0 16 0 8 8 16 40
Neighs:        79213.4 ave      115445 max           0 min
Histogram: 8 4 4 0 10 6 8 8 24 32

Total # of neighbors = 8238191
Ave neighs/atom = 28.530433
Neighbor list builds = 0
Dangerous builds = 0
The dot product: -8.19036150872305e-08
Setting atom values ...
  1 settings made for x
  1 settings made for y
  1 settings made for z
Setting up cg style minimization ...
  Unit style    : metal
  Current step  : 2993
Per MPI rank memory allocation (min/avg/max) = 5.441 | 5.816 | 6.074 Mbytes
Step PotEng KinEng TotEng v_fx v_fy v_fz 
    2993   -1152449.2            0   -1152449.2 -0.0065370106 -0.020898913  -0.01422887 
    3000   -1152449.3            0   -1152449.3 -0.00049588803 -0.0006597962 -0.0023097112 
    3172   -1152449.3            0   -1152449.3 3.900044e-06 2.125657e-05 -3.1926879e-06 
Loop time of 2.08311 on 104 procs for 179 steps with 288751 atoms

99.9% CPU use with 104 MPI tasks x 1 OpenMP threads

Minimization stats:
  Stopping criterion = energy tolerance
  Energy initial, next-to-last, final = 
     -1152449.24932218  -1152449.25051706  -1152449.25051706
  Force two-norm initial, final = 0.1620011 0.00010182335
  Force max component initial, final = 0.11316199 2.4079221e-05
  Final line search alpha, max atom move = 1.0000000 2.4079221e-05
  Iterations, force evaluations = 179 358

MPI task timing breakdown:
Section |  min time  |  avg time  |  max time  |%varavg| %total
---------------------------------------------------------------
Pair    | 0.54017    | 1.5112     | 1.9531     |  33.3 | 72.54
Neigh   | 0          | 0          | 0          |   0.0 |  0.00
Comm    | 0.033459   | 0.34036    | 1.0249     |  49.5 | 16.34
Output  | 0.00014044 | 0.00014706 | 0.00022027 |   0.0 |  0.01
Modify  | 2.1553e-05 | 0.0029648  | 0.0062937  |   2.6 |  0.14
Other   |            | 0.2285     |            |       | 10.97

Nlocal:        2776.45 ave        3961 max           0 min
Histogram: 8 4 4 0 6 10 8 6 24 34
Nghost:        3879.01 ave        5425 max         232 min
Histogram: 8 0 8 0 16 0 8 8 16 40
Neighs:        79213.3 ave      115445 max           0 min
Histogram: 8 4 4 0 10 6 8 8 24 32

Total # of neighbors = 8238188
Ave neighs/atom = 28.530422
Neighbor list builds = 0
Dangerous builds = 0
The dot product: -6.04257077288924e-08
Setting atom values ...
  1 settings made for x
  1 settings made for y
  1 settings made for z
Setting up cg style minimization ...
  Unit style    : metal
  Current step  : 3172
Per MPI rank memory allocation (min/avg/max) = 5.441 | 5.816 | 6.074 Mbytes
Step PotEng KinEng TotEng v_fx v_fy v_fz 
    3172   -1152449.2            0   -1152449.2 -0.0073446913 -0.024971141 -0.012007486 
    3302   -1152449.2            0   -1152449.2 1.6876667e-05 3.1240258e-05 6.2670711e-05 
Loop time of 1.51852 on 104 procs for 130 steps with 288751 atoms

99.9% CPU use with 104 MPI tasks x 1 OpenMP threads

Minimization stats:
  Stopping criterion = energy tolerance
  Energy initial, next-to-last, final = 
     -1152449.22482289  -1152449.22605203  -1152449.22605203
  Force two-norm initial, final = 0.16478266 0.00022081272
  Force max component initial, final = 0.11511542 6.2670711e-05
  Final line search alpha, max atom move = 1.0000000 6.2670711e-05
  Iterations, force evaluations = 130 260

MPI task timing breakdown:
Section |  min time  |  avg time  |  max time  |%varavg| %total
---------------------------------------------------------------
Pair    | 0.39236    | 1.093      | 1.425      |  28.4 | 71.98
Neigh   | 0          | 0          | 0          |   0.0 |  0.00
Comm    | 0.024794   | 0.24809    | 0.7432     |  41.4 | 16.34
Output  | 0          | 0          | 0          |   0.0 |  0.00
Modify  | 1.5483e-05 | 0.0021552  | 0.0045724  |   2.2 |  0.14
Other   |            | 0.1752     |            |       | 11.54

Nlocal:        2776.45 ave        3961 max           0 min
Histogram: 8 4 4 0 6 10 8 6 24 34
Nghost:        3879.05 ave        5425 max         232 min
Histogram: 8 0 8 0 16 0 8 8 16 40
Neighs:        79213.3 ave      115445 max           0 min
Histogram: 8 4 4 0 10 6 8 8 24 32

Total # of neighbors = 8238186
Ave neighs/atom = 28.530415
Neighbor list builds = 0
Dangerous builds = 0
The dot product: -2.2440917215753e-07
Setting atom values ...
  1 settings made for x
  1 settings made for y
  1 settings made for z
Setting up cg style minimization ...
  Unit style    : metal
  Current step  : 3302
Per MPI rank memory allocation (min/avg/max) = 5.441 | 5.816 | 6.074 Mbytes
Step PotEng KinEng TotEng v_fx v_fy v_fz 
    3302   -1152449.2            0   -1152449.2 -0.0082361829 -0.028888776 -0.0097715411 
    3513   -1152449.2            0   -1152449.2 -2.6297627e-06 -5.6915722e-06 -8.0055283e-06 
Loop time of 2.45186 on 104 procs for 211 steps with 288751 atoms

99.9% CPU use with 104 MPI tasks x 1 OpenMP threads

Minimization stats:
  Stopping criterion = energy tolerance
  Energy initial, next-to-last, final = 
     -1152449.19887508  -1152449.20015137  -1152449.20015137
  Force two-norm initial, final = 0.16804386 3.3946554e-05
  Force max component initial, final = 0.11734443 8.0055283e-06
  Final line search alpha, max atom move = 1.0000000 8.0055283e-06
  Iterations, force evaluations = 211 422

MPI task timing breakdown:
Section |  min time  |  avg time  |  max time  |%varavg| %total
---------------------------------------------------------------
Pair    | 0.63778    | 1.7819     | 2.294      |  36.1 | 72.68
Neigh   | 0          | 0          | 0          |   0.0 |  0.00
Comm    | 0.037624   | 0.40292    | 1.2195     |  53.6 | 16.43
Output  | 0          | 0          | 0          |   0.0 |  0.00
Modify  | 2.5388e-05 | 0.0034972  | 0.0074036  |   2.8 |  0.14
Other   |            | 0.2635     |            |       | 10.75

Nlocal:        2776.45 ave        3961 max           0 min
Histogram: 8 4 4 0 6 10 8 6 24 34
Nghost:        3879.05 ave        5425 max         232 min
Histogram: 8 0 8 0 16 0 8 8 16 40
Neighs:        79213.3 ave      115454 max           0 min
Histogram: 8 4 4 0 10 6 8 8 24 32

Total # of neighbors = 8238183
Ave neighs/atom = 28.530405
Neighbor list builds = 0
Dangerous builds = 0
The dot product: 4.03530391945736e-08
Setting atom values ...
  1 settings made for x
  1 settings made for y
  1 settings made for z
Setting up cg style minimization ...
  Unit style    : metal
  Current step  : 3513
Per MPI rank memory allocation (min/avg/max) = 5.441 | 5.816 | 6.074 Mbytes
Step PotEng KinEng TotEng v_fx v_fy v_fz 
    3513   -1152449.2            0   -1152449.2 -0.0096895059 -0.034461678 -0.0074948158 
    3652   -1152449.2            0   -1152449.2 5.3075929e-08 -4.6778379e-06 7.0901796e-06 
Loop time of 1.60912 on 104 procs for 139 steps with 288751 atoms

99.9% CPU use with 104 MPI tasks x 1 OpenMP threads

Minimization stats:
  Stopping criterion = energy tolerance
  Energy initial, next-to-last, final = 
     -1152449.17151075  -1152449.17286025  -1152449.17286025
  Force two-norm initial, final = 0.172109 0.00015834711
  Force max component initial, final = 0.11989094 3.5903497e-05
  Final line search alpha, max atom move = 1.0000000 3.5903497e-05
  Iterations, force evaluations = 139 278

MPI task timing breakdown:
Section |  min time  |  avg time  |  max time  |%varavg| %total
---------------------------------------------------------------
Pair    | 0.41869    | 1.1715     | 1.5152     |  29.4 | 72.80
Neigh   | 0          | 0          | 0          |   0.0 |  0.00
Comm    | 0.025396   | 0.26305    | 0.8009     |  43.5 | 16.35
Output  | 0          | 0          | 0          |   0.0 |  0.00
Modify  | 1.6805e-05 | 0.0022953  | 0.0048872  |   2.3 |  0.14
Other   |            | 0.1723     |            |       | 10.71

Nlocal:        2776.45 ave        3961 max           0 min
Histogram: 8 4 4 0 6 10 8 6 24 34
Nghost:        3879.05 ave        5425 max         232 min
Histogram: 8 0 8 0 16 0 8 8 16 40
Neighs:        79213.3 ave      115454 max           0 min
Histogram: 8 4 4 0 10 6 8 8 24 32

Total # of neighbors = 8238184
Ave neighs/atom = 28.530409
Neighbor list builds = 0
Dangerous builds = 0
The dot product: 3.14692541423165e-08
Setting atom values ...
  1 settings made for x
  1 settings made for y
  1 settings made for z
Setting up cg style minimization ...
  Unit style    : metal
  Current step  : 3652
Per MPI rank memory allocation (min/avg/max) = 5.441 | 5.816 | 6.074 Mbytes
Step PotEng KinEng TotEng v_fx v_fy v_fz 
    3652   -1152449.1            0   -1152449.1 -0.011303725 -0.042142099 -0.00088972106 
    3807   -1152449.1            0   -1152449.1 -9.4290199e-06 -3.9814118e-05 6.5028839e-06 
Loop time of 1.81142 on 104 procs for 155 steps with 288751 atoms

99.9% CPU use with 104 MPI tasks x 1 OpenMP threads

Minimization stats:
  Stopping criterion = energy tolerance
  Energy initial, next-to-last, final = 
     -1152449.14277731  -1152449.14426186  -1152449.14426186
  Force two-norm initial, final = 0.17674756 0.00019742962
  Force max component initial, final = 0.12293539 3.9814118e-05
  Final line search alpha, max atom move = 1.0000000 3.9814118e-05
  Iterations, force evaluations = 155 310

MPI task timing breakdown:
Section |  min time  |  avg time  |  max time  |%varavg| %total
---------------------------------------------------------------
Pair    | 0.46702    | 1.3038     | 1.6879     |  30.9 | 71.98
Neigh   | 0          | 0          | 0          |   0.0 |  0.00
Comm    | 0.027035   | 0.29398    | 0.88882    |  45.7 | 16.23
Output  | 0          | 0          | 0          |   0.0 |  0.00
Modify  | 1.8392e-05 | 0.002568   | 0.005452   |   2.4 |  0.14
Other   |            | 0.211      |            |       | 11.65

Nlocal:        2776.45 ave        3960 max           0 min
Histogram: 8 4 4 0 4 12 8 6 24 34
Nghost:        3879.03 ave        5425 max         232 min
Histogram: 8 0 8 0 16 0 8 8 16 40
Neighs:        79213.3 ave      115425 max           0 min
Histogram: 8 4 4 0 10 6 8 8 24 32

Total # of neighbors = 8238185
Ave neighs/atom = 28.530412
Neighbor list builds = 0
Dangerous builds = 0
The dot product: 4.58613761911519e-07
Setting atom values ...
  1 settings made for x
  1 settings made for y
  1 settings made for z
Setting up cg style minimization ...
  Unit style    : metal
  Current step  : 3807
Per MPI rank memory allocation (min/avg/max) = 5.441 | 5.816 | 6.074 Mbytes
Step PotEng KinEng TotEng v_fx v_fy v_fz 
    3807   -1152449.1            0   -1152449.1 -0.013560939  -0.05418821  0.014010146 
    3935   -1152449.1            0   -1152449.1 4.6980901e-06 1.416846e-05 3.2088735e-06 
Loop time of 1.48306 on 104 procs for 128 steps with 288751 atoms

99.9% CPU use with 104 MPI tasks x 1 OpenMP threads

Minimization stats:
  Stopping criterion = energy tolerance
  Energy initial, next-to-last, final = 
     -1152449.11262935  -1152449.11439515  -1152449.11439515
  Force two-norm initial, final = 0.18419838 0.00015170308
  Force max component initial, final = 0.12705411 3.3773074e-05
  Final line search alpha, max atom move = 1.0000000 3.3773074e-05
  Iterations, force evaluations = 128 256

MPI task timing breakdown:
Section |  min time  |  avg time  |  max time  |%varavg| %total
---------------------------------------------------------------
Pair    | 0.38605    | 1.0753     | 1.3949     |  28.1 | 72.51
Neigh   | 0          | 0          | 0          |   0.0 |  0.00
Comm    | 0.02343    | 0.24232    | 0.73349    |  41.3 | 16.34
Output  | 0          | 0          | 0          |   0.0 |  0.00
Modify  | 1.541e-05  | 0.0021149  | 0.0044868  |   2.2 |  0.14
Other   |            | 0.1633     |            |       | 11.01

Nlocal:        2776.45 ave        3959 max           0 min
Histogram: 8 4 4 0 4 12 8 6 24 34
Nghost:        3879.00 ave        5425 max         232 min
Histogram: 8 0 8 0 16 0 8 8 16 40
Neighs:        79213.3 ave      115394 max           0 min
Histogram: 8 4 4 0 10 6 8 8 24 32

Total # of neighbors = 8238184
Ave neighs/atom = 28.530409
Neighbor list builds = 0
Dangerous builds = 0
The dot product: -2.11208251523876e-07
Setting atom values ...
  1 settings made for x
  1 settings made for y
  1 settings made for z
Setting up cg style minimization ...
  Unit style    : metal
  Current step  : 3935
Per MPI rank memory allocation (min/avg/max) = 5.441 | 5.816 | 6.074 Mbytes
Step PotEng KinEng TotEng v_fx v_fy v_fz 
    3935   -1152449.1            0   -1152449.1 -0.017687518 -0.065976403  0.026647628 
    4000   -1152449.1            0   -1152449.1 -0.00011094863 -0.00026669207 -0.00014070821 
    4054   -1152449.1            0   -1152449.1 -9.867458e-06 -2.7738617e-05 -4.1046768e-06 
Loop time of 1.38775 on 104 procs for 119 steps with 288751 atoms

99.9% CPU use with 104 MPI tasks x 1 OpenMP threads

Minimization stats:
  Stopping criterion = energy tolerance
  Energy initial, next-to-last, final = 
     -1152449.08116348  -1152449.08323843  -1152449.08323843
  Force two-norm initial, final = 0.19352897 0.00019487725
  Force max component initial, final = 0.13220178 4.7116518e-05
  Final line search alpha, max atom move = 1.0000000 4.7116518e-05
  Iterations, force evaluations = 119 238

MPI task timing breakdown:
Section |  min time  |  avg time  |  max time  |%varavg| %total
---------------------------------------------------------------
Pair    | 0.3589     | 1.0034     | 1.2945     |  27.1 | 72.30
Neigh   | 0          | 0          | 0          |   0.0 |  0.00
Comm    | 0.020933   | 0.22657    | 0.68035    |  40.0 | 16.33
Output  | 0.00020754 | 0.00021636 | 0.00032691 |   0.0 |  0.02
Modify  | 1.4407e-05 | 0.0019706  | 0.0041748  |   2.1 |  0.14
Other   |            | 0.1556     |            |       | 11.21

Nlocal:        2776.45 ave        3957 max           0 min
Histogram: 8 4 4 0 4 12 8 6 24 34
Nghost:        3878.99 ave        5425 max         232 min
Histogram: 8 0 8 0 16 0 8 8 16 40
Neighs:        79213.3 ave      115326 max           0 min
Histogram: 8 4 4 0 10 6 8 8 24 32

Total # of neighbors = 8238183
Ave neighs/atom = 28.530405
Neighbor list builds = 0
Dangerous builds = 0
The dot product: 4.99312987168997e-07
Setting atom values ...
  1 settings made for x
  1 settings made for y
  1 settings made for z
Setting up cg style minimization ...
  Unit style    : metal
  Current step  : 4054
Per MPI rank memory allocation (min/avg/max) = 5.441 | 5.816 | 6.074 Mbytes
Step PotEng KinEng TotEng v_fx v_fy v_fz 
    4054     -1152449            0     -1152449 -0.022656227 -0.074182888  0.036564749 
    4236   -1152449.1            0   -1152449.1 -4.6483393e-06 -1.2174498e-05 -4.0526871e-07 
Loop time of 2.13205 on 104 procs for 182 steps with 288751 atoms

99.9% CPU use with 104 MPI tasks x 1 OpenMP threads

Minimization stats:
  Stopping criterion = energy tolerance
  Energy initial, next-to-last, final = 
     -1152449.04846713  -1152449.05079832  -1152449.05079832
  Force two-norm initial, final = 0.20208982 0.00011446198
  Force max component initial, final = 0.13798033 1.6283998e-05
  Final line search alpha, max atom move = 1.0000000 1.6283998e-05
  Iterations, force evaluations = 182 364

MPI task timing breakdown:
Section |  min time  |  avg time  |  max time  |%varavg| %total
---------------------------------------------------------------
Pair    | 0.55134    | 1.5301     | 1.9836     |  33.4 | 71.77
Neigh   | 0          | 0          | 0          |   0.0 |  0.00
Comm    | 0.032881   | 0.34615    | 1.0298     |  48.9 | 16.24
Output  | 0          | 0          | 0          |   0.0 |  0.00
Modify  | 2.1597e-05 | 0.0030091  | 0.0063928  |   2.6 |  0.14
Other   |            | 0.2528     |            |       | 11.86

Nlocal:        2776.45 ave        3952 max           0 min
Histogram: 8 4 4 0 4 12 8 0 30 34
Nghost:        3878.97 ave        5425 max         232 min
Histogram: 8 0 8 0 16 0 8 8 16 40
Neighs:        79213.3 ave      115186 max           0 min
Histogram: 8 4 4 0 10 6 8 8 24 32

Total # of neighbors = 8238181
Ave neighs/atom = 28.530398
Neighbor list builds = 0
Dangerous builds = 0
The dot product: 2.49950071919839e-07
Setting atom values ...
  1 settings made for x
  1 settings made for y
  1 settings made for z
Setting up cg style minimization ...
  Unit style    : metal
  Current step  : 4236
Per MPI rank memory allocation (min/avg/max) = 5.441 | 5.816 | 6.074 Mbytes
Step PotEng KinEng TotEng v_fx v_fy v_fz 
    4236     -1152449            0     -1152449 -0.026878564 -0.078351914  0.050599753 
    4414     -1152449            0     -1152449 -5.532358e-06 -4.4384845e-06 -2.8773988e-05 
Loop time of 2.07188 on 104 procs for 178 steps with 288751 atoms

99.9% CPU use with 104 MPI tasks x 1 OpenMP threads

Minimization stats:
  Stopping criterion = energy tolerance
  Energy initial, next-to-last, final = 
     -1152449.01462585  -1152449.01720679  -1152449.01720679
  Force two-norm initial, final = 0.21022925 0.00017358131
  Force max component initial, final = 0.14384615 3.2147693e-05
  Final line search alpha, max atom move = 1.0000000 3.2147693e-05
  Iterations, force evaluations = 178 356

MPI task timing breakdown:
Section |  min time  |  avg time  |  max time  |%varavg| %total
---------------------------------------------------------------
Pair    | 0.53683    | 1.5049     | 1.9377     |  33.2 | 72.64
Neigh   | 0          | 0          | 0          |   0.0 |  0.00
Comm    | 0.035255   | 0.33937    | 1.02       |  49.4 | 16.38
Output  | 0          | 0          | 0          |   0.0 |  0.00
Modify  | 2.103e-05  | 0.002946   | 0.0062575  |   2.6 |  0.14
Other   |            | 0.2246     |            |       | 10.84

Nlocal:        2776.45 ave        3944 max           0 min
Histogram: 8 4 4 0 4 12 8 0 26 38
Nghost:        3878.94 ave        5425 max         232 min
Histogram: 8 0 8 0 16 0 8 8 16 40
Neighs:        79213.2 ave      114905 max           0 min
Histogram: 8 4 4 0 10 6 8 8 22 34

Total # of neighbors = 8238178
Ave neighs/atom = 28.530388
Neighbor list builds = 0
Dangerous builds = 0
The dot product: -2.48570322811631e-07
Setting atom values ...
  1 settings made for x
  1 settings made for y
  1 settings made for z
Setting up cg style minimization ...
  Unit style    : metal
  Current step  : 4414
Per MPI rank memory allocation (min/avg/max) = 5.441 | 5.816 | 6.074 Mbytes
Step PotEng KinEng TotEng v_fx v_fy v_fz 
    4414     -1152449            0     -1152449 -0.029910801 -0.077702426  0.068644404 
    4654     -1152449            0     -1152449 -7.463056e-07 -1.6517155e-06 3.5318814e-07 
Loop time of 2.79345 on 104 procs for 240 steps with 288751 atoms

99.9% CPU use with 104 MPI tasks x 1 OpenMP threads

Minimization stats:
  Stopping criterion = energy tolerance
  Energy initial, next-to-last, final = 
     -1152448.97990314  -1152448.98264418  -1152448.98264418
  Force two-norm initial, final = 0.21831298 1.8146563e-05
  Force max component initial, final = 0.14991214 1.6517155e-06
  Final line search alpha, max atom move = 1.0000000 1.6517155e-06
  Iterations, force evaluations = 240 480

MPI task timing breakdown:
Section |  min time  |  avg time  |  max time  |%varavg| %total
---------------------------------------------------------------
Pair    | 0.72293    | 2.013      | 2.6139     |  38.4 | 72.06
Neigh   | 0          | 0          | 0          |   0.0 |  0.00
Comm    | 0.041901   | 0.45516    | 1.363      |  56.2 | 16.29
Output  | 0          | 0          | 0          |   0.0 |  0.00
Modify  | 2.9228e-05 | 0.0039602  | 0.0084086  |   3.0 |  0.14
Other   |            | 0.3214     |            |       | 11.50

Nlocal:        2776.45 ave        3934 max           0 min
Histogram: 8 4 4 0 4 12 8 0 26 38
Nghost:        3878.90 ave        5425 max         232 min
Histogram: 8 0 8 0 16 0 8 8 16 40
Neighs:        79213.2 ave      114619 max           0 min
Histogram: 8 4 4 0 8 8 8 8 20 36

Total # of neighbors = 8238178
Ave neighs/atom = 28.530388
Neighbor list builds = 0
Dangerous builds = 0
The dot product: 3.92639258178774e-08
Setting atom values ...
  1 settings made for x
  1 settings made for y
  1 settings made for z
Setting up cg style minimization ...
  Unit style    : metal
  Current step  : 4654
Per MPI rank memory allocation (min/avg/max) = 5.441 | 5.816 | 6.074 Mbytes
Step PotEng KinEng TotEng v_fx v_fy v_fz 
    4654   -1152448.9            0   -1152448.9 -0.031285318 -0.070891605  0.081108771 
    4903     -1152449            0     -1152449 -1.7181976e-05 -3.3252001e-05 7.2714637e-07 
Loop time of 2.89583 on 104 procs for 249 steps with 288751 atoms

99.9% CPU use with 104 MPI tasks x 1 OpenMP threads

Minimization stats:
  Stopping criterion = energy tolerance
  Energy initial, next-to-last, final = 
     -1152448.94449111  -1152448.98009487  -1152448.98009487
  Force two-norm initial, final = 0.22388664 0.00016165849
  Force max component initial, final = 0.15555872 3.3252001e-05
  Final line search alpha, max atom move = 1.0000000 3.3252001e-05
  Iterations, force evaluations = 249 497

MPI task timing breakdown:
Section |  min time  |  avg time  |  max time  |%varavg| %total
---------------------------------------------------------------
Pair    | 0.75529    | 2.0975     | 2.695      |  39.0 | 72.43
Neigh   | 2.0482e-05 | 0.0058798  | 0.008451   |   3.2 |  0.20
Comm    | 0.046628   | 0.47288    | 1.4338     |  58.3 | 16.33
Output  | 0          | 0          | 0          |   0.0 |  0.00
Modify  | 2.9786e-05 | 0.0041072  | 0.0087001  |   3.0 |  0.14
Other   |            | 0.3154     |            |       | 10.89

Nlocal:        2776.45 ave        3932 max           0 min
Histogram: 8 4 4 0 4 12 8 0 26 38
Nghost:        3878.88 ave        5429 max         232 min
Histogram: 8 0 8 0 16 0 8 8 16 40
Neighs:        79213.3 ave      114565 max           0 min
Histogram: 8 4 4 0 8 8 8 8 20 36

Total # of neighbors = 8238183
Ave neighs/atom = 28.530405
Neighbor list builds = 2
Dangerous builds = 0
The dot product: 8.9751587853561e-07
Setting atom values ...
  1 settings made for x
  1 settings made for y
  1 settings made for z
Setting up cg style minimization ...
  Unit style    : metal
  Current step  : 4903
Per MPI rank memory allocation (min/avg/max) = 5.441 | 5.816 | 6.074 Mbytes
Step PotEng KinEng TotEng v_fx v_fy v_fz 
    4903     -1152449            0     -1152449 -0.032803063 -0.041832418   0.13707362 
    5000     -1152449            0     -1152449 -6.3235283e-05 -0.00011062937 -2.4231053e-06 
    5100     -1152449            0     -1152449 2.8112686e-06 3.2545154e-06 -1.4687046e-05 
Loop time of 2.31118 on 104 procs for 197 steps with 288751 atoms

99.9% CPU use with 104 MPI tasks x 1 OpenMP threads

Minimization stats:
  Stopping criterion = energy tolerance
  Energy initial, next-to-last, final = 
      -1152448.9577289  -1152448.96150496  -1152448.96150496
  Force two-norm initial, final = 0.25376412 0.00015472805
  Force max component initial, final = 0.1660037 4.6123229e-05
  Final line search alpha, max atom move = 1.0000000 4.6123229e-05
  Iterations, force evaluations = 197 394

MPI task timing breakdown:
Section |  min time  |  avg time  |  max time  |%varavg| %total
---------------------------------------------------------------
Pair    | 0.59184    | 1.6664     | 2.1755     |  35.2 | 72.10
Neigh   | 0          | 0          | 0          |   0.0 |  0.00
Comm    | 0.037234   | 0.37748    | 1.1503     |  51.2 | 16.33
Output  | 0.0001468  | 0.00015893 | 0.00028222 |   0.0 |  0.01
Modify  | 2.3391e-05 | 0.0032566  | 0.0068877  |   2.7 |  0.14
Other   |            | 0.2639     |            |       | 11.42

Nlocal:        2776.45 ave        3955 max           0 min
Histogram: 8 4 4 0 4 12 8 0 30 34
Nghost:        3879.01 ave        5429 max         232 min
Histogram: 8 0 8 0 16 0 8 8 16 40
Neighs:        79213.3 ave      115261 max           0 min
Histogram: 8 4 4 0 10 6 8 8 24 32

Total # of neighbors = 8238183
Ave neighs/atom = 28.530405
Neighbor list builds = 0
Dangerous builds = 0
The dot product: -4.38714954297531e-07
Setting atom values ...
  1 settings made for x
  1 settings made for y
  1 settings made for z
Setting up cg style minimization ...
  Unit style    : metal
  Current step  : 5100
Per MPI rank memory allocation (min/avg/max) = 5.441 | 5.816 | 6.074 Mbytes
Step PotEng KinEng TotEng v_fx v_fy v_fz 
    5100   -1152448.9            0   -1152448.9 -0.018022569 -0.016484965  0.067374304 
    5273   -1152448.9            0   -1152448.9 -6.4974915e-06 -1.0176933e-05 3.5856034e-06 
Loop time of 2.01324 on 104 procs for 173 steps with 288751 atoms

99.9% CPU use with 104 MPI tasks x 1 OpenMP threads

Minimization stats:
  Stopping criterion = energy tolerance
  Energy initial, next-to-last, final = 
     -1152448.93904972  -1152448.94140549  -1152448.94140549
  Force two-norm initial, final = 0.223363 9.9319263e-05
  Force max component initial, final = 0.16885192 1.0176933e-05
  Final line search alpha, max atom move = 1.0000000 1.0176933e-05
  Iterations, force evaluations = 173 346

MPI task timing breakdown:
Section |  min time  |  avg time  |  max time  |%varavg| %total
---------------------------------------------------------------
Pair    | 0.52132    | 1.4585     | 1.8877     |  32.7 | 72.45
Neigh   | 0          | 0          | 0          |   0.0 |  0.00
Comm    | 0.029619   | 0.32947    | 0.99602    |  48.4 | 16.37
Output  | 0          | 0          | 0          |   0.0 |  0.00
Modify  | 2.0617e-05 | 0.0028613  | 0.0060789  |   2.5 |  0.14
Other   |            | 0.2224     |            |       | 11.05

Nlocal:        2776.45 ave        3950 max           0 min
Histogram: 8 4 4 0 4 12 8 0 28 36
Nghost:        3879.03 ave        5424 max         232 min
Histogram: 8 0 8 0 16 0 8 8 16 40
Neighs:        79213.3 ave      115142 max           0 min
Histogram: 8 4 4 0 10 6 8 8 24 32

Total # of neighbors = 8238185
Ave neighs/atom = 28.530412
Neighbor list builds = 0
Dangerous builds = 0
The dot product: 9.372320140505e-08
Setting atom values ...
  1 settings made for x
  1 settings made for y
  1 settings made for z
Setting up cg style minimization ...
  Unit style    : metal
  Current step  : 5273
Per MPI rank memory allocation (min/avg/max) = 5.441 | 5.816 | 6.074 Mbytes
Step PotEng KinEng TotEng v_fx v_fy v_fz 
    5273   -1152448.9            0   -1152448.9 -0.010266331 -0.0068520987  0.041056658 
    5410   -1152448.9            0   -1152448.9 -2.9796598e-05 -4.971147e-05 -1.7288483e-06 
Loop time of 1.58481 on 104 procs for 137 steps with 288751 atoms

99.9% CPU use with 104 MPI tasks x 1 OpenMP threads

Minimization stats:
  Stopping criterion = energy tolerance
  Energy initial, next-to-last, final = 
      -1152448.9189672  -1152448.92125921  -1152448.92125921
  Force two-norm initial, final = 0.22099553 0.0001976383
  Force max component initial, final = 0.17127813 4.9711470e-05
  Final line search alpha, max atom move = 1.0000000 4.9711470e-05
  Iterations, force evaluations = 137 274

MPI task timing breakdown:
Section |  min time  |  avg time  |  max time  |%varavg| %total
---------------------------------------------------------------
Pair    | 0.41387    | 1.1521     | 1.4923     |  29.0 | 72.70
Neigh   | 0          | 0          | 0          |   0.0 |  0.00
Comm    | 0.0246     | 0.25897    | 0.7855     |  43.0 | 16.34
Output  | 0          | 0          | 0          |   0.0 |  0.00
Modify  | 1.6172e-05 | 0.002266   | 0.0047889  |   2.2 |  0.14
Other   |            | 0.1715     |            |       | 10.82

Nlocal:        2776.45 ave        3950 max           0 min
Histogram: 8 4 4 0 4 12 8 0 28 36
Nghost:        3879.05 ave        5424 max         232 min
Histogram: 8 0 8 0 16 0 8 8 16 40
Neighs:        79213.3 ave      115142 max           0 min
Histogram: 8 4 4 0 10 6 8 8 24 32

Total # of neighbors = 8238184
Ave neighs/atom = 28.530409
Neighbor list builds = 0
Dangerous builds = 0
The dot product: 9.40752366010147e-08
Setting atom values ...
  1 settings made for x
  1 settings made for y
  1 settings made for z
Setting up cg style minimization ...
  Unit style    : metal
  Current step  : 5410
Per MPI rank memory allocation (min/avg/max) = 5.441 | 5.816 | 6.074 Mbytes
Step PotEng KinEng TotEng v_fx v_fy v_fz 
    5410   -1152448.9            0   -1152448.9 -0.0070093957 -0.0033797915  0.029877875 
    5559   -1152448.9            0   -1152448.9 -3.2217671e-06 -1.0245395e-05 -1.8201379e-05 
Loop time of 1.72873 on 104 procs for 149 steps with 288751 atoms

99.9% CPU use with 104 MPI tasks x 1 OpenMP threads

Minimization stats:
  Stopping criterion = energy tolerance
  Energy initial, next-to-last, final = 
     -1152448.89898802  -1152448.90095265  -1152448.90095265
  Force two-norm initial, final = 0.22063939 0.00020942764
  Force max component initial, final = 0.17367829 6.9448575e-05
  Final line search alpha, max atom move = 1.0000000 6.9448575e-05
  Iterations, force evaluations = 149 298

MPI task timing breakdown:
Section |  min time  |  avg time  |  max time  |%varavg| %total
---------------------------------------------------------------
Pair    | 0.45093    | 1.2548     | 1.6229     |  30.2 | 72.59
Neigh   | 0          | 0          | 0          |   0.0 |  0.00
Comm    | 0.026466   | 0.28032    | 0.85108    |  45.1 | 16.22
Output  | 0          | 0          | 0          |   0.0 |  0.00
Modify  | 1.7878e-05 | 0.0024634  | 0.0052304  |   2.3 |  0.14
Other   |            | 0.1911     |            |       | 11.06

Nlocal:        2776.45 ave        3950 max           0 min
Histogram: 8 4 4 0 4 12 8 0 28 36
Nghost:        3879.05 ave        5424 max         232 min
Histogram: 8 0 8 0 16 0 8 8 16 40
Neighs:        79213.3 ave      115142 max           0 min
Histogram: 8 4 4 0 10 6 8 8 24 32

Total # of neighbors = 8238182
Ave neighs/atom = 28.530402
Neighbor list builds = 0
Dangerous builds = 0
The dot product: -7.81206316735497e-08
Setting atom values ...
  1 settings made for x
  1 settings made for y
  1 settings made for z
Setting up cg style minimization ...
  Unit style    : metal
  Current step  : 5559
Per MPI rank memory allocation (min/avg/max) = 5.441 | 5.816 | 6.074 Mbytes
Step PotEng KinEng TotEng v_fx v_fy v_fz 
    5559   -1152448.9            0   -1152448.9 -0.0048860836 -0.0023198247  0.019841704 
    5724   -1152448.9            0   -1152448.9 1.3663785e-05 1.9226615e-05 -1.1005685e-05 
Loop time of 1.9056 on 104 procs for 165 steps with 288751 atoms

99.9% CPU use with 104 MPI tasks x 1 OpenMP threads

Minimization stats:
  Stopping criterion = energy tolerance
  Energy initial, next-to-last, final = 
     -1152448.87753793  -1152448.87934884  -1152448.87934884
  Force two-norm initial, final = 0.21938303 0.000253557
  Force max component initial, final = 0.17593226 7.9057973e-05
  Final line search alpha, max atom move = 1.0000000 7.9057973e-05
  Iterations, force evaluations = 165 330

MPI task timing breakdown:
Section |  min time  |  avg time  |  max time  |%varavg| %total
---------------------------------------------------------------
Pair    | 0.49811    | 1.3834     | 1.7956     |  31.7 | 72.60
Neigh   | 0          | 0          | 0          |   0.0 |  0.00
Comm    | 0.030241   | 0.30966    | 0.93631    |  46.9 | 16.25
Output  | 0          | 0          | 0          |   0.0 |  0.00
Modify  | 1.9455e-05 | 0.0027215  | 0.0057787  |   2.5 |  0.14
Other   |            | 0.2098     |            |       | 11.01

Nlocal:        2776.45 ave        3949 max           0 min
Histogram: 8 4 4 0 4 12 8 0 28 36
Nghost:        3879.01 ave        5424 max         232 min
Histogram: 8 0 8 0 16 0 8 8 16 40
Neighs:        79213.3 ave      115106 max           0 min
Histogram: 8 4 4 0 10 6 8 8 24 32

Total # of neighbors = 8238180
Ave neighs/atom = 28.530395
Neighbor list builds = 0
Dangerous builds = 0
The dot product: -2.03517918215167e-08
Setting atom values ...
  1 settings made for x
  1 settings made for y
  1 settings made for z
Setting up cg style minimization ...
  Unit style    : metal
  Current step  : 5724
Per MPI rank memory allocation (min/avg/max) = 5.441 | 5.816 | 6.074 Mbytes
Step PotEng KinEng TotEng v_fx v_fy v_fz 
    5724   -1152448.9            0   -1152448.9 -0.0033773091 -0.0016717983  0.013189118 
    5858   -1152448.9            0   -1152448.9 -1.1800868e-06 -8.9962235e-06 -2.4121439e-05 
Loop time of 1.5519 on 104 procs for 134 steps with 288751 atoms

99.9% CPU use with 104 MPI tasks x 1 OpenMP threads

Minimization stats:
  Stopping criterion = energy tolerance
  Energy initial, next-to-last, final = 
     -1152448.85391209  -1152448.85583722  -1152448.85583722
  Force two-norm initial, final = 0.22335839 0.00025191877
  Force max component initial, final = 0.17817723 4.8699881e-05
  Final line search alpha, max atom move = 1.0000000 4.8699881e-05
  Iterations, force evaluations = 134 268

MPI task timing breakdown:
Section |  min time  |  avg time  |  max time  |%varavg| %total
---------------------------------------------------------------
Pair    | 0.40416    | 1.1314     | 1.457      |  28.8 | 72.90
Neigh   | 0          | 0          | 0          |   0.0 |  0.00
Comm    | 0.026206   | 0.25364    | 0.76693    |  42.9 | 16.34
Output  | 0          | 0          | 0          |   0.0 |  0.00
Modify  | 1.6901e-05 | 0.0022172  | 0.0046998  |   2.2 |  0.14
Other   |            | 0.1646     |            |       | 10.61

Nlocal:        2776.45 ave        3945 max           0 min
Histogram: 8 4 4 0 4 12 8 0 28 36
Nghost:        3878.99 ave        5424 max         232 min
Histogram: 8 0 8 0 16 0 8 8 16 40
Neighs:        79213.3 ave      114964 max           0 min
Histogram: 8 4 4 0 10 6 8 8 24 32

Total # of neighbors = 8238179
Ave neighs/atom = 28.530391
Neighbor list builds = 0
Dangerous builds = 0
The dot product: -2.14508414008346e-08
Setting atom values ...
  1 settings made for x
  1 settings made for y
  1 settings made for z
Setting up cg style minimization ...
  Unit style    : metal
  Current step  : 5858
Per MPI rank memory allocation (min/avg/max) = 5.441 | 5.816 | 6.074 Mbytes
Step PotEng KinEng TotEng v_fx v_fy v_fz 
    5858   -1152448.8            0   -1152448.8 -0.0025690912 -0.0013776424 0.0096196299 
    6000   -1152448.8            0   -1152448.8 -9.3656894e-06 -1.8041851e-05 -9.0279946e-06 
    6039   -1152448.8            0   -1152448.8 8.832001e-08 4.293009e-06 1.4049034e-05 
Loop time of 2.10785 on 104 procs for 181 steps with 288751 atoms

99.9% CPU use with 104 MPI tasks x 1 OpenMP threads

Minimization stats:
  Stopping criterion = energy tolerance
  Energy initial, next-to-last, final = 
     -1152448.82815995  -1152448.83019807  -1152448.83019807
  Force two-norm initial, final = 0.22811264 0.00018265314
  Force max component initial, final = 0.18056847 4.9215698e-05
  Final line search alpha, max atom move = 1.0000000 4.9215698e-05
  Iterations, force evaluations = 181 362

MPI task timing breakdown:
Section |  min time  |  avg time  |  max time  |%varavg| %total
---------------------------------------------------------------
Pair    | 0.54624    | 1.519      | 1.9772     |  33.4 | 72.06
Neigh   | 0          | 0          | 0          |   0.0 |  0.00
Comm    | 0.031776   | 0.34351    | 1.0292     |  48.9 | 16.30
Output  | 0.00025287 | 0.00026073 | 0.00038384 |   0.0 |  0.01
Modify  | 2.1437e-05 | 0.0029892  | 0.0063362  |   2.6 |  0.14
Other   |            | 0.2421     |            |       | 11.48

Nlocal:        2776.45 ave        3941 max           0 min
Histogram: 8 4 4 0 4 12 8 0 28 36
Nghost:        3878.99 ave        5424 max         232 min
Histogram: 8 0 8 0 16 0 8 8 16 40
Neighs:        79213.2 ave      114818 max           0 min
Histogram: 8 4 4 0 10 6 8 8 22 34

Total # of neighbors = 8238176
Ave neighs/atom = 28.530381
Neighbor list builds = 0
Dangerous builds = 0
The dot product: 4.1375453844272e-09
Setting atom values ...
  1 settings made for x
  1 settings made for y
  1 settings made for z
Setting up cg style minimization ...
  Unit style    : metal
  Current step  : 6039
Per MPI rank memory allocation (min/avg/max) = 5.441 | 5.816 | 6.074 Mbytes
Step PotEng KinEng TotEng v_fx v_fy v_fz 
    6039   -1152448.8            0   -1152448.8 -0.002165223 -0.0012892413 0.0076852717 
    6169   -1152448.8            0   -1152448.8 9.1438184e-06 1.7180955e-05 7.1860319e-06 
Loop time of 1.50332 on 104 procs for 130 steps with 288751 atoms

99.9% CPU use with 104 MPI tasks x 1 OpenMP threads

Minimization stats:
  Stopping criterion = energy tolerance
  Energy initial, next-to-last, final = 
     -1152448.80017244  -1152448.80230806  -1152448.80230806
  Force two-norm initial, final = 0.23259781 0.00024037025
  Force max component initial, final = 0.1827435 6.1350433e-05
  Final line search alpha, max atom move = 1.0000000 6.1350433e-05
  Iterations, force evaluations = 130 260

MPI task timing breakdown:
Section |  min time  |  avg time  |  max time  |%varavg| %total
---------------------------------------------------------------
Pair    | 0.39279    | 1.0989     | 1.4113     |  28.4 | 73.10
Neigh   | 0          | 0          | 0          |   0.0 |  0.00
Comm    | 0.022964   | 0.24643    | 0.74913    |  42.3 | 16.39
Output  | 0          | 0          | 0          |   0.0 |  0.00
Modify  | 1.5461e-05 | 0.0021574  | 0.0046032  |   2.2 |  0.14
Other   |            | 0.1559     |            |       | 10.37

Nlocal:        2776.45 ave        3932 max           0 min
Histogram: 8 4 4 0 4 12 8 0 26 38
Nghost:        3879.01 ave        5425 max         232 min
Histogram: 8 0 8 0 16 0 8 8 16 40
Neighs:        79213.2 ave      114564 max           0 min
Histogram: 8 4 4 0 8 8 8 8 20 36

Total # of neighbors = 8238176
Ave neighs/atom = 28.530381
Neighbor list builds = 0
Dangerous builds = 0
The dot product: 1.50567130250546e-08
Setting atom values ...
  1 settings made for x
  1 settings made for y
  1 settings made for z
Setting up cg style minimization ...
  Unit style    : metal
  Current step  : 6169
Per MPI rank memory allocation (min/avg/max) = 5.441 | 5.816 | 6.074 Mbytes
Step PotEng KinEng TotEng v_fx v_fy v_fz 
    6169   -1152448.8            0   -1152448.8 -0.0020601024 -0.0015184235 0.0063667836 
    6390   -1152448.8            0   -1152448.8 3.9211304e-07 8.1370118e-07 5.6219293e-07 
Loop time of 2.55732 on 104 procs for 221 steps with 288751 atoms

99.9% CPU use with 104 MPI tasks x 1 OpenMP threads

Minimization stats:
  Stopping criterion = energy tolerance
  Energy initial, next-to-last, final = 
      -1152448.7698714   -1152448.7720833   -1152448.7720833
  Force two-norm initial, final = 0.2366226 4.5015893e-05
  Force max component initial, final = 0.18515499 1.2371476e-05
  Final line search alpha, max atom move = 1.0000000 1.2371476e-05
  Iterations, force evaluations = 221 442

MPI task timing breakdown:
Section |  min time  |  avg time  |  max time  |%varavg| %total
---------------------------------------------------------------
Pair    | 0.66612    | 1.856      | 2.4007     |  36.9 | 72.58
Neigh   | 0          | 0          | 0          |   0.0 |  0.00
Comm    | 0.038263   | 0.41641    | 1.2588     |  54.6 | 16.28
Output  | 0          | 0          | 0          |   0.0 |  0.00
Modify  | 2.6415e-05 | 0.0036488  | 0.0077497  |   2.8 |  0.14
Other   |            | 0.2812     |            |       | 11.00

Nlocal:        2776.45 ave        3931 max           0 min
Histogram: 8 4 4 0 4 12 8 0 26 38
Nghost:        3879.01 ave        5425 max         232 min
Histogram: 8 0 8 0 16 0 8 8 16 40
Neighs:        79213.2 ave      114531 max           0 min
Histogram: 8 4 4 0 8 8 8 8 20 36

Total # of neighbors = 8238169
Ave neighs/atom = 28.530357
Neighbor list builds = 0
Dangerous builds = 0
The dot product: 5.23060104891931e-10
Setting atom values ...
  1 settings made for x
  1 settings made for y
  1 settings made for z
Setting up cg style minimization ...
  Unit style    : metal
  Current step  : 6390
Per MPI rank memory allocation (min/avg/max) = 5.441 | 5.816 | 6.074 Mbytes
Step PotEng KinEng TotEng v_fx v_fy v_fz 
    6390   -1152448.7            0   -1152448.7 -0.0022139007 -0.0019316138 0.0058778412 
    6525   -1152448.7            0   -1152448.7 1.400426e-06 -7.2318636e-06 -3.2371855e-05 
Loop time of 1.56567 on 104 procs for 135 steps with 288751 atoms

99.9% CPU use with 104 MPI tasks x 1 OpenMP threads

Minimization stats:
  Stopping criterion = energy tolerance
  Energy initial, next-to-last, final = 
     -1152448.73720614  -1152448.73946835  -1152448.73946835
  Force two-norm initial, final = 0.2397505 0.00022532844
  Force max component initial, final = 0.1874063 8.2647728e-05
  Final line search alpha, max atom move = 1.0000000 8.2647728e-05
  Iterations, force evaluations = 135 270

MPI task timing breakdown:
Section |  min time  |  avg time  |  max time  |%varavg| %total
---------------------------------------------------------------
Pair    | 0.40702    | 1.1379     | 1.4697     |  28.9 | 72.68
Neigh   | 0          | 0          | 0          |   0.0 |  0.00
Comm    | 0.02316    | 0.2555     | 0.77563    |  43.0 | 16.32
Output  | 0          | 0          | 0          |   0.0 |  0.00
Modify  | 1.6303e-05 | 0.002237   | 0.0047391  |   2.2 |  0.14
Other   |            | 0.1701     |            |       | 10.86

Nlocal:        2776.45 ave        3930 max           0 min
Histogram: 8 4 4 0 4 12 8 0 26 38
Nghost:        3879.12 ave        5425 max         232 min
Histogram: 8 0 8 0 16 0 8 8 16 40
Neighs:        79213.1 ave      114492 max           0 min
Histogram: 8 4 4 0 8 8 8 8 20 36

Total # of neighbors = 8238166
Ave neighs/atom = 28.530346
Neighbor list builds = 0
Dangerous builds = 0
The dot product: 1.74816210043033e-08
Setting atom values ...
  1 settings made for x
  1 settings made for y
  1 settings made for z
Setting up cg style minimization ...
  Unit style    : metal
  Current step  : 6525
Per MPI rank memory allocation (min/avg/max) = 5.441 | 5.816 | 6.074 Mbytes
Step PotEng KinEng TotEng v_fx v_fy v_fz 
    6525   -1152448.7            0   -1152448.7 -0.002469451 -0.0024515052 0.0056093672 
    6686   -1152448.7            0   -1152448.7 3.0482708e-06 8.9170023e-06 1.3127395e-05 
Loop time of 1.86461 on 104 procs for 161 steps with 288751 atoms

99.9% CPU use with 104 MPI tasks x 1 OpenMP threads

Minimization stats:
  Stopping criterion = energy tolerance
  Energy initial, next-to-last, final = 
     -1152448.70214357  -1152448.70443629  -1152448.70443629
  Force two-norm initial, final = 0.24217123 0.00029078534
  Force max component initial, final = 0.18969561 0.00011454623
  Final line search alpha, max atom move = 1.0000000 0.00011454623
  Iterations, force evaluations = 161 322

MPI task timing breakdown:
Section |  min time  |  avg time  |  max time  |%varavg| %total
---------------------------------------------------------------
Pair    | 0.48668    | 1.3534     | 1.7491     |  31.5 | 72.58
Neigh   | 0          | 0          | 0          |   0.0 |  0.00
Comm    | 0.029189   | 0.30352    | 0.92307    |  46.7 | 16.28
Output  | 0          | 0          | 0          |   0.0 |  0.00
Modify  | 1.9487e-05 | 0.0026671  | 0.0056519  |   2.4 |  0.14
Other   |            | 0.2051     |            |       | 11.00

Nlocal:        2776.45 ave        3930 max           0 min
Histogram: 8 4 4 0 4 12 8 0 26 38
Nghost:        3879.10 ave        5425 max         232 min
Histogram: 8 0 8 0 16 0 8 8 16 40
Neighs:        79213.1 ave      114492 max           0 min
Histogram: 8 4 4 0 8 8 8 8 20 36

Total # of neighbors = 8238166
Ave neighs/atom = 28.530346
Neighbor list builds = 0
Dangerous builds = 0
The dot product: -2.91306008707748e-09
Setting atom values ...
  1 settings made for x
  1 settings made for y
  1 settings made for z
Setting up cg style minimization ...
  Unit style    : metal
  Current step  : 6686
Per MPI rank memory allocation (min/avg/max) = 5.441 | 5.816 | 6.074 Mbytes
Step PotEng KinEng TotEng v_fx v_fy v_fz 
    6686   -1152448.7            0   -1152448.7 -0.0028811008 -0.0030435243 0.0059864772 
    6895   -1152448.7            0   -1152448.7 1.565791e-06 2.7172566e-06 3.8332186e-07 
Loop time of 2.43316 on 104 procs for 209 steps with 288751 atoms

99.9% CPU use with 104 MPI tasks x 1 OpenMP threads

Minimization stats:
  Stopping criterion = energy tolerance
  Energy initial, next-to-last, final = 
     -1152448.66467777  -1152448.66698316  -1152448.66698316
  Force two-norm initial, final = 0.24408523 7.6355952e-05
  Force max component initial, final = 0.19206225 2.7382921e-05
  Final line search alpha, max atom move = 1.0000000 2.7382921e-05
  Iterations, force evaluations = 209 418

MPI task timing breakdown:
Section |  min time  |  avg time  |  max time  |%varavg| %total
---------------------------------------------------------------
Pair    | 0.62848    | 1.7634     | 2.2769     |  36.0 | 72.47
Neigh   | 0          | 0          | 0          |   0.0 |  0.00
Comm    | 0.037675   | 0.39711    | 1.2029     |  53.4 | 16.32
Output  | 0          | 0          | 0          |   0.0 |  0.00
Modify  | 2.5973e-05 | 0.0034553  | 0.0073267  |   2.8 |  0.14
Other   |            | 0.2692     |            |       | 11.06

Nlocal:        2776.45 ave        3930 max           0 min
Histogram: 8 4 4 0 4 12 8 0 26 38
Nghost:        3879.05 ave        5425 max         232 min
Histogram: 8 0 8 0 16 0 8 8 16 40
Neighs:        79213.1 ave      114490 max           0 min
Histogram: 8 4 4 0 8 8 8 8 20 36

Total # of neighbors = 8238163
Ave neighs/atom = 28.530336
Neighbor list builds = 0
Dangerous builds = 0
The dot product: 1.73266432664694e-09
Setting atom values ...
  1 settings made for x
  1 settings made for y
  1 settings made for z
Setting up cg style minimization ...
  Unit style    : metal
  Current step  : 6895
Per MPI rank memory allocation (min/avg/max) = 5.441 | 5.816 | 6.074 Mbytes
Step PotEng KinEng TotEng v_fx v_fy v_fz 
    6895   -1152448.6            0   -1152448.6 -0.0034274903 -0.0037621979 0.0067101155 
    7000   -1152448.6            0   -1152448.6 6.1143662e-06 5.9578887e-06 -1.4561588e-05 
    7042   -1152448.6            0   -1152448.6 4.8355799e-06 8.8419781e-06 2.6861561e-06 
[...]

Nlocal:        2776.45 ave        3949 max           0 min
Histogram: 8 4 4 0 4 12 8 0 28 36
Nghost:        3879.03 ave        5424 max         232 min
Histogram: 8 0 8 0 16 0 8 8 16 40
Neighs:        79213.3 ave      115106 max           0 min
Histogram: 8 4 4 0 10 6 8 8 24 32

Total # of neighbors = 8238180
Ave neighs/atom = 28.530395
Neighbor list builds = 0
Dangerous builds = 0
The dot product: -8.43092332606659e-09
Setting atom values ...
  1 settings made for x
  1 settings made for y
  1 settings made for z
Setting up cg style minimization ...
  Unit style    : metal
  Current step  : 5082
Per MPI rank memory allocation (min/avg/max) = 5.441 | 5.816 | 6.074 Mbytes
Step PotEng KinEng TotEng v_fx v_fy v_fz 
    5082   -1152448.9            0   -1152448.9 -0.0042320268 -0.0026437571  0.014728989 
    5387   -1152448.9            0   -1152448.9 -8.8137207e-09 -4.5749261e-08 -1.0723731e-07 
Loop time of 3.55488 on 104 procs for 305 steps with 288751 atoms

99.9% CPU use with 104 MPI tasks x 1 OpenMP threads

Minimization stats:
  Stopping criterion = linesearch alpha is zero
  Energy initial, next-to-last, final = 
     -1152448.85637464  -1152448.85828905  -1152448.85828905
  Force two-norm initial, final = 0.22302513 1.5510070e-06
  Force max component initial, final = 0.17796988 2.7713988e-07
  Final line search alpha, max atom move = 0.5 1.3856994e-07
  Iterations, force evaluations = 305 611

MPI task timing breakdown:
Section |  min time  |  avg time  |  max time  |%varavg| %total
---------------------------------------------------------------
Pair    | 0.92155    | 2.5646     | 3.3442     |  43.1 | 72.14
Neigh   | 0          | 0          | 0          |   0.0 |  0.00
Comm    | 0.055336   | 0.57783    | 1.7339     |  63.4 | 16.25
Output  | 0          | 0          | 0          |   0.0 |  0.00
Modify  | 3.4385e-05 | 0.0050414  | 0.010664   |   3.3 |  0.14
Other   |            | 0.4074     |            |       | 11.46

Nlocal:        2776.45 ave        3945 max           0 min
Histogram: 8 4 4 0 4 12 8 0 28 36
Nghost:        3878.99 ave        5424 max         232 min
Histogram: 8 0 8 0 16 0 8 8 16 40
Neighs:        79213.3 ave      114964 max           0 min
Histogram: 8 4 4 0 10 6 8 8 24 32

Total # of neighbors = 8238179
Ave neighs/atom = 28.530391
Neighbor list builds = 0
Dangerous builds = 0
The dot product: -1.23776031229661e-10
Setting atom values ...
  1 settings made for x
  1 settings made for y
  1 settings made for z
Setting up cg style minimization ...
  Unit style    : metal
  Current step  : 5387
Per MPI rank memory allocation (min/avg/max) = 5.441 | 5.816 | 6.074 Mbytes
Step PotEng KinEng TotEng v_fx v_fy v_fz 
    5387   -1152448.8            0   -1152448.8 -0.0028979249 -0.0017035477  0.010354389 
    5583   -1152448.8            0   -1152448.8 -3.4917219e-06 -4.8144792e-06 3.1157037e-06 
Loop time of 2.27294 on 104 procs for 196 steps with 288751 atoms

99.9% CPU use with 104 MPI tasks x 1 OpenMP threads

Minimization stats:
  Stopping criterion = energy tolerance
  Energy initial, next-to-last, final = 
     -1152448.83084337  -1152448.83286956  -1152448.83286956
  Force two-norm initial, final = 0.22762906 8.7387888e-05
  Force max component initial, final = 0.1802879 3.3721137e-05
  Final line search alpha, max atom move = 1.0000000 3.3721137e-05
  Iterations, force evaluations = 196 392

MPI task timing breakdown:
Section |  min time  |  avg time  |  max time  |%varavg| %total
---------------------------------------------------------------
Pair    | 0.58856    | 1.6491     | 2.144      |  34.7 | 72.55
Neigh   | 0          | 0          | 0          |   0.0 |  0.00
Comm    | 0.036403   | 0.37582    | 1.1389     |  50.9 | 16.53
Output  | 0          | 0          | 0          |   0.0 |  0.00
Modify  | 2.2463e-05 | 0.0032401  | 0.0069563  |   2.7 |  0.14
Other   |            | 0.2448     |            |       | 10.77

Nlocal:        2776.45 ave        3941 max           0 min
Histogram: 8 4 4 0 4 12 8 0 28 36
Nghost:        3878.99 ave        5424 max         232 min
Histogram: 8 0 8 0 16 0 8 8 16 40
Neighs:        79213.2 ave      114818 max           0 min
Histogram: 8 4 4 0 10 6 8 8 22 34

Total # of neighbors = 8238177
Ave neighs/atom = 28.530384
Neighbor list builds = 0
Dangerous builds = 0
The dot product: -3.78626187131007e-09
Setting atom values ...
  1 settings made for x
  1 settings made for y
  1 settings made for z
Setting up cg style minimization ...
  Unit style    : metal
  Current step  : 5583
Per MPI rank memory allocation (min/avg/max) = 5.441 | 5.816 | 6.074 Mbytes
Step PotEng KinEng TotEng v_fx v_fy v_fz 
    5583   -1152448.8            0   -1152448.8  -0.00228155 -0.0014137089 0.0079106125 
    5724   -1152448.8            0   -1152448.8 -1.0724447e-05 -1.9223576e-05 -5.3028371e-06 
Loop time of 1.63687 on 104 procs for 141 steps with 288751 atoms

99.9% CPU use with 104 MPI tasks x 1 OpenMP threads

Minimization stats:
  Stopping criterion = energy tolerance
  Energy initial, next-to-last, final = 
     -1152448.80308252  -1152448.80520966  -1152448.80520966
  Force two-norm initial, final = 0.23223387 0.00020345128
  Force max component initial, final = 0.1825974 7.0930024e-05
  Final line search alpha, max atom move = 1.0000000 7.0930024e-05
  Iterations, force evaluations = 141 282

MPI task timing breakdown:
Section |  min time  |  avg time  |  max time  |%varavg| %total
---------------------------------------------------------------
Pair    | 0.42405    | 1.1849     | 1.5378     |  29.4 | 72.39
Neigh   | 0          | 0          | 0          |   0.0 |  0.00
Comm    | 0.026921   | 0.26568    | 0.80509    |  43.4 | 16.23
Output  | 0          | 0          | 0          |   0.0 |  0.00
Modify  | 1.5844e-05 | 0.0023287  | 0.0049253  |   2.3 |  0.14
Other   |            | 0.1839     |            |       | 11.24

Nlocal:        2776.45 ave        3932 max           0 min
Histogram: 8 4 4 0 4 12 8 0 26 38
Nghost:        3878.99 ave        5424 max         232 min
Histogram: 8 0 8 0 16 0 8 8 16 40
Neighs:        79213.2 ave      114564 max           0 min
Histogram: 8 4 4 0 8 8 8 8 20 36

Total # of neighbors = 8238177
Ave neighs/atom = 28.530384
Neighbor list builds = 0
Dangerous builds = 0
The dot product: -1.74672711545198e-08
Setting atom values ...
  1 settings made for x
  1 settings made for y
  1 settings made for z
Setting up cg style minimization ...
  Unit style    : metal
  Current step  : 5724
Per MPI rank memory allocation (min/avg/max) = 5.441 | 5.816 | 6.074 Mbytes
Step PotEng KinEng TotEng v_fx v_fy v_fz 
    5724   -1152448.8            0   -1152448.8 -0.0021087962 -0.0015666902 0.0064712105 
    5923   -1152448.8            0   -1152448.8 7.4405973e-07 4.0197437e-06 9.4357501e-06 
Loop time of 2.32713 on 104 procs for 199 steps with 288751 atoms

99.9% CPU use with 104 MPI tasks x 1 OpenMP threads

Minimization stats:
  Stopping criterion = energy tolerance
  Energy initial, next-to-last, final = 
     -1152448.77301755    -1152448.775222    -1152448.775222
  Force two-norm initial, final = 0.23616479 8.8475452e-05
  Force max component initial, final = 0.18478595 2.6799842e-05
  Final line search alpha, max atom move = 1.0000000 2.6799842e-05
  Iterations, force evaluations = 199 398

MPI task timing breakdown:
Section |  min time  |  avg time  |  max time  |%varavg| %total
---------------------------------------------------------------
Pair    | 0.59865    | 1.6746     | 2.1944     |  35.0 | 71.96
Neigh   | 0          | 0          | 0          |   0.0 |  0.00
Comm    | 0.034536   | 0.38355    | 1.1563     |  50.8 | 16.48
Output  | 0          | 0          | 0          |   0.0 |  0.00
Modify  | 2.3337e-05 | 0.0032922  | 0.0069637  |   2.7 |  0.14
Other   |            | 0.2657     |            |       | 11.42

Nlocal:        2776.45 ave        3931 max           0 min
Histogram: 8 4 4 0 4 12 8 0 26 38
Nghost:        3879.01 ave        5425 max         232 min
Histogram: 8 0 8 0 16 0 8 8 16 40
Neighs:        79213.2 ave      114531 max           0 min
Histogram: 8 4 4 0 8 8 8 8 20 36

Total # of neighbors = 8238169
Ave neighs/atom = 28.530357
Neighbor list builds = 0
Dangerous builds = 0
The dot product: -1.19233967075156e-09
Setting atom values ...
  1 settings made for x
  1 settings made for y
  1 settings made for z
Setting up cg style minimization ...
  Unit style    : metal
  Current step  : 5923
Per MPI rank memory allocation (min/avg/max) = 5.441 | 5.816 | 6.074 Mbytes
Step PotEng KinEng TotEng v_fx v_fy v_fz 
    5923   -1152448.7            0   -1152448.7 -0.0022056087 -0.001906247 0.0059122924 
    6000   -1152448.7            0   -1152448.7 7.2492978e-06 -3.9897542e-07 -4.2013191e-05 
    6136   -1152448.7            0   -1152448.7 5.3136256e-07 7.1933338e-08 -2.7366812e-06 
Loop time of 2.47375 on 104 procs for 213 steps with 288751 atoms

99.9% CPU use with 104 MPI tasks x 1 OpenMP threads

Minimization stats:
  Stopping criterion = energy tolerance
  Energy initial, next-to-last, final = 
     -1152448.74059047  -1152448.74284858  -1152448.74284858
  Force two-norm initial, final = 0.23945381 6.6435717e-05
  Force max component initial, final = 0.18715584 2.0858842e-05
  Final line search alpha, max atom move = 1.0000000 2.0858842e-05
  Iterations, force evaluations = 213 426

MPI task timing breakdown:
Section |  min time  |  avg time  |  max time  |%varavg| %total
---------------------------------------------------------------
Pair    | 0.64276    | 1.7922     | 2.3181     |  36.0 | 72.45
Neigh   | 0          | 0          | 0          |   0.0 |  0.00
Comm    | 0.040471   | 0.40238    | 1.2105     |  53.3 | 16.27
Output  | 0.00016568 | 0.00016966 | 0.00031527 |   0.0 |  0.01
Modify  | 2.5651e-05 | 0.0035176  | 0.0074297  |   2.8 |  0.14
Other   |            | 0.2754     |            |       | 11.13

Nlocal:        2776.45 ave        3930 max           0 min
Histogram: 8 4 4 0 4 12 8 0 26 38
Nghost:        3879.09 ave        5425 max         232 min
Histogram: 8 0 8 0 16 0 8 8 16 40
Neighs:        79213.1 ave      114492 max           0 min
Histogram: 8 4 4 0 8 8 8 8 20 36

Total # of neighbors = 8238166
Ave neighs/atom = 28.530346
Neighbor list builds = 0
Dangerous builds = 0
The dot product: 2.01672856565348e-09
Setting atom values ...
  1 settings made for x
  1 settings made for y
  1 settings made for z
Setting up cg style minimization ...
  Unit style    : metal
  Current step  : 6136
Per MPI rank memory allocation (min/avg/max) = 5.441 | 5.816 | 6.074 Mbytes
Step PotEng KinEng TotEng v_fx v_fy v_fz 
    6136   -1152448.7            0   -1152448.7 -0.0024542068 -0.0023928258 0.0057154094 
    6277   -1152448.7            0   -1152448.7 1.0391161e-05 1.4536839e-05 -9.2148049e-06 
Loop time of 1.65572 on 104 procs for 141 steps with 288751 atoms

99.9% CPU use with 104 MPI tasks x 1 OpenMP threads

Minimization stats:
  Stopping criterion = energy tolerance
  Energy initial, next-to-last, final = 
     -1152448.70576896  -1152448.70805936  -1152448.70805936
  Force two-norm initial, final = 0.24199969 0.00019700161
  Force max component initial, final = 0.18951892 6.3408662e-05
  Final line search alpha, max atom move = 1.0000000 6.3408662e-05
  Iterations, force evaluations = 141 282

MPI task timing breakdown:
Section |  min time  |  avg time  |  max time  |%varavg| %total
---------------------------------------------------------------
Pair    | 0.42512    | 1.1904     | 1.5567     |  29.6 | 71.90
Neigh   | 0          | 0          | 0          |   0.0 |  0.00
Comm    | 0.02492    | 0.273      | 0.80789    |  42.8 | 16.49
Output  | 0          | 0          | 0          |   0.0 |  0.00
Modify  | 1.7058e-05 | 0.0023325  | 0.0049628  |   2.3 |  0.14
Other   |            | 0.19       |            |       | 11.47

Nlocal:        2776.45 ave        3930 max           0 min
Histogram: 8 4 4 0 4 12 8 0 26 38
Nghost:        3879.12 ave        5425 max         232 min
Histogram: 8 0 8 0 16 0 8 8 16 40
Neighs:        79213.1 ave      114492 max           0 min
Histogram: 8 4 4 0 8 8 8 8 20 36

Total # of neighbors = 8238165
Ave neighs/atom = 28.530343
Neighbor list builds = 0
Dangerous builds = 0
The dot product: 2.05135274966528e-08
Setting atom values ...
  1 settings made for x
  1 settings made for y
  1 settings made for z
Setting up cg style minimization ...
  Unit style    : metal
  Current step  : 6277
Per MPI rank memory allocation (min/avg/max) = 5.441 | 5.816 | 6.074 Mbytes
Step PotEng KinEng TotEng v_fx v_fy v_fz 
    6277   -1152448.7            0   -1152448.7 -0.0028237835 -0.0029792219 0.0058731667 
    6486   -1152448.7            0   -1152448.7 1.8361961e-06 2.9157764e-06 -4.7415316e-07 
Loop time of 2.47313 on 104 procs for 209 steps with 288751 atoms

99.9% CPU use with 104 MPI tasks x 1 OpenMP threads

Minimization stats:
  Stopping criterion = energy tolerance
  Energy initial, next-to-last, final = 
     -1152448.66854334  -1152448.67084863  -1152448.67084863
  Force two-norm initial, final = 0.24394725 7.3515697e-05
  Force max component initial, final = 0.19187151 2.4942793e-05
  Final line search alpha, max atom move = 1.0000000 2.4942793e-05
  Iterations, force evaluations = 209 418

MPI task timing breakdown:
Section |  min time  |  avg time  |  max time  |%varavg| %total
---------------------------------------------------------------
Pair    | 0.62924    | 1.758      | 2.2986     |  35.8 | 71.08
Neigh   | 0          | 0          | 0          |   0.0 |  0.00
Comm    | 0.036577   | 0.40133    | 1.1804     |  51.4 | 16.23
Output  | 0          | 0          | 0          |   0.0 |  0.00
Modify  | 2.3799e-05 | 0.0034528  | 0.0072918  |   2.8 |  0.14
Other   |            | 0.3104     |            |       | 12.55

Nlocal:        2776.45 ave        3930 max           0 min
Histogram: 8 4 4 0 4 12 8 0 26 38
Nghost:        3879.06 ave        5425 max         232 min
Histogram: 8 0 8 0 16 0 8 8 16 40
Neighs:        79213.1 ave      114490 max           0 min
Histogram: 8 4 4 0 8 8 8 8 20 36

Total # of neighbors = 8238163
Ave neighs/atom = 28.530336
Neighbor list builds = 0
Dangerous builds = 0
The dot product: 2.63183880184012e-09
Setting atom values ...
  1 settings made for x
  1 settings made for y
  1 settings made for z
Setting up cg style minimization ...
  Unit style    : metal
  Current step  : 6486
Per MPI rank memory allocation (min/avg/max) = 5.441 | 5.816 | 6.074 Mbytes
Step PotEng KinEng TotEng v_fx v_fy v_fz 
    6486   -1152448.6            0   -1152448.6 -0.0033663081 -0.0036859278  0.006614186 
    6670   -1152448.6            0   -1152448.6 -1.0261682e-06 2.4357902e-06 1.4247943e-05 
Loop time of 2.15586 on 104 procs for 184 steps with 288751 atoms

99.9% CPU use with 104 MPI tasks x 1 OpenMP threads

Minimization stats:
  Stopping criterion = energy tolerance
  Energy initial, next-to-last, final = 
     -1152448.62892455  -1152448.63122998  -1152448.63122998
  Force two-norm initial, final = 0.24560518 0.00018461919
  Force max component initial, final = 0.19434122 7.2679300e-05
  Final line search alpha, max atom move = 1.0000000 7.2679300e-05
  Iterations, force evaluations = 184 368

MPI task timing breakdown:
Section |  min time  |  avg time  |  max time  |%varavg| %total
---------------------------------------------------------------
Pair    | 0.55295    | 1.5484     | 2.0085     |  33.6 | 71.82
Neigh   | 0          | 0          | 0          |   0.0 |  0.00
Comm    | 0.04013    | 0.35258    | 1.0526     |  49.1 | 16.35
Output  | 0          | 0          | 0          |   0.0 |  0.00
Modify  | 2.1086e-05 | 0.003039   | 0.0064906  |   2.6 |  0.14
Other   |            | 0.2518     |            |       | 11.68

Nlocal:        2776.45 ave        3930 max           0 min
Histogram: 8 4 4 0 4 12 8 0 26 38
Nghost:        3879.02 ave        5425 max         232 min
Histogram: 8 0 8 0 16 0 8 8 16 40
Neighs:        79213.1 ave      114491 max           0 min
Histogram: 8 4 4 0 8 8 8 8 20 36

Total # of neighbors = 8238163
Ave neighs/atom = 28.530336
Neighbor list builds = 0
Dangerous builds = 0
The dot product: -1.10613609602952e-08
Setting atom values ...
  1 settings made for x
  1 settings made for y
  1 settings made for z
Setting up cg style minimization ...
  Unit style    : metal
  Current step  : 6670
Per MPI rank memory allocation (min/avg/max) = 5.441 | 5.816 | 6.074 Mbytes
Step PotEng KinEng TotEng v_fx v_fy v_fz 
    6670   -1152448.6            0   -1152448.6 -0.0040287128 -0.0045477872 0.0075264906 
    6885   -1152448.6            0   -1152448.6 1.0897276e-06 2.1496932e-06 1.1430633e-06 
Loop time of 2.50306 on 104 procs for 215 steps with 288751 atoms

99.9% CPU use with 104 MPI tasks x 1 OpenMP threads

Minimization stats:
  Stopping criterion = energy tolerance
  Energy initial, next-to-last, final = 
     -1152448.58693629  -1152448.58923028  -1152448.58923028
  Force two-norm initial, final = 0.24713841 6.8827097e-05
  Force max component initial, final = 0.19691378 2.4431767e-05
  Final line search alpha, max atom move = 1.0000000 2.4431767e-05
  Iterations, force evaluations = 215 430

MPI task timing breakdown:
Section |  min time  |  avg time  |  max time  |%varavg| %total
---------------------------------------------------------------
Pair    | 0.64948    | 1.8062     | 2.358      |  36.2 | 72.16
Neigh   | 0          | 0          | 0          |   0.0 |  0.00
Comm    | 0.037992   | 0.40688    | 1.2231     |  53.3 | 16.26
Output  | 0          | 0          | 0          |   0.0 |  0.00
Modify  | 2.5195e-05 | 0.003554   | 0.0075281  |   2.8 |  0.14
Other   |            | 0.2864     |            |       | 11.44

Nlocal:        2776.45 ave        3930 max           0 min
Histogram: 8 4 4 0 4 12 8 0 26 38
Nghost:        3878.99 ave        5425 max         232 min
Histogram: 8 0 8 0 16 0 8 8 16 40
Neighs:        79213.1 ave      114489 max           0 min
Histogram: 8 4 4 0 8 8 8 8 20 36

Total # of neighbors = 8238160
Ave neighs/atom = 28.530325
Neighbor list builds = 0
Dangerous builds = 0
The dot product: -5.39412251578276e-11
Setting up cg style minimization ...
  Unit style    : metal
  Current step  : 6885
Per MPI rank memory allocation (min/avg/max) = 5.441 | 5.816 | 6.074 Mbytes
Step PotEng KinEng TotEng v_fx v_fy v_fz 
    6885   -1152448.6            0   -1152448.6   -1.8319194    1.0974462  -0.31745613 
    7000   -1152449.5            0   -1152449.5 0.00056946867 0.0013902032 0.0011244318 
    7196   -1152449.5            0   -1152449.5 2.3718546e-06 4.9586788e-06 2.2680438e-07 
Loop time of 3.60298 on 104 procs for 311 steps with 288751 atoms

99.9% CPU use with 104 MPI tasks x 1 OpenMP threads

Minimization stats:
  Stopping criterion = energy tolerance
  Energy initial, next-to-last, final = 
     -1152448.58923028  -1152449.45035272  -1152449.45035272
  Force two-norm initial, final = 2.1589570 3.2948450e-05
  Force max component initial, final = 1.8319194 4.9586788e-06
  Final line search alpha, max atom move = 1.0000000 4.9586788e-06
  Iterations, force evaluations = 311 616

MPI task timing breakdown:
Section |  min time  |  avg time  |  max time  |%varavg| %total
---------------------------------------------------------------
Pair    | 0.94473    | 2.5939     | 3.3765     |  43.2 | 71.99
Neigh   | 4.0092e-05 | 0.01176    | 0.016986   |   4.5 |  0.33
Comm    | 0.066414   | 0.58814    | 1.7589     |  63.4 | 16.32
Output  | 0.00018504 | 0.00019504 | 0.0003816  |   0.0 |  0.01
Modify  | 3.2887e-05 | 0.0033156  | 0.0084197  |   3.6 |  0.09
Other   |            | 0.4057     |            |       | 11.26

Nlocal:        2776.45 ave        3932 max           0 min
Histogram: 8 4 4 0 4 12 8 0 26 38
Nghost:        3878.95 ave        5425 max         232 min
Histogram: 8 0 8 0 16 0 8 8 16 40
Neighs:        79213.1 ave      114551 max           0 min
Histogram: 8 4 4 0 8 8 8 8 20 36

Total # of neighbors = 8238167
Ave neighs/atom = 28.530350
Neighbor list builds = 4
Dangerous builds = 0
