LAMMPS (29 Oct 2020)
OMP_NUM_THREADS environment is not set. Defaulting to 1 thread. (../comm.cpp:94)
  using 1 OpenMP thread(s) per MPI task
OMP_NUM_THREADS environment is not set. Defaulting to 1 thread. (../comm.cpp:94)
  using 1 OpenMP thread(s) per MPI task
Reading data file ...
  orthogonal box = (-122.39241 -121.13707 -37.090501) to (122.39241 121.13707 37.090501)
  13 by 4 by 1 MPI processor grid
  reading atoms ...
  288751 atoms
  read_data CPU = 0.472 seconds
199981 atoms in group inner
88770 atoms in group outer
1 atoms in group carbon
Neighbor list info ...
  update every 1 steps, delay 0 steps, check yes
  max neighbors/atom: 2000, page size: 100000
  master list distance cutoff = 5.6
  ghost atom cutoff = 5.6
  binsize = 2.8, bins = 88 87 27
  1 neighbor lists, perpetual/occasional/extra = 1 0 0
  (1) pair eam/alloy, perpetual
      attributes: half, newton on
      pair build: half/bin/atomonly/newton
      stencil: half/bin/3d/newton
      bin: standard
Setting up cg style minimization ...
  Unit style    : metal
  Current step  : 0
Per MPI rank memory allocation (min/avg/max) = 5.465 | 6.344 | 6.728 Mbytes
Step v_fx v_fy v_fz PotEng KinEng TotEng 
       0  0.011710107   0.12516936 -0.036925831   -1152444.6            0   -1152444.6 
     236 -9.8816735e-06 2.6692367e-06 8.4833363e-06     -1152449            0     -1152449 
Loop time of 5.31392 on 52 procs for 236 steps with 288751 atoms

99.8% CPU use with 52 MPI tasks x 1 OpenMP threads

Minimization stats:
  Stopping criterion = linesearch alpha is zero
  Energy initial, next-to-last, final = 
     -1152444.63020818  -1152448.97218896  -1152448.97218896
  Force two-norm initial, final = 23.793788 0.0001295379
  Force max component initial, final = 13.971511 2.1336187e-05
  Final line search alpha, max atom move = 0.5 1.0668094e-05
  Iterations, force evaluations = 236 470

MPI task timing breakdown:
Section |  min time  |  avg time  |  max time  |%varavg| %total
---------------------------------------------------------------
Pair    | 1.405      | 3.7673     | 4.9117     |  52.1 | 70.89
Neigh   | 0.00019403 | 0.054587   | 0.076971   |   9.8 |  1.03
Comm    | 0.0839     | 0.85481    | 2.6682     |  80.7 | 16.09
Output  | 0          | 0          | 0          |   0.0 |  0.00
Modify  | 7.3366e-05 | 0.0052289  | 0.013131   |   4.4 |  0.10
Other   |            | 0.632      |            |       | 11.89

Nlocal:        5552.90 ave        7901 max           0 min
Histogram: 4 2 2 0 2 6 4 1 14 17
Nghost:        6213.62 ave        8769 max         412 min
Histogram: 4 0 4 0 8 0 4 5 7 20
Neighs:       158427.0 ave      230243 max           0 min
Histogram: 4 2 2 0 5 3 4 4 12 16

Total # of neighbors = 8238208
Ave neighs/atom = 28.530492
Neighbor list builds = 9
Dangerous builds = 0
Setting atom values ...
  1 settings made for x
  1 settings made for y
  1 settings made for z
Setting up cg style minimization ...
  Unit style    : metal
  Current step  : 236
Per MPI rank memory allocation (min/avg/max) = 5.465 | 6.344 | 6.728 Mbytes
Step PotEng KinEng TotEng v_fx v_fy v_fz 
     236     -1152449            0     -1152449 -0.026809475 -0.0095259576   0.02892312 
     430     -1152449            0     -1152449 -2.8107413e-06 3.4145229e-07 5.5767178e-06 
Loop time of 4.35523 on 52 procs for 194 steps with 288751 atoms

99.9% CPU use with 52 MPI tasks x 1 OpenMP threads

Minimization stats:
  Stopping criterion = energy tolerance
  Energy initial, next-to-last, final = 
      -1152448.9685099  -1152448.97107452  -1152448.97107452
  Force two-norm initial, final = 0.21734989 0.00014569841
  Force max component initial, final = 0.090370674 7.1025840e-06
  Final line search alpha, max atom move = 1.0000000 7.1025840e-06
  Iterations, force evaluations = 194 388

MPI task timing breakdown:
Section |  min time  |  avg time  |  max time  |%varavg| %total
---------------------------------------------------------------
Pair    | 1.1112     | 3.0998     | 4.0981     |  48.7 | 71.17
Neigh   | 0          | 0          | 0          |   0.0 |  0.00
Comm    | 0.059908   | 0.70297    | 2.1818     |  73.4 | 16.14
Output  | 0          | 0          | 0          |   0.0 |  0.00
Modify  | 6.2802e-05 | 0.0065656  | 0.01376    |   3.7 |  0.15
Other   |            | 0.5459     |            |       | 12.53

Nlocal:        5552.90 ave        7900 max           0 min
Histogram: 4 2 2 0 2 6 4 0 14 18
Nghost:        6213.65 ave        8769 max         412 min
Histogram: 4 0 4 0 8 0 4 5 7 20
Neighs:       158427.0 ave      230204 max           0 min
Histogram: 4 2 2 0 5 3 4 4 12 16

Total # of neighbors = 8238206
Ave neighs/atom = 28.530485
Neighbor list builds = 0
Dangerous builds = 0
Setting atom values ...
  1 settings made for x
  1 settings made for y
  1 settings made for z
Setting up cg style minimization ...
  Unit style    : metal
  Current step  : 430
Per MPI rank memory allocation (min/avg/max) = 5.465 | 6.344 | 6.728 Mbytes
Step PotEng KinEng TotEng v_fx v_fy v_fz 
     430     -1152449            0     -1152449 -0.0011117008 0.0062040737 0.0062506434 
     646     -1152449            0     -1152449 4.8465711e-05 -6.4673992e-06 -5.6204019e-05 
Loop time of 4.80481 on 52 procs for 216 steps with 288751 atoms

99.9% CPU use with 52 MPI tasks x 1 OpenMP threads

Minimization stats:
  Stopping criterion = energy tolerance
  Energy initial, next-to-last, final = 
     -1152448.96773474   -1152448.9698649   -1152448.9698649
  Force two-norm initial, final = 0.14865997 0.00021241522
  Force max component initial, final = 0.075668841 7.0745651e-05
  Final line search alpha, max atom move = 1.0000000 7.0745651e-05
  Iterations, force evaluations = 216 432

MPI task timing breakdown:
Section |  min time  |  avg time  |  max time  |%varavg| %total
---------------------------------------------------------------
Pair    | 1.2131     | 3.4367     | 4.5108     |  51.4 | 71.53
Neigh   | 0          | 0          | 0          |   0.0 |  0.00
Comm    | 0.066321   | 0.77636    | 2.4251     |  77.8 | 16.16
Output  | 0          | 0          | 0          |   0.0 |  0.00
Modify  | 6.5398e-05 | 0.0072452  | 0.015262   |   3.9 |  0.15
Other   |            | 0.5845     |            |       | 12.16

Nlocal:        5552.90 ave        7899 max           0 min
Histogram: 4 2 2 0 2 6 4 0 14 18
Nghost:        6213.65 ave        8769 max         412 min
Histogram: 4 0 4 0 8 0 4 5 7 20
Neighs:       158427.0 ave      230166 max           0 min
Histogram: 4 2 2 0 5 3 4 4 12 16

Total # of neighbors = 8238198
Ave neighs/atom = 28.530457
Neighbor list builds = 0
Dangerous builds = 0
The dot product: -1.44051888944247e-06
Setting atom values ...
  1 settings made for x
  1 settings made for y
  1 settings made for z
Setting up cg style minimization ...
  Unit style    : metal
  Current step  : 646
Per MPI rank memory allocation (min/avg/max) = 5.465 | 6.344 | 6.728 Mbytes
Step PotEng KinEng TotEng v_fx v_fy v_fz 
     646     -1152449            0     -1152449  0.020384035  0.010462688    -0.010089 
     851     -1152449            0     -1152449 1.5598334e-05 -3.3379848e-06 -8.9781187e-06 
Loop time of 4.60162 on 52 procs for 205 steps with 288751 atoms

99.9% CPU use with 52 MPI tasks x 1 OpenMP threads

Minimization stats:
  Stopping criterion = energy tolerance
  Energy initial, next-to-last, final = 
     -1152448.96645111  -1152448.96872811  -1152448.96872811
  Force two-norm initial, final = 0.1659277 0.00015996971
  Force max component initial, final = 0.089108091 3.9184022e-05
  Final line search alpha, max atom move = 1.0000000 3.9184022e-05
  Iterations, force evaluations = 205 412

MPI task timing breakdown:
Section |  min time  |  avg time  |  max time  |%varavg| %total
---------------------------------------------------------------
Pair    | 1.1765     | 3.2929     | 4.3303     |  50.1 | 71.56
Neigh   | 0          | 0          | 0          |   0.0 |  0.00
Comm    | 0.061202   | 0.74349    | 2.3272     |  76.4 | 16.16
Output  | 0          | 0          | 0          |   0.0 |  0.00
Modify  | 6.0397e-05 | 0.0069546  | 0.014531   |   3.8 |  0.15
Other   |            | 0.5582     |            |       | 12.13

Nlocal:        5552.90 ave        7898 max           0 min
Histogram: 4 2 2 0 2 6 4 1 13 18
Nghost:        6213.71 ave        8770 max         412 min
Histogram: 4 0 4 0 8 0 4 5 7 20
Neighs:       158427.0 ave      230136 max           0 min
Histogram: 4 2 2 0 5 3 4 4 12 16

Total # of neighbors = 8238207
Ave neighs/atom = 28.530488
Neighbor list builds = 0
Dangerous builds = 0
The dot product: -2.25073551993389e-07
Setting atom values ...
  1 settings made for x
  1 settings made for y
  1 settings made for z
Setting up cg style minimization ...
  Unit style    : metal
  Current step  : 851
Per MPI rank memory allocation (min/avg/max) = 5.465 | 6.344 | 6.728 Mbytes
Step PotEng KinEng TotEng v_fx v_fy v_fz 
     851     -1152449            0     -1152449  0.033762152 0.0016675389 -0.013137754 
    1000   -1152449.2            0   -1152449.2 0.0036878646 -0.0004268803 -0.0014124698 
    1180   -1152449.2            0   -1152449.2 -3.043665e-05 3.0244177e-06 1.167587e-05 
Loop time of 7.36127 on 52 procs for 329 steps with 288751 atoms

99.9% CPU use with 52 MPI tasks x 1 OpenMP threads

Minimization stats:
  Stopping criterion = linesearch alpha is zero
  Energy initial, next-to-last, final = 
     -1152448.96457504  -1152449.19788641  -1152449.19788641
  Force two-norm initial, final = 0.17670211 0.00012793194
  Force max component initial, final = 0.087553344 3.4942510e-05
  Final line search alpha, max atom move = 0.5 1.7471255e-05
  Iterations, force evaluations = 329 659

MPI task timing breakdown:
Section |  min time  |  avg time  |  max time  |%varavg| %total
---------------------------------------------------------------
Pair    | 1.8984     | 5.2571     | 6.862      |  62.7 | 71.42
Neigh   | 0.00010156 | 0.02916    | 0.042982   |   7.3 |  0.40
Comm    | 0.10414    | 1.1823     | 3.6964     |  96.5 | 16.06
Output  | 0.00041707 | 0.00042765 | 0.00058814 |   0.0 |  0.01
Modify  | 0.00010875 | 0.011041   | 0.023256   |   4.8 |  0.15
Other   |            | 0.8813     |            |       | 11.97

Nlocal:        5552.90 ave        7884 max           0 min
Histogram: 4 2 2 0 2 6 4 1 12 19
Nghost:        6213.46 ave        8771 max         412 min
Histogram: 4 0 4 0 8 0 4 5 7 20
Neighs:       158429.0 ave      229621 max           0 min
Histogram: 4 2 2 0 5 3 4 4 11 17

Total # of neighbors = 8238293
Ave neighs/atom = 28.530786
Neighbor list builds = 5
Dangerous builds = 0
The dot product: 1.28613290468829e-06
Setting atom values ...
  1 settings made for x
  1 settings made for y
  1 settings made for z
Setting up cg style minimization ...
  Unit style    : metal
  Current step  : 1180
Per MPI rank memory allocation (min/avg/max) = 5.465 | 6.344 | 6.728 Mbytes
Step PotEng KinEng TotEng v_fx v_fy v_fz 
    1180   -1152449.2            0   -1152449.2   0.07696785  -0.01407272 0.0017924797 
    1374   -1152449.2            0   -1152449.2 1.3766416e-05 -2.932174e-06 3.6110043e-07 
Loop time of 4.30057 on 52 procs for 194 steps with 288751 atoms

99.9% CPU use with 52 MPI tasks x 1 OpenMP threads

Minimization stats:
  Stopping criterion = energy tolerance
  Energy initial, next-to-last, final = 
     -1152449.19698644  -1152449.19965029  -1152449.19965029
  Force two-norm initial, final = 0.21058764 0.00013678698
  Force max component initial, final = 0.081137419 3.7564586e-05
  Final line search alpha, max atom move = 1.0000000 3.7564586e-05
  Iterations, force evaluations = 194 388

MPI task timing breakdown:
Section |  min time  |  avg time  |  max time  |%varavg| %total
---------------------------------------------------------------
Pair    | 1.0882     | 3.0936     | 4.0422     |  48.6 | 71.93
Neigh   | 0          | 0          | 0          |   0.0 |  0.00
Comm    | 0.066341   | 0.69547    | 2.1758     |  74.6 | 16.17
Output  | 0          | 0          | 0          |   0.0 |  0.00
Modify  | 5.9996e-05 | 0.0064933  | 0.01374    |   3.7 |  0.15
Other   |            | 0.505      |            |       | 11.74

Nlocal:        5552.90 ave        7888 max           0 min
Histogram: 4 2 2 0 2 6 4 1 12 19
Nghost:        6213.90 ave        8774 max         412 min
Histogram: 4 0 4 0 8 0 4 5 7 20
Neighs:       158429.0 ave      229769 max           0 min
Histogram: 4 2 2 0 5 3 4 4 11 17

Total # of neighbors = 8238332
Ave neighs/atom = 28.530921
Neighbor list builds = 0
Dangerous builds = 0
The dot product: 2.14505061870937e-07
Setting atom values ...
  1 settings made for x
  1 settings made for y
  1 settings made for z
Setting up cg style minimization ...
  Unit style    : metal
  Current step  : 1374
Per MPI rank memory allocation (min/avg/max) = 5.465 | 6.344 | 6.728 Mbytes
Step PotEng KinEng TotEng v_fx v_fy v_fz 
    1374   -1152449.2            0   -1152449.2  0.038552104 -0.0038355391 -0.0040073721 
    1560   -1152449.2            0   -1152449.2 4.1613137e-06 -5.1598641e-06 -1.4381736e-07 
Loop time of 4.12213 on 52 procs for 186 steps with 288751 atoms

99.9% CPU use with 52 MPI tasks x 1 OpenMP threads

Minimization stats:
  Stopping criterion = energy tolerance
  Energy initial, next-to-last, final = 
     -1152449.19781507  -1152449.20028009  -1152449.20028009
  Force two-norm initial, final = 0.19500917 0.00020483752
  Force max component initial, final = 0.085988734 4.8641960e-05
  Final line search alpha, max atom move = 1.0000000 4.8641960e-05
  Iterations, force evaluations = 186 372

MPI task timing breakdown:
Section |  min time  |  avg time  |  max time  |%varavg| %total
---------------------------------------------------------------
Pair    | 1.0436     | 2.9569     | 3.8811     |  47.6 | 71.73
Neigh   | 0          | 0          | 0          |   0.0 |  0.00
Comm    | 0.055158   | 0.66628    | 2.0895     |  72.5 | 16.16
Output  | 0          | 0          | 0          |   0.0 |  0.00
Modify  | 7.2177e-05 | 0.0062422  | 0.01318    |   3.6 |  0.15
Other   |            | 0.4928     |            |       | 11.95

Nlocal:        5552.90 ave        7886 max           0 min
Histogram: 4 2 2 0 2 6 4 1 12 19
Nghost:        6213.90 ave        8774 max         412 min
Histogram: 4 0 4 0 8 0 4 5 7 20
Neighs:       158429.0 ave      229705 max           0 min
Histogram: 4 2 2 0 5 3 4 4 11 17

Total # of neighbors = 8238324
Ave neighs/atom = 28.530893
Neighbor list builds = 0
Dangerous builds = 0
The dot product: 9.54082294184207e-09
Setting atom values ...
  1 settings made for x
  1 settings made for y
  1 settings made for z
Setting up cg style minimization ...
  Unit style    : metal
  Current step  : 1560
Per MPI rank memory allocation (min/avg/max) = 5.465 | 6.344 | 6.728 Mbytes
Step PotEng KinEng TotEng v_fx v_fy v_fz 
    1560   -1152449.2            0   -1152449.2  0.043429362 -6.7053645e-05 -0.0042287116 
    1966   -1152449.4            0   -1152449.4 5.9286095e-06 -2.3659707e-06 -4.8749038e-07 
Loop time of 9.0885 on 52 procs for 406 steps with 288751 atoms

99.9% CPU use with 52 MPI tasks x 1 OpenMP threads

Minimization stats:
  Stopping criterion = linesearch alpha is zero
  Energy initial, next-to-last, final = 
     -1152449.19780976  -1152449.40754733  -1152449.40754733
  Force two-norm initial, final = 0.19760622 7.8830977e-05
  Force max component initial, final = 0.086240617 1.8209228e-05
  Final line search alpha, max atom move = 0.5 9.1046139e-06
  Iterations, force evaluations = 406 815

MPI task timing breakdown:
Section |  min time  |  avg time  |  max time  |%varavg| %total
---------------------------------------------------------------
Pair    | 2.3692     | 6.5102     | 8.4799     |  69.5 | 71.63
Neigh   | 0.00018661 | 0.052568   | 0.076919   |   9.7 |  0.58
Comm    | 0.12919    | 1.4628     | 4.5878     | 108.0 | 16.10
Output  | 0          | 0          | 0          |   0.0 |  0.00
Modify  | 0.0001461  | 0.013656   | 0.028773   |   5.4 |  0.15
Other   |            | 1.049      |            |       | 11.54

Nlocal:        5552.90 ave        7892 max           0 min
Histogram: 4 2 2 0 2 6 4 1 12 19
Nghost:        6214.12 ave        8773 max         412 min
Histogram: 4 0 4 0 8 0 4 5 7 20
Neighs:       158426.0 ave      229614 max           0 min
Histogram: 4 2 2 0 5 3 4 4 11 17

Total # of neighbors = 8238171
Ave neighs/atom = 28.530364
Neighbor list builds = 9
Dangerous builds = 0
The dot product: 4.53053137959005e-07
Setting atom values ...
  1 settings made for x
  1 settings made for y
  1 settings made for z
Setting up cg style minimization ...
  Unit style    : metal
  Current step  : 1966
Per MPI rank memory allocation (min/avg/max) = 5.465 | 6.344 | 6.728 Mbytes
Step PotEng KinEng TotEng v_fx v_fy v_fz 
    1966   -1152449.4            0   -1152449.4  -0.18308903 -9.0133426e-05   0.10499778 
    2000   -1152449.4            0   -1152449.4 -0.0019983672 0.00017732763 0.0011408926 
    2166   -1152449.4            0   -1152449.4 3.6329635e-05 -1.627367e-06 -2.0786964e-05 
Loop time of 4.4256 on 52 procs for 200 steps with 288751 atoms

99.9% CPU use with 52 MPI tasks x 1 OpenMP threads

Minimization stats:
  Stopping criterion = energy tolerance
  Energy initial, next-to-last, final = 
     -1152449.41508994   -1152449.4228487   -1152449.4228487
  Force two-norm initial, final = 0.28696994 0.00025521348
  Force max component initial, final = 0.18308903 3.6329635e-05
  Final line search alpha, max atom move = 1.0000000 3.6329635e-05
  Iterations, force evaluations = 200 400

MPI task timing breakdown:
Section |  min time  |  avg time  |  max time  |%varavg| %total
---------------------------------------------------------------
Pair    | 1.1235     | 3.1862     | 4.1677     |  49.5 | 72.00
Neigh   | 0          | 0          | 0          |   0.0 |  0.00
Comm    | 0.059861   | 0.71241    | 2.2429     |  75.5 | 16.10
Output  | 0.00050648 | 0.00051153 | 0.00067067 |   0.0 |  0.01
Modify  | 7.4938e-05 | 0.0066949  | 0.014082   |   3.8 |  0.15
Other   |            | 0.5197     |            |       | 11.74

Nlocal:        5552.90 ave        7890 max           0 min
Histogram: 4 2 2 0 2 6 4 2 11 19
Nghost:        6214.02 ave        8773 max         412 min
Histogram: 4 0 4 0 8 0 4 5 7 20
Neighs:       158427.0 ave      229528 max           0 min
Histogram: 4 2 2 0 5 3 4 4 10 18

Total # of neighbors = 8238194
Ave neighs/atom = 28.530443
Neighbor list builds = 0
Dangerous builds = 0
The dot product: -2.24476790307799e-06
Setting atom values ...
  1 settings made for x
  1 settings made for y
  1 settings made for z
Setting up cg style minimization ...
  Unit style    : metal
  Current step  : 2166
Per MPI rank memory allocation (min/avg/max) = 5.465 | 6.344 | 6.728 Mbytes
Step PotEng KinEng TotEng v_fx v_fy v_fz 
    2166   -1152449.4            0   -1152449.4   0.12888437 -0.004019541 -0.034616338 
    2351   -1152449.4            0   -1152449.4 4.1502635e-05 4.338056e-07 -1.1167211e-05 
Loop time of 4.1159 on 52 procs for 185 steps with 288751 atoms

99.9% CPU use with 52 MPI tasks x 1 OpenMP threads

Minimization stats:
  Stopping criterion = energy tolerance
  Energy initial, next-to-last, final = 
     -1152449.42786627  -1152449.43144102  -1152449.43144102
  Force two-norm initial, final = 0.24240738 0.00017877363
  Force max component initial, final = 0.12888437 4.1502635e-05
  Final line search alpha, max atom move = 1.0000000 4.1502635e-05
  Iterations, force evaluations = 185 370

MPI task timing breakdown:
Section |  min time  |  avg time  |  max time  |%varavg| %total
---------------------------------------------------------------
Pair    | 1.0581     | 2.9561     | 3.8844     |  47.5 | 71.82
Neigh   | 0          | 0          | 0          |   0.0 |  0.00
Comm    | 0.055974   | 0.66876    | 2.1017     |  72.5 | 16.25
Output  | 0          | 0          | 0          |   0.0 |  0.00
Modify  | 6.3192e-05 | 0.0062634  | 0.013172   |   3.6 |  0.15
Other   |            | 0.4848     |            |       | 11.78

Nlocal:        5552.90 ave        7890 max           0 min
Histogram: 4 2 2 0 2 6 4 2 11 19
Nghost:        6214.10 ave        8773 max         412 min
Histogram: 4 0 4 0 8 0 4 5 7 20
Neighs:       158427.0 ave      229541 max           0 min
Histogram: 4 2 2 0 5 3 4 4 10 18

Total # of neighbors = 8238200
Ave neighs/atom = 28.530464
Neighbor list builds = 0
Dangerous builds = 0
The dot product: 1.18299871111285e-06
Setting atom values ...
  1 settings made for x
  1 settings made for y
  1 settings made for z
Setting up cg style minimization ...
  Unit style    : metal
  Current step  : 2351
Per MPI rank memory allocation (min/avg/max) = 5.465 | 6.344 | 6.728 Mbytes
Step PotEng KinEng TotEng v_fx v_fy v_fz 
    2351   -1152449.4            0   -1152449.4 -0.010417394 -0.010557252 0.0044121285 
    2518   -1152449.4            0   -1152449.4 7.1075607e-06 -9.2969019e-07 -2.8300279e-06 
Loop time of 3.70091 on 52 procs for 167 steps with 288751 atoms

99.9% CPU use with 52 MPI tasks x 1 OpenMP threads

Minimization stats:
  Stopping criterion = linesearch alpha is zero
  Energy initial, next-to-last, final = 
     -1152449.43477567  -1152449.43683941  -1152449.43683941
  Force two-norm initial, final = 0.19957376 8.6452679e-05
  Force max component initial, final = 0.10333178 8.2518320e-06
  Final line search alpha, max atom move = 0.5 4.1259160e-06
  Iterations, force evaluations = 167 335

MPI task timing breakdown:
Section |  min time  |  avg time  |  max time  |%varavg| %total
---------------------------------------------------------------
Pair    | 0.9386     | 2.6686     | 3.4904     |  45.3 | 72.11
Neigh   | 0          | 0          | 0          |   0.0 |  0.00
Comm    | 0.049657   | 0.59651    | 1.8826     |  69.3 | 16.12
Output  | 0          | 0          | 0          |   0.0 |  0.00
Modify  | 6.2406e-05 | 0.0056169  | 0.011797   |   3.4 |  0.15
Other   |            | 0.4302     |            |       | 11.62

Nlocal:        5552.90 ave        7890 max           0 min
Histogram: 4 2 2 0 2 6 4 2 11 19
Nghost:        6214.13 ave        8773 max         412 min
Histogram: 4 0 4 0 8 0 4 5 7 20
Neighs:       158427.0 ave      229551 max           0 min
Histogram: 4 2 2 0 5 3 4 4 10 18

Total # of neighbors = 8238198
Ave neighs/atom = 28.530457
Neighbor list builds = 0
Dangerous builds = 0
The dot product: -5.78109550003922e-08
Setting atom values ...
  1 settings made for x
  1 settings made for y
  1 settings made for z
Setting up cg style minimization ...
  Unit style    : metal
  Current step  : 2518
Per MPI rank memory allocation (min/avg/max) = 5.465 | 6.344 | 6.728 Mbytes
Step PotEng KinEng TotEng v_fx v_fy v_fz 
    2518   -1152449.4            0   -1152449.4  0.034111097 -0.00024046023 -0.012461684 
    2688   -1152449.4            0   -1152449.4 -2.5891084e-05 -2.9331473e-06 9.495489e-06 
Loop time of 3.76408 on 52 procs for 170 steps with 288751 atoms

99.9% CPU use with 52 MPI tasks x 1 OpenMP threads

Minimization stats:
  Stopping criterion = energy tolerance
  Energy initial, next-to-last, final = 
     -1152449.43825432  -1152449.44021328  -1152449.44021328
  Force two-norm initial, final = 0.20316647 0.00017963951
  Force max component initial, final = 0.10132691 3.6977863e-05
  Final line search alpha, max atom move = 1.0000000 3.6977863e-05
  Iterations, force evaluations = 170 340

MPI task timing breakdown:
Section |  min time  |  avg time  |  max time  |%varavg| %total
---------------------------------------------------------------
Pair    | 0.98064    | 2.7139     | 3.548      |  45.3 | 72.10
Neigh   | 0          | 0          | 0          |   0.0 |  0.00
Comm    | 0.051441   | 0.60977    | 1.9163     |  69.8 | 16.20
Output  | 0          | 0          | 0          |   0.0 |  0.00
Modify  | 4.9528e-05 | 0.005783   | 0.012123   |   3.5 |  0.15
Other   |            | 0.4347     |            |       | 11.55

Nlocal:        5552.90 ave        7890 max           0 min
Histogram: 4 2 2 0 2 6 4 2 11 19
Nghost:        6214.08 ave        8773 max         412 min
Histogram: 4 0 4 0 8 0 4 5 7 20
Neighs:       158427.0 ave      229555 max           0 min
Histogram: 4 2 2 0 5 3 4 4 10 18

Total # of neighbors = 8238196
Ave neighs/atom = 28.530450
Neighbor list builds = 0
Dangerous builds = 0
The dot product: -7.52786872859645e-08
Setting atom values ...
  1 settings made for x
  1 settings made for y
  1 settings made for z
Setting up cg style minimization ...
  Unit style    : metal
  Current step  : 2688
Per MPI rank memory allocation (min/avg/max) = 5.465 | 6.344 | 6.728 Mbytes
Step PotEng KinEng TotEng v_fx v_fy v_fz 
    2688   -1152449.4            0   -1152449.4  0.029818224 0.00069721492 -0.011241548 
    2832   -1152449.4            0   -1152449.4 8.4327533e-05 5.3122893e-06 -3.1834406e-05 
Loop time of 3.18345 on 52 procs for 144 steps with 288751 atoms

99.9% CPU use with 52 MPI tasks x 1 OpenMP threads

Minimization stats:
  Stopping criterion = energy tolerance
  Energy initial, next-to-last, final = 
     -1152449.43966459  -1152449.44161823  -1152449.44161823
  Force two-norm initial, final = 0.20226235 0.00028709375
  Force max component initial, final = 0.099730776 8.4327533e-05
  Final line search alpha, max atom move = 1.0000000 8.4327533e-05
  Iterations, force evaluations = 144 288

MPI task timing breakdown:
Section |  min time  |  avg time  |  max time  |%varavg| %total
---------------------------------------------------------------
Pair    | 0.80809    | 2.2936     | 3.0019     |  42.0 | 72.05
Neigh   | 0          | 0          | 0          |   0.0 |  0.00
Comm    | 0.043132   | 0.51381    | 1.615      |  64.1 | 16.14
Output  | 0          | 0          | 0          |   0.0 |  0.00
Modify  | 4.6206e-05 | 0.0048698  | 0.01014    |   3.2 |  0.15
Other   |            | 0.3712     |            |       | 11.66

Nlocal:        5552.90 ave        7890 max           0 min
Histogram: 4 2 2 0 2 6 4 2 11 19
Nghost:        6214.04 ave        8773 max         412 min
Histogram: 4 0 4 0 8 0 4 5 7 20
Neighs:       158427.0 ave      229570 max           0 min
Histogram: 4 2 2 0 5 3 4 4 10 18

Total # of neighbors = 8238199
Ave neighs/atom = 28.530461
Neighbor list builds = 0
Dangerous builds = 0
The dot product: 1.25436061968843e-07
Setting atom values ...
  1 settings made for x
  1 settings made for y
  1 settings made for z
Setting up cg style minimization ...
  Unit style    : metal
  Current step  : 2832
Per MPI rank memory allocation (min/avg/max) = 5.465 | 6.344 | 6.728 Mbytes
Step PotEng KinEng TotEng v_fx v_fy v_fz 
    2832   -1152449.4            0   -1152449.4  0.033491131 0.0019415089 -0.012823336 
    3000   -1152449.4            0   -1152449.4 5.8885951e-06 5.7020778e-07 -2.2577128e-06 
    3022   -1152449.4            0   -1152449.4 -9.8124558e-06 6.362566e-07 3.7410408e-06 
Loop time of 4.20478 on 52 procs for 190 steps with 288751 atoms

99.9% CPU use with 52 MPI tasks x 1 OpenMP threads

Minimization stats:
  Stopping criterion = linesearch alpha is zero
  Energy initial, next-to-last, final = 
     -1152449.43904649  -1152449.44101174  -1152449.44101174
  Force two-norm initial, final = 0.20294632 9.9030337e-05
  Force max component initial, final = 0.097878039 1.6993211e-05
  Final line search alpha, max atom move = 0.5 8.4966057e-06
  Iterations, force evaluations = 190 381

MPI task timing breakdown:
Section |  min time  |  avg time  |  max time  |%varavg| %total
---------------------------------------------------------------
Pair    | 1.0694     | 3.0359     | 3.9683     |  48.3 | 72.20
Neigh   | 0          | 0          | 0          |   0.0 |  0.00
Comm    | 0.056529   | 0.678      | 2.1324     |  74.1 | 16.12
Output  | 0.00035443 | 0.00035898 | 0.00051667 |   0.0 |  0.01
Modify  | 7.7609e-05 | 0.0063735  | 0.013427   |   3.7 |  0.15
Other   |            | 0.4841     |            |       | 11.51

Nlocal:        5552.90 ave        7890 max           0 min
Histogram: 4 2 2 0 2 6 4 2 11 19
Nghost:        6214.00 ave        8773 max         412 min
Histogram: 4 0 4 0 8 0 4 5 7 20
Neighs:       158427.0 ave      229575 max           0 min
Histogram: 4 2 2 0 5 3 4 4 10 18

Total # of neighbors = 8238198
Ave neighs/atom = 28.530457
Neighbor list builds = 0
Dangerous builds = 0
The dot product: -2.20664466255669e-08
Setting atom values ...
  1 settings made for x
  1 settings made for y
  1 settings made for z
Setting up cg style minimization ...
  Unit style    : metal
  Current step  : 3022
Per MPI rank memory allocation (min/avg/max) = 5.465 | 6.344 | 6.728 Mbytes
Step PotEng KinEng TotEng v_fx v_fy v_fz 
    3022   -1152449.4            0   -1152449.4  0.035182515 0.00043268084   -0.0137235 
    3186   -1152449.4            0   -1152449.4 -3.3144572e-05 -6.8381797e-07 1.2932456e-05 
Loop time of 3.67107 on 52 procs for 164 steps with 288751 atoms

99.9% CPU use with 52 MPI tasks x 1 OpenMP threads

Minimization stats:
  Stopping criterion = linesearch alpha is zero
  Energy initial, next-to-last, final = 
     -1152449.43642949  -1152449.43838843  -1152449.43838843
  Force two-norm initial, final = 0.20298254 0.00020759744
  Force max component initial, final = 0.096115277 5.0293623e-05
  Final line search alpha, max atom move = 0.25 1.2573406e-05
  Iterations, force evaluations = 164 331

MPI task timing breakdown:
Section |  min time  |  avg time  |  max time  |%varavg| %total
---------------------------------------------------------------
Pair    | 0.92728    | 2.6349     | 3.4562     |  45.0 | 71.78
Neigh   | 0          | 0          | 0          |   0.0 |  0.00
Comm    | 0.051314   | 0.59274    | 1.8627     |  68.3 | 16.15
Output  | 0          | 0          | 0          |   0.0 |  0.00
Modify  | 5.5876e-05 | 0.0055501  | 0.011679   |   3.4 |  0.15
Other   |            | 0.4379     |            |       | 11.93

Nlocal:        5552.90 ave        7889 max           0 min
Histogram: 4 2 2 0 2 6 4 1 12 19
Nghost:        6214.02 ave        8773 max         412 min
Histogram: 4 0 4 0 8 0 4 5 7 20
Neighs:       158427.0 ave      229553 max           0 min
Histogram: 4 2 2 0 5 3 4 4 11 17

Total # of neighbors = 8238200
Ave neighs/atom = 28.530464
Neighbor list builds = 0
Dangerous builds = 0
The dot product: -9.43398281160945e-08
Setting atom values ...
  1 settings made for x
  1 settings made for y
  1 settings made for z
Setting up cg style minimization ...
  Unit style    : metal
  Current step  : 3186
Per MPI rank memory allocation (min/avg/max) = 5.465 | 6.344 | 6.728 Mbytes
Step PotEng KinEng TotEng v_fx v_fy v_fz 
    3186   -1152449.4            0   -1152449.4  0.035495787 -0.0005322674 -0.014159963 
    3400   -1152449.4            0   -1152449.4 -5.1494471e-06 2.4747831e-09 2.0552266e-06 
Loop time of 4.74947 on 52 procs for 214 steps with 288751 atoms

99.9% CPU use with 52 MPI tasks x 1 OpenMP threads

Minimization stats:
  Stopping criterion = linesearch alpha is zero
  Energy initial, next-to-last, final = 
     -1152449.43180429  -1152449.43375312  -1152449.43375312
  Force two-norm initial, final = 0.20263023 3.5732827e-05
  Force max component initial, final = 0.098552697 7.3174349e-06
  Final line search alpha, max atom move = 0.5 3.6587175e-06
  Iterations, force evaluations = 214 429

MPI task timing breakdown:
Section |  min time  |  avg time  |  max time  |%varavg| %total
---------------------------------------------------------------
Pair    | 1.2024     | 3.4165     | 4.4651     |  51.3 | 71.93
Neigh   | 0          | 0          | 0          |   0.0 |  0.00
Comm    | 0.06437    | 0.76371    | 2.3914     |  78.5 | 16.08
Output  | 0          | 0          | 0          |   0.0 |  0.00
Modify  | 8.6687e-05 | 0.0072042  | 0.015077   |   3.9 |  0.15
Other   |            | 0.5621     |            |       | 11.83

Nlocal:        5552.90 ave        7889 max           0 min
Histogram: 4 2 2 0 2 6 4 1 12 19
Nghost:        6214.02 ave        8773 max         412 min
Histogram: 4 0 4 0 8 0 4 5 7 20
Neighs:       158427.0 ave      229536 max           0 min
Histogram: 4 2 2 0 5 3 4 4 11 17

Total # of neighbors = 8238198
Ave neighs/atom = 28.530457
Neighbor list builds = 0
Dangerous builds = 0
The dot product: -1.53371276434511e-08
Setting atom values ...
  1 settings made for x
  1 settings made for y
  1 settings made for z
Setting up cg style minimization ...
  Unit style    : metal
  Current step  : 3400
Per MPI rank memory allocation (min/avg/max) = 5.465 | 6.344 | 6.728 Mbytes
Step PotEng KinEng TotEng v_fx v_fy v_fz 
    3400   -1152449.4            0   -1152449.4  0.035393113 -0.0016995419 -0.014427409 
    3616   -1152449.4            0   -1152449.4 2.2016284e-06 1.3086468e-07 -9.0049343e-07 
Loop time of 4.78004 on 52 procs for 216 steps with 288751 atoms

99.9% CPU use with 52 MPI tasks x 1 OpenMP threads

Minimization stats:
  Stopping criterion = energy tolerance
  Energy initial, next-to-last, final = 
     -1152449.42516904  -1152449.42710796  -1152449.42710796
  Force two-norm initial, final = 0.20218003 2.9234396e-05
  Force max component initial, final = 0.10094289 4.3237406e-06
  Final line search alpha, max atom move = 1.0000000 4.3237406e-06
  Iterations, force evaluations = 216 432

MPI task timing breakdown:
Section |  min time  |  avg time  |  max time  |%varavg| %total
---------------------------------------------------------------
Pair    | 1.2102     | 3.4294     | 4.5048     |  51.4 | 71.74
Neigh   | 0          | 0          | 0          |   0.0 |  0.00
Comm    | 0.063456   | 0.77255    | 2.4241     |  78.2 | 16.16
Output  | 0          | 0          | 0          |   0.0 |  0.00
Modify  | 6.3355e-05 | 0.0072502  | 0.015224   |   3.9 |  0.15
Other   |            | 0.5709     |            |       | 11.94

Nlocal:        5552.90 ave        7889 max           0 min
Histogram: 4 2 2 0 2 6 4 1 12 19
Nghost:        6214.06 ave        8773 max         412 min
Histogram: 4 0 4 0 8 0 4 5 7 20
Neighs:       158427.0 ave      229520 max           0 min
Histogram: 4 2 2 0 5 3 4 4 11 17

Total # of neighbors = 8238201
Ave neighs/atom = 28.530467
Neighbor list builds = 0
Dangerous builds = 0
The dot product: 6.72999804874717e-09
Setting atom values ...
  1 settings made for x
  1 settings made for y
  1 settings made for z
Setting up cg style minimization ...
  Unit style    : metal
  Current step  : 3616
Per MPI rank memory allocation (min/avg/max) = 5.465 | 6.344 | 6.728 Mbytes
Step PotEng KinEng TotEng v_fx v_fy v_fz 
    3616   -1152449.4            0   -1152449.4  0.035005021 -0.0032340911 -0.014564489 
    3800   -1152449.4            0   -1152449.4 8.9294245e-06 -5.1634664e-07 -3.7189857e-06 
Loop time of 4.09291 on 52 procs for 184 steps with 288751 atoms

99.9% CPU use with 52 MPI tasks x 1 OpenMP threads

Minimization stats:
  Stopping criterion = energy tolerance
  Energy initial, next-to-last, final = 
      -1152449.4165326  -1152449.41846062  -1152449.41846062
  Force two-norm initial, final = 0.2016728 0.00013555468
  Force max component initial, final = 0.1033334 1.5921351e-05
  Final line search alpha, max atom move = 1.0000000 1.5921351e-05
  Iterations, force evaluations = 184 368

MPI task timing breakdown:
Section |  min time  |  avg time  |  max time  |%varavg| %total
---------------------------------------------------------------
Pair    | 1.0605     | 2.9463     | 3.8397     |  47.1 | 71.99
Neigh   | 0          | 0          | 0          |   0.0 |  0.00
Comm    | 0.057246   | 0.66145    | 2.0825     |  72.5 | 16.16
Output  | 0          | 0          | 0          |   0.0 |  0.00
Modify  | 6.0379e-05 | 0.0062502  | 0.013128   |   3.6 |  0.15
Other   |            | 0.4789     |            |       | 11.70

Nlocal:        5552.90 ave        7889 max           0 min
Histogram: 4 2 2 0 2 6 4 1 12 19
Nghost:        6214.02 ave        8772 max         412 min
Histogram: 4 0 4 0 8 0 4 5 7 20
Neighs:       158427.0 ave      229506 max           0 min
Histogram: 4 2 2 0 5 3 4 4 11 17

Total # of neighbors = 8238209
Ave neighs/atom = 28.530495
Neighbor list builds = 0
Dangerous builds = 0
The dot product: 2.80394633842577e-08
Setting atom values ...
  1 settings made for x
  1 settings made for y
  1 settings made for z
Setting up cg style minimization ...
  Unit style    : metal
  Current step  : 3800
Per MPI rank memory allocation (min/avg/max) = 5.465 | 6.344 | 6.728 Mbytes
Step PotEng KinEng TotEng v_fx v_fy v_fz 
    3800   -1152449.4            0   -1152449.4  0.034330537 -0.0051548663 -0.014561015 
    3993   -1152449.4            0   -1152449.4 -4.0637851e-06 5.4232389e-07 1.7243859e-06 
Loop time of 4.26751 on 52 procs for 193 steps with 288751 atoms

99.9% CPU use with 52 MPI tasks x 1 OpenMP threads

Minimization stats:
  Stopping criterion = energy tolerance
  Energy initial, next-to-last, final = 
      -1152449.4059076   -1152449.4078236   -1152449.4078236
  Force two-norm initial, final = 0.20115069 0.00010057875
  Force max component initial, final = 0.10569645 6.4660196e-06
  Final line search alpha, max atom move = 1.0000000 6.4660196e-06
  Iterations, force evaluations = 193 386

MPI task timing breakdown:
Section |  min time  |  avg time  |  max time  |%varavg| %total
---------------------------------------------------------------
Pair    | 1.0797     | 3.0727     | 4.0205     |  48.6 | 72.00
Neigh   | 0          | 0          | 0          |   0.0 |  0.00
Comm    | 0.057682   | 0.68848    | 2.1614     |  74.3 | 16.13
Output  | 0          | 0          | 0          |   0.0 |  0.00
Modify  | 5.7764e-05 | 0.006454   | 0.013545   |   3.7 |  0.15
Other   |            | 0.4999     |            |       | 11.71

Nlocal:        5552.90 ave        7889 max           0 min
Histogram: 4 2 2 0 2 6 4 1 12 19
Nghost:        6214.00 ave        8772 max         412 min
Histogram: 4 0 4 0 8 0 4 5 7 20
Neighs:       158427.0 ave      229514 max           0 min
Histogram: 4 2 2 0 5 3 4 4 11 17

Total # of neighbors = 8238211
Ave neighs/atom = 28.530502
Neighbor list builds = 0
Dangerous builds = 0
The dot product: -1.29001454519298e-08
Setting atom values ...
  1 settings made for x
  1 settings made for y
  1 settings made for z
Setting up cg style minimization ...
  Unit style    : metal
  Current step  : 3993
Per MPI rank memory allocation (min/avg/max) = 5.465 | 6.344 | 6.728 Mbytes
Step PotEng KinEng TotEng v_fx v_fy v_fz 
    3993   -1152449.4            0   -1152449.4  0.033332846 -0.0074927577 -0.014392527 
    4000   -1152449.4            0   -1152449.4 2.8019863e-05 0.00078757786 -2.024501e-05 
    4171   -1152449.4            0   -1152449.4  1.30508e-05 -8.6690239e-07 -5.6563107e-06 
Loop time of 3.96993 on 52 procs for 178 steps with 288751 atoms

99.9% CPU use with 52 MPI tasks x 1 OpenMP threads

Minimization stats:
  Stopping criterion = energy tolerance
  Energy initial, next-to-last, final = 
      -1152449.3933107  -1152449.39521406  -1152449.39521406
  Force two-norm initial, final = 0.20064109 0.00015944182
  Force max component initial, final = 0.10804021 3.7531882e-05
  Final line search alpha, max atom move = 1.0000000 3.7531882e-05
  Iterations, force evaluations = 178 356

MPI task timing breakdown:
Section |  min time  |  avg time  |  max time  |%varavg| %total
---------------------------------------------------------------
Pair    | 1.0185     | 2.8446     | 3.7478     |  46.6 | 71.65
Neigh   | 0          | 0          | 0          |   0.0 |  0.00
Comm    | 0.053551   | 0.645      | 2.0225     |  70.8 | 16.25
Output  | 0.00020091 | 0.0002049  | 0.0003528  |   0.0 |  0.01
Modify  | 5.4593e-05 | 0.0060183  | 0.012597   |   3.6 |  0.15
Other   |            | 0.4741     |            |       | 11.94

Nlocal:        5552.90 ave        7889 max           0 min
Histogram: 4 2 2 0 2 6 4 1 12 19
Nghost:        6213.88 ave        8771 max         412 min
Histogram: 4 0 4 0 8 0 4 5 7 20
Neighs:       158427.0 ave      229513 max           0 min
Histogram: 4 2 2 0 5 3 4 4 11 17

Total # of neighbors = 8238211
Ave neighs/atom = 28.530502
Neighbor list builds = 0
Dangerous builds = 0
The dot product: 4.09418891643249e-08
Setting atom values ...
  1 settings made for x
  1 settings made for y
  1 settings made for z
Setting up cg style minimization ...
  Unit style    : metal
  Current step  : 4171
Per MPI rank memory allocation (min/avg/max) = 5.465 | 6.344 | 6.728 Mbytes
Step PotEng KinEng TotEng v_fx v_fy v_fz 
    4171   -1152449.4            0   -1152449.4  0.032085762 -0.010293874 -0.014087798 
    4333   -1152449.4            0   -1152449.4 2.8032832e-05 1.1174784e-06 -1.239852e-05 
Loop time of 3.58349 on 52 procs for 162 steps with 288751 atoms

99.9% CPU use with 52 MPI tasks x 1 OpenMP threads

Minimization stats:
  Stopping criterion = energy tolerance
  Energy initial, next-to-last, final = 
     -1152449.37876453  -1152449.38065607  -1152449.38065607
  Force two-norm initial, final = 0.20021442 0.00022173624
  Force max component initial, final = 0.1102897 2.8032832e-05
  Final line search alpha, max atom move = 1.0000000 2.8032832e-05
  Iterations, force evaluations = 162 324

MPI task timing breakdown:
Section |  min time  |  avg time  |  max time  |%varavg| %total
---------------------------------------------------------------
Pair    | 0.90675    | 2.5833     | 3.3774     |  44.6 | 72.09
Neigh   | 0          | 0          | 0          |   0.0 |  0.00
Comm    | 0.0483     | 0.57531    | 1.8192     |  68.4 | 16.05
Output  | 0          | 0          | 0          |   0.0 |  0.00
Modify  | 5.9906e-05 | 0.005449   | 0.011403   |   3.4 |  0.15
Other   |            | 0.4195     |            |       | 11.71

Nlocal:        5552.90 ave        7889 max           0 min
Histogram: 4 2 2 0 2 6 4 1 12 19
Nghost:        6213.81 ave        8771 max         412 min
Histogram: 4 0 4 0 8 0 4 5 7 20
Neighs:       158427.0 ave      229519 max           0 min
Histogram: 4 2 2 0 5 3 4 4 11 17

Total # of neighbors = 8238211
Ave neighs/atom = 28.530502
Neighbor list builds = 0
Dangerous builds = 0
The dot product: 8.38536745264348e-08
Setting atom values ...
  1 settings made for x
  1 settings made for y
  1 settings made for z
Setting up cg style minimization ...
  Unit style    : metal
  Current step  : 4333
Per MPI rank memory allocation (min/avg/max) = 5.465 | 6.344 | 6.728 Mbytes
Step PotEng KinEng TotEng v_fx v_fy v_fz 
    4333   -1152449.4            0   -1152449.4  0.030645129 -0.013419644 -0.013672919 
    4518   -1152449.4            0   -1152449.4 1.5310848e-05 -1.2220952e-07 -6.8775639e-06 
Loop time of 4.09543 on 52 procs for 185 steps with 288751 atoms

99.9% CPU use with 52 MPI tasks x 1 OpenMP threads

Minimization stats:
  Stopping criterion = linesearch alpha is zero
  Energy initial, next-to-last, final = 
     -1152449.36229908   -1152449.3641766   -1152449.3641766
  Force two-norm initial, final = 0.19990812 0.00012545734
  Force max component initial, final = 0.11252682 1.9308134e-05
  Final line search alpha, max atom move = 0.5 9.6540670e-06
  Iterations, force evaluations = 185 371

MPI task timing breakdown:
Section |  min time  |  avg time  |  max time  |%varavg| %total
---------------------------------------------------------------
Pair    | 1.0382     | 2.9573     | 3.8659     |  47.7 | 72.21
Neigh   | 0          | 0          | 0          |   0.0 |  0.00
Comm    | 0.055632   | 0.66373    | 2.0856     |  73.1 | 16.21
Output  | 0          | 0          | 0          |   0.0 |  0.00
Modify  | 6.5952e-05 | 0.0062085  | 0.01304    |   3.6 |  0.15
Other   |            | 0.4682     |            |       | 11.43

Nlocal:        5552.90 ave        7889 max           0 min
Histogram: 4 2 2 0 2 6 4 1 12 19
Nghost:        6213.85 ave        8771 max         412 min
Histogram: 4 0 4 0 8 0 4 5 7 20
Neighs:       158427.0 ave      229508 max           0 min
Histogram: 4 2 2 0 5 3 4 4 11 17

Total # of neighbors = 8238210
Ave neighs/atom = 28.530499
Neighbor list builds = 0
Dangerous builds = 0
The dot product: 4.38296329756573e-08
Setting atom values ...
  1 settings made for x
  1 settings made for y
  1 settings made for z
Setting up cg style minimization ...
  Unit style    : metal
  Current step  : 4518
Per MPI rank memory allocation (min/avg/max) = 5.465 | 6.344 | 6.728 Mbytes
Step PotEng KinEng TotEng v_fx v_fy v_fz 
    4518   -1152449.3            0   -1152449.3   0.02991823 -0.016188767 -0.013568929 
    4671   -1152449.3            0   -1152449.3 -2.1165761e-05 -2.0064162e-06 9.6579473e-06 
Loop time of 3.3776 on 52 procs for 153 steps with 288751 atoms

99.9% CPU use with 52 MPI tasks x 1 OpenMP threads

Minimization stats:
  Stopping criterion = energy tolerance
  Energy initial, next-to-last, final = 
     -1152449.34395573  -1152449.34581073  -1152449.34581073
  Force two-norm initial, final = 0.1997751 0.00025517669
  Force max component initial, final = 0.1146808 3.9557607e-05
  Final line search alpha, max atom move = 1.0000000 3.9557607e-05
  Iterations, force evaluations = 153 306

MPI task timing breakdown:
Section |  min time  |  avg time  |  max time  |%varavg| %total
---------------------------------------------------------------
Pair    | 0.85876    | 2.4353     | 3.1901     |  43.3 | 72.10
Neigh   | 0          | 0          | 0          |   0.0 |  0.00
Comm    | 0.045808   | 0.5451     | 1.7165     |  65.9 | 16.14
Output  | 0          | 0          | 0          |   0.0 |  0.00
Modify  | 4.8121e-05 | 0.0051452  | 0.010765   |   3.3 |  0.15
Other   |            | 0.392      |            |       | 11.61

Nlocal:        5552.90 ave        7889 max           0 min
Histogram: 4 2 2 0 2 6 4 1 12 19
Nghost:        6213.98 ave        8772 max         412 min
Histogram: 4 0 4 0 8 0 4 5 7 20
Neighs:       158427.0 ave      229509 max           0 min
Histogram: 4 2 2 0 5 3 4 4 11 17

Total # of neighbors = 8238214
Ave neighs/atom = 28.530512
Neighbor list builds = 0
Dangerous builds = 0
The dot product: -6.04039522785089e-08
Setting atom values ...
  1 settings made for x
  1 settings made for y
  1 settings made for z
Setting up cg style minimization ...
  Unit style    : metal
  Current step  : 4671
Per MPI rank memory allocation (min/avg/max) = 5.465 | 6.344 | 6.728 Mbytes
Step PotEng KinEng TotEng v_fx v_fy v_fz 
    4671   -1152449.3            0   -1152449.3  0.029169293 -0.020383809 -0.013470706 
    4849   -1152449.3            0   -1152449.3 -1.0807256e-05 1.5771798e-07 4.9990479e-06 
Loop time of 3.95476 on 52 procs for 178 steps with 288751 atoms

99.9% CPU use with 52 MPI tasks x 1 OpenMP threads

Minimization stats:
  Stopping criterion = linesearch alpha is zero
  Energy initial, next-to-last, final = 
     -1152449.32379673   -1152449.3256298   -1152449.3256298
  Force two-norm initial, final = 0.20006864 0.00012760273
  Force max component initial, final = 0.11691405 1.0807256e-05
  Final line search alpha, max atom move = 0.5 5.4036282e-06
  Iterations, force evaluations = 178 357

MPI task timing breakdown:
Section |  min time  |  avg time  |  max time  |%varavg| %total
---------------------------------------------------------------
Pair    | 1          | 2.8481     | 3.7229     |  46.9 | 72.02
Neigh   | 0          | 0          | 0          |   0.0 |  0.00
Comm    | 0.053741   | 0.63666    | 2.0048     |  71.9 | 16.10
Output  | 0          | 0          | 0          |   0.0 |  0.00
Modify  | 7.2846e-05 | 0.0059759  | 0.012618   |   3.6 |  0.15
Other   |            | 0.464      |            |       | 11.73

Nlocal:        5552.90 ave        7889 max           0 min
Histogram: 4 2 2 0 2 6 4 1 12 19
Nghost:        6213.98 ave        8772 max         412 min
Histogram: 4 0 4 0 8 0 4 5 7 20
Neighs:       158427.0 ave      229498 max           0 min
Histogram: 4 2 2 0 5 3 4 4 11 17

Total # of neighbors = 8238215
Ave neighs/atom = 28.530516
Neighbor list builds = 0
Dangerous builds = 0
The dot product: -3.33857664656549e-08
Setting atom values ...
  1 settings made for x
  1 settings made for y
  1 settings made for z
Setting up cg style minimization ...
  Unit style    : metal
  Current step  : 4849
Per MPI rank memory allocation (min/avg/max) = 5.465 | 6.344 | 6.728 Mbytes
Step PotEng KinEng TotEng v_fx v_fy v_fz 
    4849   -1152449.3            0   -1152449.3  0.027417109 -0.028562624 -0.013002384 
    5000   -1152449.3            0   -1152449.3 2.8847194e-05 -8.4981513e-07 -1.3537814e-05 
    5049   -1152449.3            0   -1152449.3 -1.2776448e-05 3.104289e-06 6.0092475e-06 
Loop time of 4.42137 on 52 procs for 200 steps with 288751 atoms

99.9% CPU use with 52 MPI tasks x 1 OpenMP threads

Minimization stats:
  Stopping criterion = energy tolerance
  Energy initial, next-to-last, final = 
     -1152449.30192853  -1152449.30545611  -1152449.30545611
  Force two-norm initial, final = 0.20132728 0.00014670775
  Force max component initial, final = 0.11908487 2.6505685e-05
  Final line search alpha, max atom move = 1.0000000 2.6505685e-05
  Iterations, force evaluations = 200 400

MPI task timing breakdown:
Section |  min time  |  avg time  |  max time  |%varavg| %total
---------------------------------------------------------------
Pair    | 1.1261     | 3.1746     | 4.168      |  49.3 | 71.80
Neigh   | 1.9652e-05 | 0.0058303  | 0.008568   |   3.2 |  0.13
Comm    | 0.060316   | 0.71474    | 2.2489     |  75.3 | 16.17
Output  | 0.00020999 | 0.000215   | 0.00037551 |   0.0 |  0.00
Modify  | 5.7706e-05 | 0.006707   | 0.014122   |   3.8 |  0.15
Other   |            | 0.5193     |            |       | 11.74

Nlocal:        5552.90 ave        7890 max           0 min
Histogram: 4 2 2 0 2 6 4 1 12 19
Nghost:        6214.00 ave        8772 max         412 min
Histogram: 4 0 4 0 8 0 4 5 7 20
Neighs:       158427.0 ave      229518 max           0 min
Histogram: 4 2 2 0 5 3 4 4 11 17

Total # of neighbors = 8238210
Ave neighs/atom = 28.530499
Neighbor list builds = 1
Dangerous builds = 0
The dot product: -6.67094971434622e-08
Setting atom values ...
  1 settings made for x
  1 settings made for y
  1 settings made for z
Setting up cg style minimization ...
  Unit style    : metal
  Current step  : 5049
Per MPI rank memory allocation (min/avg/max) = 5.465 | 6.344 | 6.728 Mbytes
Step PotEng KinEng TotEng v_fx v_fy v_fz 
    5049   -1152449.3            0   -1152449.3 -0.027130832  -0.20475733 -0.023516982 
    5284   -1152449.3            0   -1152449.3 4.304711e-05 -9.5160434e-06 -2.0544595e-05 
Loop time of 5.25306 on 52 procs for 235 steps with 288751 atoms

99.9% CPU use with 52 MPI tasks x 1 OpenMP threads

Minimization stats:
  Stopping criterion = energy tolerance
  Energy initial, next-to-last, final = 
     -1152449.28392678  -1152449.33947408  -1152449.33947408
  Force two-norm initial, final = 0.28318097 0.00018546595
  Force max component initial, final = 0.20475733 4.3047110e-05
  Final line search alpha, max atom move = 1.0000000 4.3047110e-05
  Iterations, force evaluations = 235 471

MPI task timing breakdown:
Section |  min time  |  avg time  |  max time  |%varavg| %total
---------------------------------------------------------------
Pair    | 1.3601     | 3.7657     | 4.9136     |  53.1 | 71.69
Neigh   | 4.0085e-05 | 0.011688   | 0.017171   |   4.6 |  0.22
Comm    | 0.083177   | 0.84793    | 2.669      |  82.1 | 16.14
Output  | 0          | 0          | 0          |   0.0 |  0.00
Modify  | 7.112e-05  | 0.0079467  | 0.016607   |   4.1 |  0.15
Other   |            | 0.6198     |            |       | 11.80

Nlocal:        5552.90 ave        7890 max           0 min
Histogram: 4 2 2 0 2 6 4 1 12 19
Nghost:        6213.98 ave        8772 max         412 min
Histogram: 4 0 4 0 8 0 4 5 7 20
Neighs:       158427.0 ave      229535 max           0 min
Histogram: 4 2 2 0 5 3 4 4 11 17

Total # of neighbors = 8238198
Ave neighs/atom = 28.530457
Neighbor list builds = 2
Dangerous builds = 0
The dot product: -1.18657428252995e-06
Setting atom values ...
  1 settings made for x
  1 settings made for y
  1 settings made for z
Setting up cg style minimization ...
  Unit style    : metal
  Current step  : 5284
Per MPI rank memory allocation (min/avg/max) = 5.465 | 6.344 | 6.728 Mbytes
Step PotEng KinEng TotEng v_fx v_fy v_fz 
    5284   -1152449.3            0   -1152449.3 -0.039391865  -0.10925878 -0.062254249 
    5454   -1152449.3            0   -1152449.3 -4.044955e-05 5.3180424e-06 1.465196e-05 
Loop time of 3.75171 on 52 procs for 170 steps with 288751 atoms

99.9% CPU use with 52 MPI tasks x 1 OpenMP threads

Minimization stats:
  Stopping criterion = energy tolerance
  Energy initial, next-to-last, final = 
     -1152449.33442529  -1152449.33644623  -1152449.33644623
  Force two-norm initial, final = 0.19570186 0.00019244332
  Force max component initial, final = 0.10925878 5.1918744e-05
  Final line search alpha, max atom move = 1.0000000 5.1918744e-05
  Iterations, force evaluations = 170 340

MPI task timing breakdown:
Section |  min time  |  avg time  |  max time  |%varavg| %total
---------------------------------------------------------------
Pair    | 0.95793    | 2.7006     | 3.5441     |  45.6 | 71.98
Neigh   | 0          | 0          | 0          |   0.0 |  0.00
Comm    | 0.05093    | 0.60682    | 1.91       |  69.7 | 16.17
Output  | 0          | 0          | 0          |   0.0 |  0.00
Modify  | 5.2419e-05 | 0.0057153  | 0.011969   |   3.5 |  0.15
Other   |            | 0.4386     |            |       | 11.69

Nlocal:        5552.90 ave        7892 max           0 min
Histogram: 4 2 2 0 2 6 4 2 11 19
Nghost:        6214.02 ave        8773 max         412 min
Histogram: 4 0 4 0 8 0 4 5 7 20
Neighs:       158427.0 ave      229613 max           0 min
Histogram: 4 2 2 0 5 3 4 4 10 18

Total # of neighbors = 8238189
Ave neighs/atom = 28.530426
Neighbor list builds = 0
Dangerous builds = 0
The dot product: 1.54699112050376e-07
Setting atom values ...
  1 settings made for x
  1 settings made for y
  1 settings made for z
Setting up cg style minimization ...
  Unit style    : metal
  Current step  : 5454
Per MPI rank memory allocation (min/avg/max) = 5.465 | 6.344 | 6.728 Mbytes
Step PotEng KinEng TotEng v_fx v_fy v_fz 
    5454   -1152449.3            0   -1152449.3 -0.0095181909 -0.054417765 -0.036074462 
    5623   -1152449.3            0   -1152449.3 -6.3989595e-06 2.9213613e-05 2.2376147e-05 
Loop time of 3.74512 on 52 procs for 169 steps with 288751 atoms

99.9% CPU use with 52 MPI tasks x 1 OpenMP threads

Minimization stats:
  Stopping criterion = energy tolerance
  Energy initial, next-to-last, final = 
     -1152449.33021486  -1152449.33138712  -1152449.33138712
  Force two-norm initial, final = 0.15579735 0.0001947905
  Force max component initial, final = 0.061809388 5.9686456e-05
  Final line search alpha, max atom move = 1.0000000 5.9686456e-05
  Iterations, force evaluations = 169 338

MPI task timing breakdown:
Section |  min time  |  avg time  |  max time  |%varavg| %total
---------------------------------------------------------------
Pair    | 0.97122    | 2.701      | 3.5303     |  45.1 | 72.12
Neigh   | 0          | 0          | 0          |   0.0 |  0.00
Comm    | 0.051153   | 0.61021    | 1.9225     |  69.3 | 16.29
Output  | 0          | 0          | 0          |   0.0 |  0.00
Modify  | 4.9007e-05 | 0.0057397  | 0.012052   |   3.5 |  0.15
Other   |            | 0.4282     |            |       | 11.43

Nlocal:        5552.90 ave        7891 max           0 min
Histogram: 4 2 2 0 2 6 4 1 12 19
Nghost:        6214.02 ave        8773 max         412 min
Histogram: 4 0 4 0 8 0 4 5 7 20
Neighs:       158427.0 ave      229568 max           0 min
Histogram: 4 2 2 0 5 3 4 4 11 17

Total # of neighbors = 8238186
Ave neighs/atom = 28.530415
Neighbor list builds = 0
Dangerous builds = 0
The dot product: -1.53291147671579e-07
Setting atom values ...
  1 settings made for x
  1 settings made for y
  1 settings made for z
Setting up cg style minimization ...
  Unit style    : metal
  Current step  : 5623
Per MPI rank memory allocation (min/avg/max) = 5.465 | 6.344 | 6.728 Mbytes
Step PotEng KinEng TotEng v_fx v_fy v_fz 
    5623   -1152449.3            0   -1152449.3 -0.0075846579 -0.049846918 -0.033877813 
    5803   -1152449.3            0   -1152449.3 -1.1215783e-05 -1.0245222e-05 -4.4561557e-06 
Loop time of 3.97685 on 52 procs for 180 steps with 288751 atoms

99.9% CPU use with 52 MPI tasks x 1 OpenMP threads

Minimization stats:
  Stopping criterion = energy tolerance
  Energy initial, next-to-last, final = 
     -1152449.32371205  -1152449.32483761  -1152449.32483761
  Force two-norm initial, final = 0.1520857 0.0001227952
  Force max component initial, final = 0.059846314 2.4472692e-05
  Final line search alpha, max atom move = 1.0000000 2.4472692e-05
  Iterations, force evaluations = 180 360

MPI task timing breakdown:
Section |  min time  |  avg time  |  max time  |%varavg| %total
---------------------------------------------------------------
Pair    | 1.0084     | 2.8724     | 3.7518     |  47.0 | 72.23
Neigh   | 0          | 0          | 0          |   0.0 |  0.00
Comm    | 0.054815   | 0.64093    | 2.0257     |  72.1 | 16.12
Output  | 0          | 0          | 0          |   0.0 |  0.00
Modify  | 5.4294e-05 | 0.0060248  | 0.012669   |   3.6 |  0.15
Other   |            | 0.4575     |            |       | 11.51

Nlocal:        5552.90 ave        7891 max           0 min
Histogram: 4 2 2 0 2 6 4 1 12 19
Nghost:        6214.02 ave        8773 max         412 min
Histogram: 4 0 4 0 8 0 4 5 7 20
Neighs:       158427.0 ave      229564 max           0 min
Histogram: 4 2 2 0 5 3 4 4 11 17

Total # of neighbors = 8238188
Ave neighs/atom = 28.530422
Neighbor list builds = 0
Dangerous builds = 0
The dot product: 5.15236595633944e-08
Setting atom values ...
  1 settings made for x
  1 settings made for y
  1 settings made for z
Setting up cg style minimization ...
  Unit style    : metal
  Current step  : 5803
Per MPI rank memory allocation (min/avg/max) = 5.465 | 6.344 | 6.728 Mbytes
Step PotEng KinEng TotEng v_fx v_fy v_fz 
    5803   -1152449.3            0   -1152449.3 -0.0073434435 -0.048602657 -0.033450704 
    5957   -1152449.3            0   -1152449.3 -1.5433907e-05 -2.106717e-05 -1.1332767e-05 
Loop time of 3.42361 on 52 procs for 154 steps with 288751 atoms

99.9% CPU use with 52 MPI tasks x 1 OpenMP threads

Minimization stats:
  Stopping criterion = energy tolerance
  Energy initial, next-to-last, final = 
     -1152449.31568589  -1152449.31678977  -1152449.31678977
  Force two-norm initial, final = 0.15042024 0.00025599936
  Force max component initial, final = 0.057914083 3.0510405e-05
  Final line search alpha, max atom move = 1.0000000 3.0510405e-05
  Iterations, force evaluations = 154 308

MPI task timing breakdown:
Section |  min time  |  avg time  |  max time  |%varavg| %total
---------------------------------------------------------------
Pair    | 0.88458    | 2.4617     | 3.2203     |  43.2 | 71.90
Neigh   | 0          | 0          | 0          |   0.0 |  0.00
Comm    | 0.046728   | 0.55243    | 1.734      |  66.4 | 16.14
Output  | 0          | 0          | 0          |   0.0 |  0.00
Modify  | 4.8437e-05 | 0.0052248  | 0.011037   |   3.3 |  0.15
Other   |            | 0.4042     |            |       | 11.81

Nlocal:        5552.90 ave        7891 max           0 min
Histogram: 4 2 2 0 2 6 4 1 12 19
Nghost:        6214.04 ave        8773 max         412 min
Histogram: 4 0 4 0 8 0 4 5 7 20
Neighs:       158427.0 ave      229562 max           0 min
Histogram: 4 2 2 0 5 3 4 4 11 17

Total # of neighbors = 8238189
Ave neighs/atom = 28.530426
Neighbor list builds = 0
Dangerous builds = 0
The dot product: 9.72405839425648e-08
Setting atom values ...
  1 settings made for x
  1 settings made for y
  1 settings made for z
Setting up cg style minimization ...
  Unit style    : metal
  Current step  : 5957
Per MPI rank memory allocation (min/avg/max) = 5.465 | 6.344 | 6.728 Mbytes
Step PotEng KinEng TotEng v_fx v_fy v_fz 
    5957   -1152449.3            0   -1152449.3 -0.0067495746 -0.047481497 -0.033161705 
    6000   -1152449.3            0   -1152449.3 -0.00056704341 3.1687377e-05 0.00016934931 
    6148   -1152449.3            0   -1152449.3 2.2090463e-06 -9.7128944e-06 -7.7082563e-06 
Loop time of 4.22508 on 52 procs for 191 steps with 288751 atoms

99.9% CPU use with 52 MPI tasks x 1 OpenMP threads

Minimization stats:
  Stopping criterion = linesearch alpha is zero
  Energy initial, next-to-last, final = 
     -1152449.30613488  -1152449.30722376  -1152449.30722376
  Force two-norm initial, final = 0.1490529 9.9963592e-05
  Force max component initial, final = 0.055962229 1.2013764e-05
  Final line search alpha, max atom move = 0.5 6.0068821e-06
  Iterations, force evaluations = 191 383

MPI task timing breakdown:
Section |  min time  |  avg time  |  max time  |%varavg| %total
---------------------------------------------------------------
Pair    | 1.0732     | 3.0484     | 3.989      |  48.4 | 72.15
Neigh   | 0          | 0          | 0          |   0.0 |  0.00
Comm    | 0.057382   | 0.68153    | 2.1482     |  73.9 | 16.13
Output  | 0.00020332 | 0.00020769 | 0.00035856 |   0.0 |  0.00
Modify  | 6.275e-05  | 0.0064102  | 0.013458   |   3.7 |  0.15
Other   |            | 0.4885     |            |       | 11.56

Nlocal:        5552.90 ave        7891 max           0 min
Histogram: 4 2 2 0 2 6 4 1 12 19
Nghost:        6214.04 ave        8773 max         412 min
Histogram: 4 0 4 0 8 0 4 5 7 20
Neighs:       158427.0 ave      229557 max           0 min
Histogram: 4 2 2 0 5 3 4 4 11 17

Total # of neighbors = 8238189
Ave neighs/atom = 28.530426
Neighbor list builds = 0
Dangerous builds = 0
The dot product: 3.8972540364662e-08
Setting atom values ...
  1 settings made for x
  1 settings made for y
  1 settings made for z
Setting up cg style minimization ...
  Unit style    : metal
  Current step  : 6148
Per MPI rank memory allocation (min/avg/max) = 5.465 | 6.344 | 6.728 Mbytes
Step PotEng KinEng TotEng v_fx v_fy v_fz 
    6148   -1152449.3            0   -1152449.3 -0.0056977047 -0.046285922 -0.032895097 
    6344   -1152449.3            0   -1152449.3 2.5767904e-05 -1.2764239e-05 -1.6093217e-05 
Loop time of 4.34214 on 52 procs for 196 steps with 288751 atoms

99.9% CPU use with 52 MPI tasks x 1 OpenMP threads

Minimization stats:
  Stopping criterion = energy tolerance
  Energy initial, next-to-last, final = 
     -1152449.29503912  -1152449.29611456  -1152449.29611456
  Force two-norm initial, final = 0.1478733 9.4349242e-05
  Force max component initial, final = 0.05400468 2.5767904e-05
  Final line search alpha, max atom move = 1.0000000 2.5767904e-05
  Iterations, force evaluations = 196 392

MPI task timing breakdown:
Section |  min time  |  avg time  |  max time  |%varavg| %total
---------------------------------------------------------------
Pair    | 1.1274     | 3.1299     | 4.0893     |  48.7 | 72.08
Neigh   | 0          | 0          | 0          |   0.0 |  0.00
Comm    | 0.059568   | 0.70322    | 2.1994     |  74.9 | 16.20
Output  | 0          | 0          | 0          |   0.0 |  0.00
Modify  | 6.1373e-05 | 0.0066387  | 0.013889   |   3.7 |  0.15
Other   |            | 0.5024     |            |       | 11.57

Nlocal:        5552.90 ave        7890 max           0 min
Histogram: 4 2 2 0 2 6 4 1 12 19
Nghost:        6214.02 ave        8773 max         412 min
Histogram: 4 0 4 0 8 0 4 5 7 20
Neighs:       158427.0 ave      229521 max           0 min
Histogram: 4 2 2 0 5 3 4 4 11 17

Total # of neighbors = 8238189
Ave neighs/atom = 28.530426
Neighbor list builds = 0
Dangerous builds = 0
The dot product: 4.38471700704614e-08
Setting atom values ...
  1 settings made for x
  1 settings made for y
  1 settings made for z
Setting up cg style minimization ...
  Unit style    : metal
  Current step  : 6344
Per MPI rank memory allocation (min/avg/max) = 5.465 | 6.344 | 6.728 Mbytes
Step PotEng KinEng TotEng v_fx v_fy v_fz 
    6344   -1152449.3            0   -1152449.3 -0.0042138098 -0.045170477 -0.032764221 
    6529   -1152449.3            0   -1152449.3 2.400644e-05 -1.7766167e-05 -1.9465279e-05 
Loop time of 4.11645 on 52 procs for 185 steps with 288751 atoms

99.8% CPU use with 52 MPI tasks x 1 OpenMP threads

Minimization stats:
  Stopping criterion = energy tolerance
  Energy initial, next-to-last, final = 
      -1152449.2823743  -1152449.28343832  -1152449.28343832
  Force two-norm initial, final = 0.14694056 0.00013178479
  Force max component initial, final = 0.052023072 2.4809676e-05
  Final line search alpha, max atom move = 1.0000000 2.4809676e-05
  Iterations, force evaluations = 185 370

MPI task timing breakdown:
Section |  min time  |  avg time  |  max time  |%varavg| %total
---------------------------------------------------------------
Pair    | 1.0367     | 2.9543     | 3.8794     |  47.7 | 71.77
Neigh   | 0          | 0          | 0          |   0.0 |  0.00
Comm    | 0.062333   | 0.66758    | 2.1089     |  72.3 | 16.22
Output  | 0          | 0          | 0          |   0.0 |  0.00
Modify  | 5.9395e-05 | 0.00619    | 0.013001   |   3.6 |  0.15
Other   |            | 0.4884     |            |       | 11.86

Nlocal:        5552.90 ave        7890 max           0 min
Histogram: 4 2 2 0 2 6 4 1 12 19
Nghost:        6214.02 ave        8773 max         412 min
Histogram: 4 0 4 0 8 0 4 5 7 20
Neighs:       158427.0 ave      229526 max           0 min
Histogram: 4 2 2 0 5 3 4 4 11 17

Total # of neighbors = 8238188
Ave neighs/atom = 28.530422
Neighbor list builds = 0
Dangerous builds = 0
The dot product: 6.67253503476083e-08
Setting atom values ...
  1 settings made for x
  1 settings made for y
  1 settings made for z
Setting up cg style minimization ...
  Unit style    : metal
  Current step  : 6529
Per MPI rank memory allocation (min/avg/max) = 5.465 | 6.344 | 6.728 Mbytes
Step PotEng KinEng TotEng v_fx v_fy v_fz 
    6529   -1152449.3            0   -1152449.3 -0.002365882 -0.044224184 -0.032823441 
    6736   -1152449.3            0   -1152449.3 -4.412419e-06 -2.0978647e-06 -4.5570009e-07 
Loop time of 4.59933 on 52 procs for 207 steps with 288751 atoms

99.9% CPU use with 52 MPI tasks x 1 OpenMP threads

Minimization stats:
  Stopping criterion = linesearch alpha is zero
  Energy initial, next-to-last, final = 
     -1152449.26812239  -1152449.26917605  -1152449.26917605
  Force two-norm initial, final = 0.14624676 6.5349035e-05
  Force max component initial, final = 0.050038109 4.4925240e-06
  Final line search alpha, max atom move = 0.5 2.2462620e-06
  Iterations, force evaluations = 207 415

MPI task timing breakdown:
Section |  min time  |  avg time  |  max time  |%varavg| %total
---------------------------------------------------------------
Pair    | 1.1912     | 3.315      | 4.338      |  50.1 | 72.08
Neigh   | 0          | 0          | 0          |   0.0 |  0.00
Comm    | 0.062607   | 0.74091    | 2.3428     |  77.2 | 16.11
Output  | 0          | 0          | 0          |   0.0 |  0.00
Modify  | 6.0521e-05 | 0.0070165  | 0.014685   |   3.9 |  0.15
Other   |            | 0.5364     |            |       | 11.66

Nlocal:        5552.90 ave        7890 max           0 min
Histogram: 4 2 2 0 2 6 4 1 12 19
Nghost:        6214.06 ave        8773 max         412 min
Histogram: 4 0 4 0 8 0 4 5 7 20
Neighs:       158427.0 ave      229528 max           0 min
Histogram: 4 2 2 0 5 3 4 4 11 17

Total # of neighbors = 8238189
Ave neighs/atom = 28.530426
Neighbor list builds = 0
Dangerous builds = 0
The dot product: 7.90610478741948e-09
Setting atom values ...
  1 settings made for x
  1 settings made for y
  1 settings made for z
Setting up cg style minimization ...
  Unit style    : metal
  Current step  : 6736
Per MPI rank memory allocation (min/avg/max) = 5.465 | 6.344 | 6.728 Mbytes
Step PotEng KinEng TotEng v_fx v_fy v_fz 
    6736   -1152449.3            0   -1152449.3 -0.00029756214  -0.04353906 -0.033113405 
    6920   -1152449.3            0   -1152449.3 -2.5257803e-06 1.7930598e-05 1.4315511e-05 
Loop time of 4.07222 on 52 procs for 184 steps with 288751 atoms

99.9% CPU use with 52 MPI tasks x 1 OpenMP threads

Minimization stats:
  Stopping criterion = linesearch alpha is zero
  Energy initial, next-to-last, final = 
     -1152449.25227199  -1152449.25331368  -1152449.25331368
  Force two-norm initial, final = 0.14577981 0.00014814128
  Force max component initial, final = 0.048028048 2.0887344e-05
  Final line search alpha, max atom move = 0.5 1.0443672e-05
  Iterations, force evaluations = 184 369

MPI task timing breakdown:
Section |  min time  |  avg time  |  max time  |%varavg| %total
---------------------------------------------------------------
Pair    | 1.0519     | 2.9316     | 3.8442     |  47.2 | 71.99
Neigh   | 0          | 0          | 0          |   0.0 |  0.00
Comm    | 0.05824    | 0.65788    | 2.0712     |  72.2 | 16.16
Output  | 0          | 0          | 0          |   0.0 |  0.00
Modify  | 5.1373e-05 | 0.0062097  | 0.012954   |   3.6 |  0.15
Other   |            | 0.4765     |            |       | 11.70

Nlocal:        5552.90 ave        7889 max           0 min
Histogram: 4 2 2 0 2 6 4 1 12 19
Nghost:        6213.98 ave        8772 max         412 min
Histogram: 4 0 4 0 8 0 4 5 7 20
Neighs:       158427.0 ave      229505 max           0 min
Histogram: 4 2 2 0 5 3 4 4 11 17

Total # of neighbors = 8238189
Ave neighs/atom = 28.530426
Neighbor list builds = 0
Dangerous builds = 0
The dot product: -7.01452329025841e-08
Setting atom values ...
  1 settings made for x
  1 settings made for y
  1 settings made for z
Setting up cg style minimization ...
  Unit style    : metal
  Current step  : 6920
Per MPI rank memory allocation (min/avg/max) = 5.465 | 6.344 | 6.728 Mbytes
Step PotEng KinEng TotEng v_fx v_fy v_fz 
    6920   -1152449.2            0   -1152449.2 0.0020372789 -0.043414075 -0.033889077 
    7000   -1152449.2            0   -1152449.2 -0.0003699668 -1.2701673e-05 8.5146747e-05 
    7120   -1152449.2            0   -1152449.2 -1.0012141e-05 2.2755465e-05 2.0057452e-05 
Loop time of 4.42337 on 52 procs for 200 steps with 288751 atoms

99.9% CPU use with 52 MPI tasks x 1 OpenMP threads

Minimization stats:
  Stopping criterion = linesearch alpha is zero
  Energy initial, next-to-last, final = 
     -1152449.23481415   -1152449.2358416   -1152449.2358416
  Force two-norm initial, final = 0.14565675 0.00010174964
  Force max component initial, final = 0.046965474 2.6268325e-05
  Final line search alpha, max atom move = 0.5 1.3134162e-05
  Iterations, force evaluations = 200 401

MPI task timing breakdown:
Section |  min time  |  avg time  |  max time  |%varavg| %total
---------------------------------------------------------------
Pair    | 1.1172     | 3.1888     | 4.178      |  49.6 | 72.09
Neigh   | 0          | 0          | 0          |   0.0 |  0.00
Comm    | 0.059255   | 0.71727    | 2.2631     |  75.6 | 16.22
Output  | 0.00020471 | 0.00020921 | 0.00036591 |   0.0 |  0.00
Modify  | 5.7259e-05 | 0.006707   | 0.014119   |   3.8 |  0.15
Other   |            | 0.5103     |            |       | 11.54

Nlocal:        5552.90 ave        7889 max           0 min
Histogram: 4 2 2 0 2 6 4 1 12 19
Nghost:        6213.81 ave        8771 max         412 min
Histogram: 4 0 4 0 8 0 4 5 7 20
Neighs:       158427.0 ave      229496 max           0 min
Histogram: 4 2 2 0 5 3 4 4 11 17

Total # of neighbors = 8238188
Ave neighs/atom = 28.530422
Neighbor list builds = 0
Dangerous builds = 0
The dot product: -9.42294489415355e-08
Setting atom values ...
  1 settings made for x
  1 settings made for y
  1 settings made for z
Setting up cg style minimization ...
  Unit style    : metal
  Current step  : 7120
Per MPI rank memory allocation (min/avg/max) = 5.465 | 6.344 | 6.728 Mbytes
Step PotEng KinEng TotEng v_fx v_fy v_fz 
    7120   -1152449.2            0   -1152449.2 0.0046474042 -0.044165263 -0.035416187 
    7287   -1152449.2            0   -1152449.2 2.6556485e-07 4.211221e-05 3.256217e-05 
Loop time of 3.70195 on 52 procs for 167 steps with 288751 atoms

99.9% CPU use with 52 MPI tasks x 1 OpenMP threads

Minimization stats:
  Stopping criterion = energy tolerance
  Energy initial, next-to-last, final = 
      -1152449.2157538  -1152449.21676591  -1152449.21676591
  Force two-norm initial, final = 0.14604622 0.00026767045
  Force max component initial, final = 0.04999782 5.0845239e-05
  Final line search alpha, max atom move = 1.0000000 5.0845239e-05
  Iterations, force evaluations = 167 334

MPI task timing breakdown:
Section |  min time  |  avg time  |  max time  |%varavg| %total
---------------------------------------------------------------
Pair    | 0.93635    | 2.6598     | 3.4807     |  45.2 | 71.85
Neigh   | 0          | 0          | 0          |   0.0 |  0.00
Comm    | 0.050412   | 0.59364    | 1.8731     |  69.3 | 16.04
Output  | 0          | 0          | 0          |   0.0 |  0.00
Modify  | 5.9214e-05 | 0.0055922  | 0.011752   |   3.4 |  0.15
Other   |            | 0.443      |            |       | 11.97

Nlocal:        5552.90 ave        7887 max           0 min
Histogram: 4 2 2 0 2 6 4 1 12 19
Nghost:        6213.94 ave        8772 max         412 min
Histogram: 4 0 4 0 8 0 4 5 7 20
Neighs:       158427.0 ave      229439 max           0 min
Histogram: 4 2 2 0 4 4 4 4 11 17

Total # of neighbors = 8238189
Ave neighs/atom = 28.530426
Neighbor list builds = 0
Dangerous builds = 0
The dot product: -1.82234259201754e-07
Setting atom values ...
  1 settings made for x
  1 settings made for y
  1 settings made for z
Setting up cg style minimization ...
  Unit style    : metal
  Current step  : 7287
Per MPI rank memory allocation (min/avg/max) = 5.465 | 6.344 | 6.728 Mbytes
Step PotEng KinEng TotEng v_fx v_fy v_fz 
    7287   -1152449.2            0   -1152449.2 0.0075665769 -0.046245118   -0.0380954 
    7494   -1152449.2            0   -1152449.2 -1.4541405e-05 -1.4588295e-05 -7.6485723e-06 
Loop time of 4.58125 on 52 procs for 207 steps with 288751 atoms

99.9% CPU use with 52 MPI tasks x 1 OpenMP threads

Minimization stats:
  Stopping criterion = linesearch alpha is zero
  Energy initial, next-to-last, final = 
     -1152449.19512293  -1152449.19612214  -1152449.19612214
  Force two-norm initial, final = 0.14724033 8.5533292e-05
  Force max component initial, final = 0.053207793 1.7256218e-05
  Final line search alpha, max atom move = 0.5 8.6281088e-06
  Iterations, force evaluations = 207 415

MPI task timing breakdown:
Section |  min time  |  avg time  |  max time  |%varavg| %total
---------------------------------------------------------------
Pair    | 1.1623     | 3.3104     | 4.3236     |  50.4 | 72.26
Neigh   | 0          | 0          | 0          |   0.0 |  0.00
Comm    | 0.061509   | 0.7422     | 2.3356     |  77.2 | 16.20
Output  | 0          | 0          | 0          |   0.0 |  0.00
Modify  | 6.8995e-05 | 0.0069416  | 0.014582   |   3.8 |  0.15
Other   |            | 0.5217     |            |       | 11.39

Nlocal:        5552.90 ave        7886 max           0 min
Histogram: 4 2 2 0 2 6 4 1 12 19
Nghost:        6213.94 ave        8772 max         412 min
Histogram: 4 0 4 0 8 0 4 5 7 20
Neighs:       158427.0 ave      229401 max           0 min
Histogram: 4 2 2 0 4 4 4 4 11 17

Total # of neighbors = 8238190
Ave neighs/atom = 28.530429
Neighbor list builds = 0
Dangerous builds = 0
The dot product: 5.9380250374801e-08
Setting atom values ...
  1 settings made for x
  1 settings made for y
  1 settings made for z
Setting up cg style minimization ...
  Unit style    : metal
  Current step  : 7494
Per MPI rank memory allocation (min/avg/max) = 5.465 | 6.344 | 6.728 Mbytes
Step PotEng KinEng TotEng v_fx v_fy v_fz 
    7494   -1152449.2            0   -1152449.2  0.010684782 -0.050424596 -0.042569058 
    7664   -1152449.2            0   -1152449.2 -1.8883966e-05 -2.4424176e-05 -1.4373957e-05 
Loop time of 3.75158 on 52 procs for 170 steps with 288751 atoms

99.9% CPU use with 52 MPI tasks x 1 OpenMP threads

Minimization stats:
  Stopping criterion = energy tolerance
  Energy initial, next-to-last, final = 
     -1152449.17300401  -1152449.17400779  -1152449.17400779
  Force two-norm initial, final = 0.15003265 0.00023188513
  Force max component initial, final = 0.05642893 2.8231534e-05
  Final line search alpha, max atom move = 1.0000000 2.8231534e-05
  Iterations, force evaluations = 170 340

MPI task timing breakdown:
Section |  min time  |  avg time  |  max time  |%varavg| %total
---------------------------------------------------------------
Pair    | 0.95137    | 2.7095     | 3.545      |  45.6 | 72.22
Neigh   | 0          | 0          | 0          |   0.0 |  0.00
Comm    | 0.051905   | 0.60526    | 1.91       |  69.8 | 16.13
Output  | 0          | 0          | 0          |   0.0 |  0.00
Modify  | 5.5205e-05 | 0.005685   | 0.011967   |   3.5 |  0.15
Other   |            | 0.4312     |            |       | 11.49

Nlocal:        5552.90 ave        7886 max           0 min
Histogram: 4 2 2 0 2 6 4 1 12 19
Nghost:        6213.94 ave        8772 max         412 min
Histogram: 4 0 4 0 8 0 4 5 7 20
Neighs:       158427.0 ave      229404 max           0 min
Histogram: 4 2 2 0 4 4 4 4 11 17

Total # of neighbors = 8238193
Ave neighs/atom = 28.530440
Neighbor list builds = 0
Dangerous builds = 0
The dot product: 1.4079616248067e-07
Setting atom values ...
  1 settings made for x
  1 settings made for y
  1 settings made for z
Setting up cg style minimization ...
  Unit style    : metal
  Current step  : 7664
Per MPI rank memory allocation (min/avg/max) = 5.465 | 6.344 | 6.728 Mbytes
Step PotEng KinEng TotEng v_fx v_fy v_fz 
    7664   -1152449.1            0   -1152449.1  0.015057474 -0.058887239 -0.051036354 
    7946   -1152449.3            0   -1152449.3 2.0805396e-06 -1.6428766e-05 -1.3682922e-05 
Loop time of 6.25669 on 52 procs for 282 steps with 288751 atoms

99.9% CPU use with 52 MPI tasks x 1 OpenMP threads

Minimization stats:
  Stopping criterion = linesearch alpha is zero
  Energy initial, next-to-last, final = 
      -1152449.1496151  -1152449.31816219  -1152449.31816219
  Force two-norm initial, final = 0.15671125 6.7951949e-05
  Force max component initial, final = 0.059696138 1.6428766e-05
  Final line search alpha, max atom move = 0.5 8.2143832e-06
  Iterations, force evaluations = 282 564

MPI task timing breakdown:
Section |  min time  |  avg time  |  max time  |%varavg| %total
---------------------------------------------------------------
Pair    | 1.6042     | 4.5053     | 5.8714     |  58.4 | 72.01
Neigh   | 6.0842e-05 | 0.017549   | 0.025606   |   5.6 |  0.28
Comm    | 0.089448   | 1.0084     | 3.1789     |  90.1 | 16.12
Output  | 0          | 0          | 0          |   0.0 |  0.00
Modify  | 0.00010313 | 0.009441   | 0.019839   |   4.5 |  0.15
Other   |            | 0.7161     |            |       | 11.45

Nlocal:        5552.90 ave        7892 max           0 min
Histogram: 4 2 2 0 2 6 4 1 12 19
Nghost:        6213.98 ave        8772 max         412 min
Histogram: 4 0 4 0 8 0 4 5 7 20
Neighs:       158426.0 ave      229568 max           0 min
Histogram: 4 2 2 0 5 3 4 4 11 17

Total # of neighbors = 8238176
Ave neighs/atom = 28.530381
Neighbor list builds = 3
Dangerous builds = 0
The dot product: 6.27701301809297e-06
Setting atom values ...
  1 settings made for x
  1 settings made for y
  1 settings made for z
Setting up cg style minimization ...
  Unit style    : metal
  Current step  : 7946
Per MPI rank memory allocation (min/avg/max) = 5.465 | 6.344 | 6.728 Mbytes
Step PotEng KinEng TotEng v_fx v_fy v_fz 
    7946   -1152449.3            0   -1152449.3 -0.020007578  0.075362095   0.12985078 
    8000   -1152449.3            0   -1152449.3 -0.00034110935 0.00011135843 0.00042400971 
    8176   -1152449.3            0   -1152449.3 2.309743e-06 9.0185302e-06 1.2034116e-05 
Loop time of 5.09213 on 52 procs for 230 steps with 288751 atoms

99.9% CPU use with 52 MPI tasks x 1 OpenMP threads

Minimization stats:
[...]

Nlocal:        5552.90 ave        7876 max           0 min
Histogram: 4 2 2 0 2 6 4 1 12 19
Nghost:        6213.87 ave        8773 max         412 min
Histogram: 4 0 4 0 8 0 4 5 7 20
Neighs:       158427.0 ave      229075 max           0 min
Histogram: 4 2 2 0 4 4 4 4 10 18

Total # of neighbors = 8238212
Ave neighs/atom = 28.530506
Neighbor list builds = 0
Dangerous builds = 0
The dot product: -1.53915276615888e-08
Setting atom values ...
  1 settings made for x
  1 settings made for y
  1 settings made for z
Setting up cg style minimization ...
  Unit style    : metal
  Current step  : 17043
Per MPI rank memory allocation (min/avg/max) = 5.465 | 6.344 | 6.728 Mbytes
Step PotEng KinEng TotEng v_fx v_fy v_fz 
   17043   -1152448.8            0   -1152448.8 -0.0068624077 -0.026141515 -0.028261931 
   17200   -1152448.8            0   -1152448.8 4.1877258e-06 -1.2835153e-05 -1.987848e-05 
Loop time of 3.49528 on 52 procs for 157 steps with 288751 atoms

99.9% CPU use with 52 MPI tasks x 1 OpenMP threads

Minimization stats:
  Stopping criterion = linesearch alpha is zero
  Energy initial, next-to-last, final = 
     -1152448.80452414  -1152448.80566302  -1152448.80566302
  Force two-norm initial, final = 0.15241168 0.0001914647
  Force max component initial, final = 0.081390606 2.4871113e-05
  Final line search alpha, max atom move = 0.25 6.2177782e-06
  Iterations, force evaluations = 157 317

MPI task timing breakdown:
Section |  min time  |  avg time  |  max time  |%varavg| %total
---------------------------------------------------------------
Pair    | 0.90527    | 2.5303     | 3.2866     |  43.8 | 72.39
Neigh   | 0          | 0          | 0          |   0.0 |  0.00
Comm    | 0.0499     | 0.56152    | 1.7658     |  67.3 | 16.07
Output  | 0          | 0          | 0          |   0.0 |  0.00
Modify  | 4.9521e-05 | 0.0053599  | 0.011464   |   3.4 |  0.15
Other   |            | 0.3981     |            |       | 11.39

Nlocal:        5552.90 ave        7875 max           0 min
Histogram: 4 2 2 0 2 6 4 1 12 19
Nghost:        6213.83 ave        8773 max         412 min
Histogram: 4 0 4 0 8 0 4 5 7 20
Neighs:       158427.0 ave      229053 max           0 min
Histogram: 4 2 2 0 4 4 4 4 9 19

Total # of neighbors = 8238212
Ave neighs/atom = 28.530506
Neighbor list builds = 0
Dangerous builds = 0
The dot product: 1.04768035312643e-07
Setting atom values ...
  1 settings made for x
  1 settings made for y
  1 settings made for z
Setting up cg style minimization ...
  Unit style    : metal
  Current step  : 17200
Per MPI rank memory allocation (min/avg/max) = 5.465 | 6.344 | 6.728 Mbytes
Step PotEng KinEng TotEng v_fx v_fy v_fz 
   17200   -1152448.8            0   -1152448.8 -0.012445555 -0.037624811 -0.038989456 
   17388   -1152448.8            0   -1152448.8 3.0610504e-05 -2.2485691e-05 -5.3406492e-05 
Loop time of 4.17442 on 52 procs for 188 steps with 288751 atoms

99.9% CPU use with 52 MPI tasks x 1 OpenMP threads

Minimization stats:
  Stopping criterion = energy tolerance
  Energy initial, next-to-last, final = 
     -1152448.76223012  -1152448.76472815  -1152448.76472815
  Force two-norm initial, final = 0.15826705 0.00023587423
  Force max component initial, final = 0.081229521 5.3406492e-05
  Final line search alpha, max atom move = 1.0000000 5.3406492e-05
  Iterations, force evaluations = 188 376

MPI task timing breakdown:
Section |  min time  |  avg time  |  max time  |%varavg| %total
---------------------------------------------------------------
Pair    | 1.0632     | 3.0074     | 3.9155     |  48.1 | 72.04
Neigh   | 0          | 0          | 0          |   0.0 |  0.00
Comm    | 0.057961   | 0.67217    | 2.0919     |  72.9 | 16.10
Output  | 0          | 0          | 0          |   0.0 |  0.00
Modify  | 6.2642e-05 | 0.0064122  | 0.013431   |   3.7 |  0.15
Other   |            | 0.4885     |            |       | 11.70

Nlocal:        5552.90 ave        7874 max           0 min
Histogram: 4 2 2 0 2 6 4 1 12 19
Nghost:        6213.83 ave        8773 max         412 min
Histogram: 4 0 4 0 8 0 4 5 7 20
Neighs:       158427.0 ave      229027 max           0 min
Histogram: 4 2 2 0 4 4 4 4 9 19

Total # of neighbors = 8238213
Ave neighs/atom = 28.530509
Neighbor list builds = 0
Dangerous builds = 0
The dot product: 1.26851944761093e-06
Setting atom values ...
  1 settings made for x
  1 settings made for y
  1 settings made for z
Setting up cg style minimization ...
  Unit style    : metal
  Current step  : 17388
Per MPI rank memory allocation (min/avg/max) = 5.465 | 6.344 | 6.728 Mbytes
Step PotEng KinEng TotEng v_fx v_fy v_fz 
   17388   -1152448.7            0   -1152448.7 -0.025732469 -0.060400365 -0.060957896 
   17560   -1152448.7            0   -1152448.7 1.4841093e-05 1.1682918e-05 3.9679004e-06 
Loop time of 3.82122 on 52 procs for 172 steps with 288751 atoms

99.9% CPU use with 52 MPI tasks x 1 OpenMP threads

Minimization stats:
  Stopping criterion = linesearch alpha is zero
  Energy initial, next-to-last, final = 
      -1152448.7237272  -1152448.72609865  -1152448.72609865
  Force two-norm initial, final = 0.17152856 0.00019837365
  Force max component initial, final = 0.081066998 1.5212664e-05
  Final line search alpha, max atom move = 0.25 3.8031661e-06
  Iterations, force evaluations = 172 347

MPI task timing breakdown:
Section |  min time  |  avg time  |  max time  |%varavg| %total
---------------------------------------------------------------
Pair    | 0.98623    | 2.7701     | 3.603      |  45.8 | 72.49
Neigh   | 0          | 0          | 0          |   0.0 |  0.00
Comm    | 0.055413   | 0.61487    | 1.9388     |  70.3 | 16.09
Output  | 0          | 0          | 0          |   0.0 |  0.00
Modify  | 5.5748e-05 | 0.0059003  | 0.01258    |   3.5 |  0.15
Other   |            | 0.4303     |            |       | 11.26

Nlocal:        5552.90 ave        7875 max           0 min
Histogram: 4 2 2 0 2 6 4 1 12 19
Nghost:        6213.83 ave        8773 max         412 min
Histogram: 4 0 4 0 8 0 4 5 7 20
Neighs:       158427.0 ave      229051 max           0 min
Histogram: 4 2 2 0 4 4 4 4 9 19

Total # of neighbors = 8238214
Ave neighs/atom = 28.530512
Neighbor list builds = 0
Dangerous builds = 0
The dot product: -4.81855788943438e-07
Setting atom values ...
  1 settings made for x
  1 settings made for y
  1 settings made for z
Setting up cg style minimization ...
  Unit style    : metal
  Current step  : 17560
Per MPI rank memory allocation (min/avg/max) = 5.465 | 6.344 | 6.728 Mbytes
Step PotEng KinEng TotEng v_fx v_fy v_fz 
   17560   -1152448.7            0   -1152448.7 -0.023829643 -0.052421407 -0.053747118 
   17718   -1152448.7            0   -1152448.7 -3.0896593e-06 1.0341969e-05 1.6789424e-05 
Loop time of 3.50019 on 52 procs for 158 steps with 288751 atoms

99.8% CPU use with 52 MPI tasks x 1 OpenMP threads

Minimization stats:
  Stopping criterion = energy tolerance
  Energy initial, next-to-last, final = 
     -1152448.68599588  -1152448.68763724  -1152448.68763724
  Force two-norm initial, final = 0.16310393 0.00015992602
  Force max component initial, final = 0.080666782 3.7536299e-05
  Final line search alpha, max atom move = 1.0000000 3.7536299e-05
  Iterations, force evaluations = 158 316

MPI task timing breakdown:
Section |  min time  |  avg time  |  max time  |%varavg| %total
---------------------------------------------------------------
Pair    | 0.88783    | 2.5193     | 3.2924     |  44.1 | 71.98
Neigh   | 0          | 0          | 0          |   0.0 |  0.00
Comm    | 0.049612   | 0.56376    | 1.7595     |  67.0 | 16.11
Output  | 0          | 0          | 0          |   0.0 |  0.00
Modify  | 4.6752e-05 | 0.0053516  | 0.011243   |   3.4 |  0.15
Other   |            | 0.4118     |            |       | 11.77

Nlocal:        5552.90 ave        7875 max           0 min
Histogram: 4 2 2 0 2 6 4 1 12 19
Nghost:        6213.83 ave        8773 max         412 min
Histogram: 4 0 4 0 8 0 4 5 7 20
Neighs:       158427.0 ave      229051 max           0 min
Histogram: 4 2 2 0 4 4 4 4 9 19

Total # of neighbors = 8238215
Ave neighs/atom = 28.530516
Neighbor list builds = 0
Dangerous builds = 0
The dot product: -3.02591114642252e-07
Setting atom values ...
  1 settings made for x
  1 settings made for y
  1 settings made for z
Setting up cg style minimization ...
  Unit style    : metal
  Current step  : 17718
Per MPI rank memory allocation (min/avg/max) = 5.465 | 6.344 | 6.728 Mbytes
Step PotEng KinEng TotEng v_fx v_fy v_fz 
   17718   -1152448.6            0   -1152448.6 -0.023429142 -0.048134832  -0.04944261 
   17968   -1152448.7            0   -1152448.7 7.8955452e-06 -8.2265325e-06 -1.7891244e-05 
Loop time of 5.57665 on 52 procs for 250 steps with 288751 atoms

99.9% CPU use with 52 MPI tasks x 1 OpenMP threads

Minimization stats:
  Stopping criterion = linesearch alpha is zero
  Energy initial, next-to-last, final = 
     -1152448.64784383  -1152448.66787208  -1152448.66787208
  Force two-norm initial, final = 0.15894642 0.00010599521
  Force max component initial, final = 0.079956964 1.7891244e-05
  Final line search alpha, max atom move = 0.5 8.9456218e-06
  Iterations, force evaluations = 250 505

MPI task timing breakdown:
Section |  min time  |  avg time  |  max time  |%varavg| %total
---------------------------------------------------------------
Pair    | 1.4331     | 4.0206     | 5.2543     |  55.4 | 72.10
Neigh   | 2.0114e-05 | 0.0057938  | 0.0084515  |   3.2 |  0.10
Comm    | 0.082767   | 0.89644    | 2.8089     |  84.3 | 16.07
Output  | 0          | 0          | 0          |   0.0 |  0.00
Modify  | 8.4095e-05 | 0.0085696  | 0.018062   |   4.3 |  0.15
Other   |            | 0.6452     |            |       | 11.57

Nlocal:        5552.90 ave        7876 max           0 min
Histogram: 4 2 2 0 2 6 4 1 12 19
Nghost:        6213.79 ave        8773 max         412 min
Histogram: 4 0 4 0 8 0 4 5 7 20
Neighs:       158427.0 ave      229077 max           0 min
Histogram: 4 2 2 0 4 4 4 4 10 18

Total # of neighbors = 8238226
Ave neighs/atom = 28.530554
Neighbor list builds = 1
Dangerous builds = 0
The dot product: 1.49182233264484e-06
Setting atom values ...
  1 settings made for x
  1 settings made for y
  1 settings made for z
Setting up cg style minimization ...
  Unit style    : metal
  Current step  : 17968
Per MPI rank memory allocation (min/avg/max) = 5.465 | 6.344 | 6.728 Mbytes
Step PotEng KinEng TotEng v_fx v_fy v_fz 
   17968   -1152448.6            0   -1152448.6 -0.056302994 -0.083675504 -0.088530207 
   18000   -1152448.6            0   -1152448.6 0.00026605077 3.2382881e-06 -0.00020565712 
   18079   -1152448.6            0   -1152448.6 -3.5236823e-05 -3.7807603e-05 -3.2238231e-05 
Loop time of 2.45682 on 52 procs for 111 steps with 288751 atoms

99.9% CPU use with 52 MPI tasks x 1 OpenMP threads

Minimization stats:
  Stopping criterion = energy tolerance
  Energy initial, next-to-last, final = 
      -1152448.6437687   -1152448.6455171   -1152448.6455171
  Force two-norm initial, final = 0.18920817 0.00035074596
  Force max component initial, final = 0.088530207 5.8227680e-05
  Final line search alpha, max atom move = 1.0000000 5.8227680e-05
  Iterations, force evaluations = 111 222

MPI task timing breakdown:
Section |  min time  |  avg time  |  max time  |%varavg| %total
---------------------------------------------------------------
Pair    | 0.62481    | 1.7734     | 2.3181     |  36.9 | 72.18
Neigh   | 0          | 0          | 0          |   0.0 |  0.00
Comm    | 0.032971   | 0.39624    | 1.244      |  56.4 | 16.13
Output  | 0.00022732 | 0.00023219 | 0.00042067 |   0.0 |  0.01
Modify  | 3.5908e-05 | 0.0037348  | 0.007849   |   2.8 |  0.15
Other   |            | 0.2832     |            |       | 11.53

Nlocal:        5552.90 ave        7885 max           0 min
Histogram: 4 2 2 0 2 6 4 1 12 19
Nghost:        6214.17 ave        8775 max         412 min
Histogram: 4 0 4 0 8 0 4 5 7 20
Neighs:       158427.0 ave      229394 max           0 min
Histogram: 4 2 2 0 4 4 4 4 11 17

Total # of neighbors = 8238219
Ave neighs/atom = 28.530530
Neighbor list builds = 0
Dangerous builds = 0
The dot product: 1.16330487223105e-06
Setting atom values ...
  1 settings made for x
  1 settings made for y
  1 settings made for z
Setting up cg style minimization ...
  Unit style    : metal
  Current step  : 18079
Per MPI rank memory allocation (min/avg/max) = 5.465 | 6.344 | 6.728 Mbytes
Step PotEng KinEng TotEng v_fx v_fy v_fz 
   18079   -1152448.6            0   -1152448.6 -0.029141142 -0.048207259 -0.054993069 
   18193   -1152448.6            0   -1152448.6 -6.1499011e-06 -2.8916787e-05 -4.1915561e-05 
Loop time of 2.52414 on 52 procs for 114 steps with 288751 atoms

99.9% CPU use with 52 MPI tasks x 1 OpenMP threads

Minimization stats:
  Stopping criterion = energy tolerance
  Energy initial, next-to-last, final = 
      -1152448.6206701   -1152448.6216901   -1152448.6216901
  Force two-norm initial, final = 0.15401483 0.00022844089
  Force max component initial, final = 0.070832929 5.4683042e-05
  Final line search alpha, max atom move = 1.0000000 5.4683042e-05
  Iterations, force evaluations = 114 228

MPI task timing breakdown:
Section |  min time  |  avg time  |  max time  |%varavg| %total
---------------------------------------------------------------
Pair    | 0.64098    | 1.8181     | 2.3798     |  37.4 | 72.03
Neigh   | 0          | 0          | 0          |   0.0 |  0.00
Comm    | 0.037157   | 0.40757    | 1.2727     |  56.6 | 16.15
Output  | 0          | 0          | 0          |   0.0 |  0.00
Modify  | 4.2814e-05 | 0.0038664  | 0.0081085  |   2.9 |  0.15
Other   |            | 0.2946     |            |       | 11.67

Nlocal:        5552.90 ave        7883 max           0 min
Histogram: 4 2 2 0 2 6 4 1 12 19
Nghost:        6214.17 ave        8775 max         412 min
Histogram: 4 0 4 0 8 0 4 5 7 20
Neighs:       158427.0 ave      229327 max           0 min
Histogram: 4 2 2 0 4 4 4 4 10 18

Total # of neighbors = 8238219
Ave neighs/atom = 28.530530
Neighbor list builds = 0
Dangerous builds = 0
The dot product: 2.29920950594303e-07
Setting atom values ...
  1 settings made for x
  1 settings made for y
  1 settings made for z
Setting up cg style minimization ...
  Unit style    : metal
  Current step  : 18193
Per MPI rank memory allocation (min/avg/max) = 5.465 | 6.344 | 6.728 Mbytes
Step PotEng KinEng TotEng v_fx v_fy v_fz 
   18193   -1152448.6            0   -1152448.6 -0.023229516 -0.043064736 -0.051727926 
   18374   -1152448.6            0   -1152448.6 6.5265594e-06 1.7876613e-05 2.3914873e-05 
Loop time of 4.06463 on 52 procs for 181 steps with 288751 atoms

99.9% CPU use with 52 MPI tasks x 1 OpenMP threads

Minimization stats:
  Stopping criterion = linesearch alpha is zero
  Energy initial, next-to-last, final = 
     -1152448.59591165  -1152448.59686306  -1152448.59686306
  Force two-norm initial, final = 0.14885771 0.00013380762
  Force max component initial, final = 0.069695495 2.3914873e-05
  Final line search alpha, max atom move = 0.5 1.1957436e-05
  Iterations, force evaluations = 181 367

MPI task timing breakdown:
Section |  min time  |  avg time  |  max time  |%varavg| %total
---------------------------------------------------------------
Pair    | 1.0311     | 2.9282     | 3.8288     |  47.5 | 72.04
Neigh   | 0          | 0          | 0          |   0.0 |  0.00
Comm    | 0.058163   | 0.65766    | 2.0586     |  72.2 | 16.18
Output  | 0          | 0          | 0          |   0.0 |  0.00
Modify  | 5.7209e-05 | 0.0061841  | 0.012984   |   3.6 |  0.15
Other   |            | 0.4726     |            |       | 11.63

Nlocal:        5552.90 ave        7881 max           0 min
Histogram: 4 2 2 0 2 6 4 1 12 19
Nghost:        6214.17 ave        8775 max         412 min
Histogram: 4 0 4 0 8 0 4 5 7 20
Neighs:       158427.0 ave      229262 max           0 min
Histogram: 4 2 2 0 4 4 4 4 10 18

Total # of neighbors = 8238221
Ave neighs/atom = 28.530537
Neighbor list builds = 0
Dangerous builds = 0
The dot product: -1.1009103913238e-07
Setting atom values ...
  1 settings made for x
  1 settings made for y
  1 settings made for z
Setting up cg style minimization ...
  Unit style    : metal
  Current step  : 18374
Per MPI rank memory allocation (min/avg/max) = 5.465 | 6.344 | 6.728 Mbytes
Step PotEng KinEng TotEng v_fx v_fy v_fz 
   18374   -1152448.6            0   -1152448.6  -0.01912507 -0.041229752 -0.052223886 
   18539   -1152448.6            0   -1152448.6 -1.5094083e-06 1.8580762e-06 4.2027027e-06 
Loop time of 3.67536 on 52 procs for 165 steps with 288751 atoms

99.9% CPU use with 52 MPI tasks x 1 OpenMP threads

Minimization stats:
  Stopping criterion = linesearch alpha is zero
  Energy initial, next-to-last, final = 
     -1152448.57019615  -1152448.57109425  -1152448.57109425
  Force two-norm initial, final = 0.14623641 0.00018451213
  Force max component initial, final = 0.068523361 2.4978226e-05
  Final line search alpha, max atom move = 0.25 6.2445566e-06
  Iterations, force evaluations = 165 333

MPI task timing breakdown:
Section |  min time  |  avg time  |  max time  |%varavg| %total
---------------------------------------------------------------
Pair    | 0.94498    | 2.6577     | 3.4641     |  45.1 | 72.31
Neigh   | 0          | 0          | 0          |   0.0 |  0.00
Comm    | 0.052495   | 0.59209    | 1.8594     |  68.7 | 16.11
Output  | 0          | 0          | 0          |   0.0 |  0.00
Modify  | 5.9122e-05 | 0.0056638  | 0.012097   |   3.5 |  0.15
Other   |            | 0.4199     |            |       | 11.42

Nlocal:        5552.90 ave        7879 max           0 min
Histogram: 4 2 2 0 2 6 4 1 12 19
Nghost:        6214.17 ave        8775 max         412 min
Histogram: 4 0 4 0 8 0 4 5 7 20
Neighs:       158427.0 ave      229200 max           0 min
Histogram: 4 2 2 0 4 4 4 4 10 18

Total # of neighbors = 8238223
Ave neighs/atom = 28.530544
Neighbor list builds = 0
Dangerous builds = 0
The dot product: -4.56725293515331e-09
Setting atom values ...
  1 settings made for x
  1 settings made for y
  1 settings made for z
Setting up cg style minimization ...
  Unit style    : metal
  Current step  : 18539
Per MPI rank memory allocation (min/avg/max) = 5.465 | 6.344 | 6.728 Mbytes
Step PotEng KinEng TotEng v_fx v_fy v_fz 
   18539   -1152448.5            0   -1152448.5  -0.01406391 -0.039638695 -0.053803879 
   18705   -1152448.5            0   -1152448.5 6.2036568e-06 -1.0590509e-05 -2.2114625e-05 
Loop time of 3.69517 on 52 procs for 166 steps with 288751 atoms

99.9% CPU use with 52 MPI tasks x 1 OpenMP threads

Minimization stats:
  Stopping criterion = linesearch alpha is zero
  Energy initial, next-to-last, final = 
     -1152448.54364995  -1152448.54452402  -1152448.54452402
  Force two-norm initial, final = 0.14445722 0.00013958415
  Force max component initial, final = 0.067717312 3.1290922e-05
  Final line search alpha, max atom move = 0.5 1.5645461e-05
  Iterations, force evaluations = 166 335

MPI task timing breakdown:
Section |  min time  |  avg time  |  max time  |%varavg| %total
---------------------------------------------------------------
Pair    | 0.94354    | 2.673      | 3.489      |  45.4 | 72.34
Neigh   | 0          | 0          | 0          |   0.0 |  0.00
Comm    | 0.053549   | 0.59702    | 1.8688     |  69.0 | 16.16
Output  | 0          | 0          | 0          |   0.0 |  0.00
Modify  | 6.094e-05  | 0.0056614  | 0.012017   |   3.5 |  0.15
Other   |            | 0.4195     |            |       | 11.35

Nlocal:        5552.90 ave        7878 max           0 min
Histogram: 4 2 2 0 2 6 4 1 12 19
Nghost:        6214.17 ave        8775 max         412 min
Histogram: 4 0 4 0 8 0 4 5 7 20
Neighs:       158427.0 ave      229173 max           0 min
Histogram: 4 2 2 0 4 4 4 4 10 18

Total # of neighbors = 8238223
Ave neighs/atom = 28.530544
Neighbor list builds = 0
Dangerous builds = 0
The dot product: 7.91734648813618e-08
