LAMMPS (29 Oct 2020)
OMP_NUM_THREADS environment is not set. Defaulting to 1 thread. (../comm.cpp:94)
  using 1 OpenMP thread(s) per MPI task
Reading data file ...
  orthogonal box = (-122.39241 -121.13707 -37.090501) to (122.39241 121.13707 37.090501)
  13 by 4 by 1 MPI processor grid
  reading atoms ...
  288751 atoms
  read_data CPU = 0.419 seconds
199981 atoms in group inner
88770 atoms in group outer
1 atoms in group carbon
Neighbor list info ...
  update every 1 steps, delay 0 steps, check yes
  max neighbors/atom: 2000, page size: 100000
  master list distance cutoff = 5.6
  ghost atom cutoff = 5.6
  binsize = 2.8, bins = 88 87 27
  1 neighbor lists, perpetual/occasional/extra = 1 0 0
  (1) pair eam/alloy, perpetual
      attributes: half, newton on
      pair build: half/bin/atomonly/newton
      stencil: half/bin/3d/newton
      bin: standard
Setting up cg style minimization ...
  Unit style    : metal
  Current step  : 0
Per MPI rank memory allocation (min/avg/max) = 5.465 | 6.344 | 6.728 Mbytes
Step v_fx v_fy v_fz PotEng KinEng TotEng 
       0    26.404731   -0.8229674   -7.8668167   -1152441.8            0   -1152441.8 
     230 -3.2108587e-05 3.2670237e-06 3.0996502e-05     -1152449            0     -1152449 
Loop time of 5.13924 on 52 procs for 230 steps with 288751 atoms

99.8% CPU use with 52 MPI tasks x 1 OpenMP threads

Minimization stats:
  Stopping criterion = energy tolerance
  Energy initial, next-to-last, final = 
     -1152441.81555594  -1152448.97218893  -1152448.97218893
  Force two-norm initial, final = 45.174000 0.00018490793
  Force max component initial, final = 34.025302 3.2108587e-05
  Final line search alpha, max atom move = 1.0000000 3.2108587e-05
  Iterations, force evaluations = 230 456

MPI task timing breakdown:
Section |  min time  |  avg time  |  max time  |%varavg| %total
---------------------------------------------------------------
Pair    | 1.3833     | 3.6751     | 4.8123     |  51.6 | 71.51
Neigh   | 0.00017913 | 0.054617   | 0.077007   |   9.9 |  1.06
Comm    | 0.076635   | 0.825      | 2.5781     |  80.2 | 16.05
Output  | 0          | 0          | 0          |   0.0 |  0.00
Modify  | 7.1879e-05 | 0.00506    | 0.012879   |   4.4 |  0.10
Other   |            | 0.5795     |            |       | 11.28

Nlocal:        5552.90 ave        7901 max           0 min
Histogram: 4 2 2 0 2 6 4 0 15 17
Nghost:        6213.60 ave        8769 max         412 min
Histogram: 4 0 4 0 8 0 4 5 7 20
Neighs:       158427.0 ave      230277 max           0 min
Histogram: 4 2 2 0 5 3 4 4 12 16

Total # of neighbors = 8238217
Ave neighs/atom = 28.530523
Neighbor list builds = 9
Dangerous builds = 0
3.51 -0.01 -0.24 3.40235393477265 -0.010705260460926 -0.516248002304308
Total wall time: 0:00:05
