LAMMPS (29 Oct 2020)
OMP_NUM_THREADS environment is not set. Defaulting to 1 thread. (../comm.cpp:94)
  using 1 OpenMP thread(s) per MPI task
########
#
########
variable                delta             equal     0.02 # the step size should be larger otherwise the number of
#the energy minimum sites is smaller
variable                iter_tot          equal     150

label                   loop
variable                seed              loop     312 319 #20 simulations
variable                iteration         loop      ${iter_tot} #The maximum ietration number per random direction
variable                iteration         loop      150 
clear
OMP_NUM_THREADS environment is not set. Defaulting to 1 thread. (../comm.cpp:94)
  using 1 OpenMP thread(s) per MPI task
units                   metal
atom_style              atomic
dimension                   3
boundary                p p p
atom_modify             map array sort 0 0.0

read_data               poslmp_carbon.dat
Reading data file ...
  orthogonal box = (-122.39241 -121.13707 -37.090501) to (122.39241 121.13707 37.090501)
  13 by 4 by 2 MPI processor grid
  reading atoms ...
  288751 atoms
  read_data CPU = 0.404 seconds

variable                zmax     equal    zhi
variable                zmin     equal    zlo

region                  inner   cylinder   z  1.16564  0.67298333  100.0  ${zmin}  ${zmax}  units  box
region                  inner   cylinder   z  1.16564  0.67298333  100.0  -37.0905005093422  ${zmax}  units  box
region                  inner   cylinder   z  1.16564  0.67298333  100.0  -37.0905005093422  37.0905005093422  units  box
group                   inner   region     inner
199981 atoms in group inner
group                   outer   subtract   all  inner
88770 atoms in group outer
group                   carbon  type       2
1 atoms in group carbon

pair_style              eam/alloy
pair_coeff              * * FeC-Becquart2013.eam.txt Fe C
neighbor                0.3 bin
neigh_modify            delay 0 check yes every 1

compute                 force     carbon   reduce  sum  fx fy fz
variable                fx    equal    c_force[1]
variable                fy    equal    c_force[2]
variable                fz    equal    c_force[3]

fix                     force    outer    setforce      0.0 0.0 0.0
thermo_style            custom   step     v_fx v_fy v_fz pe ke etotal
min_style               cg
minimize                1.0e-30 1.0e-30 10000 10000
Neighbor list info ...
  update every 1 steps, delay 0 steps, check yes
  max neighbors/atom: 2000, page size: 100000
  master list distance cutoff = 5.6
  ghost atom cutoff = 5.6
  binsize = 2.8, bins = 88 87 27
  1 neighbor lists, perpetual/occasional/extra = 1 0 0
  (1) pair eam/alloy, perpetual
      attributes: half, newton on
      pair build: half/bin/atomonly/newton
      stencil: half/bin/3d/newton
      bin: standard
Per MPI rank memory allocation (min/avg/max) = 5.441 | 5.816 | 6.074 Mbytes
Step v_fx v_fy v_fz PotEng KinEng TotEng 
       0   -1.4546072   -1.0888017   -2.4596011   -1152447.8            0   -1152447.8 
     175 3.3892743e-07 -1.3003268e-06 -2.3045867e-05   -1152449.5            0   -1152449.5 
Loop time of 2.10079 on 104 procs for 175 steps with 288751 atoms

99.8% CPU use with 104 MPI tasks x 1 OpenMP threads

Minimization stats:
  Stopping criterion = energy tolerance
  Energy initial, next-to-last, final = 
     -1152447.79174018  -1152449.45035272  -1152449.45035272
  Force two-norm initial, final = 10.089679 5.8529535e-05
  Force max component initial, final = 4.5102156 2.3045867e-05
  Final line search alpha, max atom move = 1.0000000 2.3045867e-05
  Iterations, force evaluations = 175 349

MPI task timing breakdown:
Section |  min time  |  avg time  |  max time  |%varavg| %total
---------------------------------------------------------------
Pair    | 0.55763    | 1.4811     | 1.9165     |  32.1 | 70.50
Neigh   | 3.3547e-05 | 0.0086987  | 0.012659   |   3.9 |  0.41
Comm    | 0.035442   | 0.34167    | 1.0057     |  46.8 | 16.26
Output  | 0          | 0          | 0          |   0.0 |  0.00
Modify  | 2.0041e-05 | 0.0018955  | 0.0048183  |   2.7 |  0.09
Other   |            | 0.2675     |            |       | 12.73

Nlocal:        2776.45 ave        3960 max           0 min
Histogram: 8 4 4 0 4 12 8 2 28 34
Nghost:        3879.01 ave        5425 max         232 min
Histogram: 8 0 8 0 16 0 8 8 16 40
Neighs:        79213.5 ave      115442 max           0 min
Histogram: 8 4 4 0 10 6 8 8 24 32

Total # of neighbors = 8238207
Ave neighs/atom = 28.530488
Neighbor list builds = 3
Dangerous builds = 1
#write_data              minimize.dat
#quit

variable                fx_0  equal    ${fx}
variable                fx_0  equal    3.38927429455183e-07
variable                fy_0  equal    ${fy}
variable                fy_0  equal    -1.30032684886316e-06
variable                fz_0  equal    ${fz}
variable                fz_0  equal    -2.30458668856182e-05

variable                i     equal    288751

variable                x0    equal    x[v_i]
variable                y0    equal    y[v_i]
variable                z0    equal    z[v_i]

variable                x     equal    x[v_i]+v_delta*random(-1.0,1.0,${seed})
variable                x     equal    x[v_i]+v_delta*random(-1.0,1.0,312)
variable                y     equal    y[v_i]+v_delta*random(-1.0,1.0,${seed})
variable                y     equal    y[v_i]+v_delta*random(-1.0,1.0,312)
variable                z     equal    z[v_i]+v_delta*random(-1.0,1.0,${seed})
variable                z     equal    z[v_i]+v_delta*random(-1.0,1.0,312)
variable                x_0    equal     ${x0}
variable                x_0    equal     1.73680889051111
variable                y_0    equal     ${y0}
variable                y_0    equal     -1.01611299667649
variable                z_0    equal     ${z0}
variable                z_0    equal     -30.7358299219733
variable                x_1    equal     $x
variable                x_1    equal     1.74526282708795
variable                y_1    equal     $y
variable                y_1    equal     -1.02070861730866
variable                z_1    equal     $z
variable                z_1    equal     -30.7304577744132

set                atom        $i    x  ${x_1}  y  ${y_1}  z  ${z_1}
set                atom        288751    x  ${x_1}  y  ${y_1}  z  ${z_1}
set                atom        288751    x  1.74526282708795  y  ${y_1}  z  ${z_1}
set                atom        288751    x  1.74526282708795  y  -1.02070861730866  z  ${z_1}
set                atom        288751    x  1.74526282708795  y  -1.02070861730866  z  -30.7304577744132
Setting atom values ...
  1 settings made for x
  1 settings made for y
  1 settings made for z
variable           vector_x          equal     ${x_1}-${x_0}
variable           vector_x          equal     1.74526282708795-${x_0}
variable           vector_x          equal     1.74526282708795-1.73680889051111
variable           vector_y          equal     ${y_1}-${y_0}
variable           vector_y          equal     -1.02070861730866-${y_0}
variable           vector_y          equal     -1.02070861730866--1.01611299667649
variable           vector_z          equal     ${z_1}-${z_0}
variable           vector_z          equal     -30.7304577744132-${z_0}
variable           vector_z          equal     -30.7304577744132--30.7358299219733

#dump               1     all   custom   1000   dump_minimize.atom.* id type x y z
#dump_modify        1     element  Fe C
thermo_style       custom   step  pe ke etotal v_fx v_fy v_fz
thermo             1000

fix                hold    carbon   planeforce   ${vector_x}  ${vector_y}  ${vector_z}
fix                hold    carbon   planeforce   0.0084539365768399  ${vector_y}  ${vector_z}
fix                hold    carbon   planeforce   0.0084539365768399  -0.00459562063217001  ${vector_z}
fix                hold    carbon   planeforce   0.0084539365768399  -0.00459562063217001  0.00537214756009874
min_style          cg
minimize           1.0e-30 1.0e-30 10000 10000
Per MPI rank memory allocation (min/avg/max) = 5.441 | 5.816 | 6.074 Mbytes
Step PotEng KinEng TotEng v_fx v_fy v_fz 
     175   -1152449.4            0   -1152449.4  0.010226635 -0.0083332359 -0.023221945 
     344   -1152449.5            0   -1152449.5 1.1509381e-07 8.4730056e-06 7.0671409e-06 
Loop time of 2.03393 on 104 procs for 169 steps with 288751 atoms

99.8% CPU use with 104 MPI tasks x 1 OpenMP threads

Minimization stats:
  Stopping criterion = energy tolerance
  Energy initial, next-to-last, final = 
     -1152449.44967138  -1152449.45009679  -1152449.45009679
  Force two-norm initial, final = 0.094784145 0.00012514345
  Force max component initial, final = 0.045878946 9.3741735e-06
  Final line search alpha, max atom move = 1.0000000 9.3741735e-06
  Iterations, force evaluations = 169 338

MPI task timing breakdown:
Section |  min time  |  avg time  |  max time  |%varavg| %total
---------------------------------------------------------------
Pair    | 0.51239    | 1.4311     | 1.8737     |  32.3 | 70.36
Neigh   | 0          | 0          | 0          |   0.0 |  0.00
Comm    | 0.032259   | 0.32694    | 0.95933    |  46.6 | 16.07
Output  | 0          | 0          | 0          |   0.0 |  0.00
Modify  | 2.181e-05  | 0.0028072  | 0.0059519  |   2.5 |  0.14
Other   |            | 0.2731     |            |       | 13.43

Nlocal:        2776.45 ave        3958 max           0 min
Histogram: 8 4 4 0 4 12 8 2 28 34
Nghost:        3878.99 ave        5426 max         232 min
Histogram: 8 0 8 0 16 0 8 8 16 40
Neighs:        79213.4 ave      115354 max           0 min
Histogram: 8 4 4 0 10 6 8 8 24 32

Total # of neighbors = 8238197
Ave neighs/atom = 28.530454
Neighbor list builds = 0
Dangerous builds = 0
unfix              hold

variable           new_x         equal     ${x0}-${x_0}
variable           new_x         equal     1.74583282079837-${x_0}
variable           new_x         equal     1.74583282079837-1.73680889051111
variable           new_y         equal     ${y0}-${y_0}
variable           new_y         equal     -1.0204857743948-${y_0}
variable           new_y         equal     -1.0204857743948--1.01611299667649
variable           new_z         equal     ${z0}-${z_0}
variable           new_z         equal     -30.7311641193417-${z_0}
variable           new_z         equal     -30.7311641193417--30.7358299219733

label iteration
variable           norm          equal     sqrt(${new_x}^2+${new_y}^2+${new_z}^2)
variable           norm          equal     sqrt(0.0090239302872599^2+${new_y}^2+${new_z}^2)
variable           norm          equal     sqrt(0.0090239302872599^2+-0.00437277771831002^2+${new_z}^2)
variable           norm          equal     sqrt(0.0090239302872599^2+-0.00437277771831002^2+0.00466580263159955^2)
variable           unit_x        equal     ${new_x}/${norm}
variable           unit_x        equal     0.0090239302872599/${norm}
variable           unit_x        equal     0.0090239302872599/0.0110599374772246
variable           unit_y        equal     ${new_y}/${norm}
variable           unit_y        equal     -0.00437277771831002/${norm}
variable           unit_y        equal     -0.00437277771831002/0.0110599374772246
variable           unit_z        equal     ${new_z}/${norm}
variable           unit_z        equal     0.00466580263159955/${norm}
variable           unit_z        equal     0.00466580263159955/0.0110599374772246
variable           x_new         equal     ${x0}+${delta}*${unit_x}
variable           x_new         equal     1.74583282079837+${delta}*${unit_x}
variable           x_new         equal     1.74583282079837+0.02*${unit_x}
variable           x_new         equal     1.74583282079837+0.02*0.815911509973959
variable           y_new         equal     ${y0}+${delta}*${unit_y}
variable           y_new         equal     -1.0204857743948+${delta}*${unit_y}
variable           y_new         equal     -1.0204857743948+0.02*${unit_y}
variable           y_new         equal     -1.0204857743948+0.02*-0.395370925677903
variable           z_new         equal     ${z0}+${delta}*${unit_z}
variable           z_new         equal     -30.7311641193417+${delta}*${unit_z}
variable           z_new         equal     -30.7311641193417+0.02*${unit_z}
variable           z_new         equal     -30.7311641193417+0.02*0.421865190577044

set                atom          $i    x  ${x_new}  y  ${y_new}  z   ${z_new}
set                atom          288751    x  ${x_new}  y  ${y_new}  z   ${z_new}
set                atom          288751    x  1.76215105099785  y  ${y_new}  z   ${z_new}
set                atom          288751    x  1.76215105099785  y  -1.02839319290836  z   ${z_new}
set                atom          288751    x  1.76215105099785  y  -1.02839319290836  z   -30.7227268155302
Setting atom values ...
  1 settings made for x
  1 settings made for y
  1 settings made for z

fix                hold    carbon   planeforce   ${new_x}  ${new_y}  ${new_z}
fix                hold    carbon   planeforce   0.0090239302872599  ${new_y}  ${new_z}
fix                hold    carbon   planeforce   0.0090239302872599  -0.00437277771831002  ${new_z}
fix                hold    carbon   planeforce   0.0090239302872599  -0.00437277771831002  0.00466580263159955
min_style          cg
minimize           1.0e-30 1.0e-30 10000 10000
Per MPI rank memory allocation (min/avg/max) = 5.441 | 5.816 | 6.074 Mbytes
Step PotEng KinEng TotEng v_fx v_fy v_fz 
     344   -1152449.4            0   -1152449.4  0.014013258 -0.014712073 -0.040890562 
     515   -1152449.4            0   -1152449.4 9.4762627e-07 5.3820322e-05 4.8607498e-05 
Loop time of 2.03356 on 104 procs for 171 steps with 288751 atoms

99.9% CPU use with 104 MPI tasks x 1 OpenMP threads

Minimization stats:
  Stopping criterion = energy tolerance
  Energy initial, next-to-last, final = 
     -1152449.44696715  -1152449.44832295  -1152449.44832295
  Force two-norm initial, final = 0.16772763 0.00022910143
  Force max component initial, final = 0.088634821 5.3820322e-05
  Final line search alpha, max atom move = 1.0000000 5.3820322e-05
  Iterations, force evaluations = 171 342

MPI task timing breakdown:
Section |  min time  |  avg time  |  max time  |%varavg| %total
---------------------------------------------------------------
Pair    | 0.51724    | 1.4409     | 1.8801     |  32.6 | 70.86
Neigh   | 0          | 0          | 0          |   0.0 |  0.00
Comm    | 0.033405   | 0.32999    | 0.97443    |  46.8 | 16.23
Output  | 0          | 0          | 0          |   0.0 |  0.00
Modify  | 2.0688e-05 | 0.0028343  | 0.0060004  |   2.5 |  0.14
Other   |            | 0.2599     |            |       | 12.78

Nlocal:        2776.45 ave        3958 max           0 min
Histogram: 8 4 4 0 4 12 8 2 28 34
Nghost:        3879.01 ave        5424 max         232 min
Histogram: 8 0 8 0 16 0 8 8 16 40
Neighs:        79213.4 ave      115354 max           0 min
Histogram: 8 4 4 0 10 6 8 8 24 32

Total # of neighbors = 8238196
Ave neighs/atom = 28.530450
Neighbor list builds = 0
Dangerous builds = 0
unfix              hold

variable           new_x         delete
variable           new_y         delete
variable           new_z         delete
variable           dot           delete
variable           new_x         equal     ${x0}-${x_0}
variable           new_x         equal     1.7630545169302-${x_0}
variable           new_x         equal     1.7630545169302-1.73680889051111
variable           new_y         equal     ${y0}-${y_0}
variable           new_y         equal     -1.02815563189627-${y_0}
variable           new_y         equal     -1.02815563189627--1.01611299667649
variable           new_z         equal     ${z0}-${z_0}
variable           new_z         equal     -30.7242515289936-${z_0}
variable           new_z         equal     -30.7242515289936--30.7358299219733

variable           dot      equal     ${fx}*${new_x}+${fy}*${new_y}+${fz}*${new_z}
variable           dot      equal     9.47626268987606e-07*${new_x}+${fy}*${new_y}+${fz}*${new_z}
variable           dot      equal     9.47626268987606e-07*0.02624562641909+${fy}*${new_y}+${fz}*${new_z}
variable           dot      equal     9.47626268987606e-07*0.02624562641909+5.38203221002482e-05*${new_y}+${fz}*${new_z}
variable           dot      equal     9.47626268987606e-07*0.02624562641909+5.38203221002482e-05*-0.01204263521978+${fz}*${new_z}
variable           dot      equal     9.47626268987606e-07*0.02624562641909+5.38203221002482e-05*-0.01204263521978+4.86074979568135e-05*${new_z}
variable           dot      equal     9.47626268987606e-07*0.02624562641909+5.38203221002482e-05*-0.01204263521978+4.86074979568135e-05*0.0115783929796969
print              "The dot product: ${dot}"
The dot product: -6.04707483197872e-08

if "(${dot} >= 0.0) && (${dot} < 1.0e-10)" then "jump TaR.in relaxation" elif "(${dot} < 0.0) && (${dot} > -1.0e-10)" "jump TaR.in relaxation" elif "(${iteration} == ${iter_tot}) && (${seed} < 319)" "print 'The iteration number is maximum!'" "next seed" "variable iteration delete" "jump TaR.in loop" elif "(${iteration} == ${iter_tot}) && (${seed} == 319)" "quit" else    "next iteration"    "jump TaR.in iteration"
next iteration
jump TaR.in iteration
variable           norm          equal     sqrt(${new_x}^2+${new_y}^2+${new_z}^2)
variable           norm          equal     sqrt(0.02624562641909^2+${new_y}^2+${new_z}^2)
variable           norm          equal     sqrt(0.02624562641909^2+-0.01204263521978^2+${new_z}^2)
variable           norm          equal     sqrt(0.02624562641909^2+-0.01204263521978^2+0.0115783929796969^2)
variable           unit_x        equal     ${new_x}/${norm}
variable           unit_x        equal     0.02624562641909/${norm}
variable           unit_x        equal     0.02624562641909/0.0311113669445657
variable           unit_y        equal     ${new_y}/${norm}
variable           unit_y        equal     -0.01204263521978/${norm}
variable           unit_y        equal     -0.01204263521978/0.0311113669445657
variable           unit_z        equal     ${new_z}/${norm}
variable           unit_z        equal     0.0115783929796969/${norm}
variable           unit_z        equal     0.0115783929796969/0.0311113669445657
variable           x_new         equal     ${x0}+${delta}*${unit_x}
variable           x_new         equal     1.7630545169302+${delta}*${unit_x}
variable           x_new         equal     1.7630545169302+0.02*${unit_x}
variable           x_new         equal     1.7630545169302+0.02*0.843602483486325
variable           y_new         equal     ${y0}+${delta}*${unit_y}
variable           y_new         equal     -1.02815563189627+${delta}*${unit_y}
variable           y_new         equal     -1.02815563189627+0.02*${unit_y}
variable           y_new         equal     -1.02815563189627+0.02*-0.387081520437131
variable           z_new         equal     ${z0}+${delta}*${unit_z}
variable           z_new         equal     -30.7242515289936+${delta}*${unit_z}
variable           z_new         equal     -30.7242515289936+0.02*${unit_z}
variable           z_new         equal     -30.7242515289936+0.02*0.372159571140905

set                atom          $i    x  ${x_new}  y  ${y_new}  z   ${z_new}
set                atom          288751    x  ${x_new}  y  ${y_new}  z   ${z_new}
set                atom          288751    x  1.77992656659993  y  ${y_new}  z   ${z_new}
set                atom          288751    x  1.77992656659993  y  -1.03589726230501  z   ${z_new}
set                atom          288751    x  1.77992656659993  y  -1.03589726230501  z   -30.7168083375708
Setting atom values ...
  1 settings made for x
  1 settings made for y
  1 settings made for z

fix                hold    carbon   planeforce   ${new_x}  ${new_y}  ${new_z}
fix                hold    carbon   planeforce   0.02624562641909  ${new_y}  ${new_z}
fix                hold    carbon   planeforce   0.02624562641909  -0.01204263521978  ${new_z}
fix                hold    carbon   planeforce   0.02624562641909  -0.01204263521978  0.0115783929796969
min_style          cg
minimize           1.0e-30 1.0e-30 10000 10000
Per MPI rank memory allocation (min/avg/max) = 5.441 | 5.816 | 6.074 Mbytes
Step PotEng KinEng TotEng v_fx v_fy v_fz 
     515   -1152449.4            0   -1152449.4  0.010919155 -0.015730323  -0.04111232 
     718   -1152449.4            0   -1152449.4 -2.4760513e-06 -1.0220079e-05 -5.0172048e-06 
Loop time of 2.39925 on 104 procs for 203 steps with 288751 atoms

99.9% CPU use with 104 MPI tasks x 1 OpenMP threads

Minimization stats:
  Stopping criterion = energy tolerance
  Energy initial, next-to-last, final = 
     -1152449.44350429  -1152449.44483991  -1152449.44483991
  Force two-norm initial, final = 0.16525926 7.2376413e-05
  Force max component initial, final = 0.092693148 1.3971213e-05
  Final line search alpha, max atom move = 1.0000000 1.3971213e-05
  Iterations, force evaluations = 203 406

MPI task timing breakdown:
Section |  min time  |  avg time  |  max time  |%varavg| %total
---------------------------------------------------------------
Pair    | 0.6108     | 1.7136     | 2.226      |  35.5 | 71.42
Neigh   | 0          | 0          | 0          |   0.0 |  0.00
Comm    | 0.042998   | 0.38817    | 1.1511     |  51.4 | 16.18
Output  | 0          | 0          | 0          |   0.0 |  0.00
Modify  | 2.4676e-05 | 0.0033526  | 0.0071248  |   2.7 |  0.14
Other   |            | 0.2941     |            |       | 12.26

Nlocal:        2776.45 ave        3958 max           0 min
Histogram: 8 4 4 0 4 12 8 2 28 34
Nghost:        3879.01 ave        5424 max         232 min
Histogram: 8 0 8 0 16 0 8 8 16 40
Neighs:        79213.4 ave      115356 max           0 min
Histogram: 8 4 4 0 10 6 8 8 24 32

Total # of neighbors = 8238194
Ave neighs/atom = 28.530443
Neighbor list builds = 0
Dangerous builds = 0
unfix              hold

variable           new_x         delete
variable           new_y         delete
variable           new_z         delete
variable           dot           delete
variable           new_x         equal     ${x0}-${x_0}
variable           new_x         equal     1.78075174245032-${x_0}
variable           new_x         equal     1.78075174245032-1.73680889051111
variable           new_y         equal     ${y0}-${y_0}
variable           new_y         equal     -1.03609972162274-${y_0}
variable           new_y         equal     -1.03609972162274--1.01611299667649
variable           new_z         equal     ${z0}-${z_0}
variable           new_z         equal     -30.7188894036438-${z_0}
variable           new_z         equal     -30.7188894036438--30.7358299219733

variable           dot      equal     ${fx}*${new_x}+${fy}*${new_y}+${fz}*${new_z}
variable           dot      equal     -2.47605130176995e-06*${new_x}+${fy}*${new_y}+${fz}*${new_z}
variable           dot      equal     -2.47605130176995e-06*0.04394285193921+${fy}*${new_y}+${fz}*${new_z}
variable           dot      equal     -2.47605130176995e-06*0.04394285193921+-1.0220079235199e-05*${new_y}+${fz}*${new_z}
variable           dot      equal     -2.47605130176995e-06*0.04394285193921+-1.0220079235199e-05*-0.0199867249462502+${fz}*${new_z}
variable           dot      equal     -2.47605130176995e-06*0.04394285193921+-1.0220079235199e-05*-0.0199867249462502+-5.01720478718666e-06*${new_z}
variable           dot      equal     -2.47605130176995e-06*0.04394285193921+-1.0220079235199e-05*-0.0199867249462502+-5.01720478718666e-06*0.0169405183294984
print              "The dot product: ${dot}"
The dot product: 1.04671071950577e-08

if "(${dot} >= 0.0) && (${dot} < 1.0e-10)" then "jump TaR.in relaxation" elif "(${dot} < 0.0) && (${dot} > -1.0e-10)" "jump TaR.in relaxation" elif "(${iteration} == ${iter_tot}) && (${seed} < 319)" "print 'The iteration number is maximum!'" "next seed" "variable iteration delete" "jump TaR.in loop" elif "(${iteration} == ${iter_tot}) && (${seed} == 319)" "quit" else    "next iteration"    "jump TaR.in iteration"
next iteration
jump TaR.in iteration
variable           norm          equal     sqrt(${new_x}^2+${new_y}^2+${new_z}^2)
variable           norm          equal     sqrt(0.04394285193921^2+${new_y}^2+${new_z}^2)
variable           norm          equal     sqrt(0.04394285193921^2+-0.0199867249462502^2+${new_z}^2)
variable           norm          equal     sqrt(0.04394285193921^2+-0.0199867249462502^2+0.0169405183294984^2)
variable           unit_x        equal     ${new_x}/${norm}
variable           unit_x        equal     0.04394285193921/${norm}
variable           unit_x        equal     0.04394285193921/0.0511607718071225
variable           unit_y        equal     ${new_y}/${norm}
variable           unit_y        equal     -0.0199867249462502/${norm}
variable           unit_y        equal     -0.0199867249462502/0.0511607718071225
variable           unit_z        equal     ${new_z}/${norm}
variable           unit_z        equal     0.0169405183294984/${norm}
variable           unit_z        equal     0.0169405183294984/0.0511607718071225
variable           x_new         equal     ${x0}+${delta}*${unit_x}
variable           x_new         equal     1.78075174245032+${delta}*${unit_x}
variable           x_new         equal     1.78075174245032+0.02*${unit_x}
variable           x_new         equal     1.78075174245032+0.02*0.858916908151342
variable           y_new         equal     ${y0}+${delta}*${unit_y}
variable           y_new         equal     -1.03609972162274+${delta}*${unit_y}
variable           y_new         equal     -1.03609972162274+0.02*${unit_y}
variable           y_new         equal     -1.03609972162274+0.02*-0.39066503964406
variable           z_new         equal     ${z0}+${delta}*${unit_z}
variable           z_new         equal     -30.7188894036438+${delta}*${unit_z}
variable           z_new         equal     -30.7188894036438+0.02*${unit_z}
variable           z_new         equal     -30.7188894036438+0.02*0.33112319715122

set                atom          $i    x  ${x_new}  y  ${y_new}  z   ${z_new}
set                atom          288751    x  ${x_new}  y  ${y_new}  z   ${z_new}
set                atom          288751    x  1.79793008061335  y  ${y_new}  z   ${z_new}
set                atom          288751    x  1.79793008061335  y  -1.04391302241562  z   ${z_new}
set                atom          288751    x  1.79793008061335  y  -1.04391302241562  z   -30.7122669397008
Setting atom values ...
  1 settings made for x
  1 settings made for y
  1 settings made for z

fix                hold    carbon   planeforce   ${new_x}  ${new_y}  ${new_z}
fix                hold    carbon   planeforce   0.04394285193921  ${new_y}  ${new_z}
fix                hold    carbon   planeforce   0.04394285193921  -0.0199867249462502  ${new_z}
fix                hold    carbon   planeforce   0.04394285193921  -0.0199867249462502  0.0169405183294984
min_style          cg
minimize           1.0e-30 1.0e-30 10000 10000
Per MPI rank memory allocation (min/avg/max) = 5.441 | 5.816 | 6.074 Mbytes
Step PotEng KinEng TotEng v_fx v_fy v_fz 
     718   -1152449.4            0   -1152449.4  0.010989499 -0.013661055 -0.044623762 
     878   -1152449.4            0   -1152449.4 3.747372e-06 -2.6889802e-05 -4.1445561e-05 
Loop time of 1.88318 on 104 procs for 160 steps with 288751 atoms

99.9% CPU use with 104 MPI tasks x 1 OpenMP threads

Minimization stats:
  Stopping criterion = energy tolerance
  Energy initial, next-to-last, final = 
     -1152449.43837206  -1152449.43969003  -1152449.43969003
  Force two-norm initial, final = 0.16396885 0.00020923488
  Force max component initial, final = 0.096441859 4.7072430e-05
  Final line search alpha, max atom move = 1.0000000 4.7072430e-05
  Iterations, force evaluations = 160 320

MPI task timing breakdown:
Section |  min time  |  avg time  |  max time  |%varavg| %total
---------------------------------------------------------------
Pair    | 0.48394    | 1.3457     | 1.7527     |  31.4 | 71.46
Neigh   | 0          | 0          | 0          |   0.0 |  0.00
Comm    | 0.031742   | 0.30499    | 0.90668    |  45.6 | 16.20
Output  | 0          | 0          | 0          |   0.0 |  0.00
Modify  | 1.9102e-05 | 0.0026509  | 0.0056145  |   2.4 |  0.14
Other   |            | 0.2298     |            |       | 12.20

Nlocal:        2776.45 ave        3958 max           0 min
Histogram: 8 4 4 0 4 12 8 2 28 34
Nghost:        3879.01 ave        5424 max         232 min
Histogram: 8 0 8 0 16 0 8 8 16 40
Neighs:        79213.4 ave      115356 max           0 min
Histogram: 8 4 4 0 10 6 8 8 24 32

Total # of neighbors = 8238195
Ave neighs/atom = 28.530447
Neighbor list builds = 0
Dangerous builds = 0
unfix              hold

variable           new_x         delete
variable           new_y         delete
variable           new_z         delete
variable           dot           delete
variable           new_x         equal     ${x0}-${x_0}
variable           new_x         equal     1.79909730811414-${x_0}
variable           new_x         equal     1.79909730811414-1.73680889051111
variable           new_y         equal     ${y0}-${y_0}
variable           new_y         equal     -1.04417239826732-${y_0}
variable           new_y         equal     -1.04417239826732--1.01611299667649
variable           new_z         equal     ${z0}-${z_0}
variable           new_z         equal     -30.7156006853368-${z_0}
variable           new_z         equal     -30.7156006853368--30.7358299219733

variable           dot      equal     ${fx}*${new_x}+${fy}*${new_y}+${fz}*${new_z}
variable           dot      equal     3.74737203190602e-06*${new_x}+${fy}*${new_y}+${fz}*${new_z}
variable           dot      equal     3.74737203190602e-06*0.0622884176030298+${fy}*${new_y}+${fz}*${new_z}
variable           dot      equal     3.74737203190602e-06*0.0622884176030298+-2.68898016593818e-05*${new_y}+${fz}*${new_z}
variable           dot      equal     3.74737203190602e-06*0.0622884176030298+-2.68898016593818e-05*-0.02805940159083+${fz}*${new_z}
variable           dot      equal     3.74737203190602e-06*0.0622884176030298+-2.68898016593818e-05*-0.02805940159083+-4.14455608930638e-05*${new_z}
variable           dot      equal     3.74737203190602e-06*0.0622884176030298+-2.68898016593818e-05*-0.02805940159083+-4.14455608930638e-05*0.0202292366364993
print              "The dot product: ${dot}"
The dot product: 1.49517558657409e-07

if "(${dot} >= 0.0) && (${dot} < 1.0e-10)" then "jump TaR.in relaxation" elif "(${dot} < 0.0) && (${dot} > -1.0e-10)" "jump TaR.in relaxation" elif "(${iteration} == ${iter_tot}) && (${seed} < 319)" "print 'The iteration number is maximum!'" "next seed" "variable iteration delete" "jump TaR.in loop" elif "(${iteration} == ${iter_tot}) && (${seed} == 319)" "quit" else    "next iteration"    "jump TaR.in iteration"
next iteration
jump TaR.in iteration
variable           norm          equal     sqrt(${new_x}^2+${new_y}^2+${new_z}^2)
variable           norm          equal     sqrt(0.0622884176030298^2+${new_y}^2+${new_z}^2)
variable           norm          equal     sqrt(0.0622884176030298^2+-0.02805940159083^2+${new_z}^2)
variable           norm          equal     sqrt(0.0622884176030298^2+-0.02805940159083^2+0.0202292366364993^2)
variable           unit_x        equal     ${new_x}/${norm}
variable           unit_x        equal     0.0622884176030298/${norm}
variable           unit_x        equal     0.0622884176030298/0.0712488526224836
variable           unit_y        equal     ${new_y}/${norm}
variable           unit_y        equal     -0.02805940159083/${norm}
variable           unit_y        equal     -0.02805940159083/0.0712488526224836
variable           unit_z        equal     ${new_z}/${norm}
variable           unit_z        equal     0.0202292366364993/${norm}
variable           unit_z        equal     0.0202292366364993/0.0712488526224836
variable           x_new         equal     ${x0}+${delta}*${unit_x}
variable           x_new         equal     1.79909730811414+${delta}*${unit_x}
variable           x_new         equal     1.79909730811414+0.02*${unit_x}
variable           x_new         equal     1.79909730811414+0.02*0.874237483276661
variable           y_new         equal     ${y0}+${delta}*${unit_y}
variable           y_new         equal     -1.04417239826732+${delta}*${unit_y}
variable           y_new         equal     -1.04417239826732+0.02*${unit_y}
variable           y_new         equal     -1.04417239826732+0.02*-0.393822504616382
variable           z_new         equal     ${z0}+${delta}*${unit_z}
variable           z_new         equal     -30.7156006853368+${delta}*${unit_z}
variable           z_new         equal     -30.7156006853368+0.02*${unit_z}
variable           z_new         equal     -30.7156006853368+0.02*0.283923682865255

set                atom          $i    x  ${x_new}  y  ${y_new}  z   ${z_new}
set                atom          288751    x  ${x_new}  y  ${y_new}  z   ${z_new}
set                atom          288751    x  1.81658205777967  y  ${y_new}  z   ${z_new}
set                atom          288751    x  1.81658205777967  y  -1.05204884835965  z   ${z_new}
set                atom          288751    x  1.81658205777967  y  -1.05204884835965  z   -30.7099222116795
Setting atom values ...
  1 settings made for x
  1 settings made for y
  1 settings made for z

fix                hold    carbon   planeforce   ${new_x}  ${new_y}  ${new_z}
fix                hold    carbon   planeforce   0.0622884176030298  ${new_y}  ${new_z}
fix                hold    carbon   planeforce   0.0622884176030298  -0.02805940159083  ${new_z}
fix                hold    carbon   planeforce   0.0622884176030298  -0.02805940159083  0.0202292366364993
min_style          cg
minimize           1.0e-30 1.0e-30 10000 10000
Per MPI rank memory allocation (min/avg/max) = 5.441 | 5.816 | 6.074 Mbytes
Step PotEng KinEng TotEng v_fx v_fy v_fz 
     878   -1152449.4            0   -1152449.4   0.01324243 -0.0082549746 -0.052225385 
     985   -1152449.4            0   -1152449.4 -3.435616e-05 -6.0112487e-05 2.2406699e-05 
Loop time of 1.26377 on 104 procs for 107 steps with 288751 atoms

99.9% CPU use with 104 MPI tasks x 1 OpenMP threads

Minimization stats:
  Stopping criterion = energy tolerance
  Energy initial, next-to-last, final = 
     -1152449.43170144  -1152449.43304323  -1152449.43304323
  Force two-norm initial, final = 0.16428446 0.00024351974
  Force max component initial, final = 0.10024536 6.0112487e-05
  Final line search alpha, max atom move = 1.0000000 6.0112487e-05
  Iterations, force evaluations = 107 214

MPI task timing breakdown:
Section |  min time  |  avg time  |  max time  |%varavg| %total
---------------------------------------------------------------
Pair    | 0.32172    | 0.90421    | 1.1825     |  25.8 | 71.55
Neigh   | 0          | 0          | 0          |   0.0 |  0.00
Comm    | 0.019622   | 0.2037     | 0.60313    |  37.3 | 16.12
Output  | 0          | 0          | 0          |   0.0 |  0.00
Modify  | 1.2988e-05 | 0.0017726  | 0.0037706  |   2.0 |  0.14
Other   |            | 0.1541     |            |       | 12.19

Nlocal:        2776.45 ave        3957 max           0 min
Histogram: 8 4 4 0 4 12 8 2 28 34
Nghost:        3879.01 ave        5424 max         232 min
Histogram: 8 0 8 0 16 0 8 8 16 40
Neighs:        79213.4 ave      115317 max           0 min
Histogram: 8 4 4 0 10 6 8 8 24 32

Total # of neighbors = 8238195
Ave neighs/atom = 28.530447
Neighbor list builds = 0
Dangerous builds = 0
unfix              hold

variable           new_x         delete
variable           new_y         delete
variable           new_z         delete
variable           dot           delete
variable           new_x         equal     ${x0}-${x_0}
variable           new_x         equal     1.81881808119623-${x_0}
variable           new_x         equal     1.81881808119623-1.73680889051111
variable           new_y         equal     ${y0}-${y_0}
variable           new_y         equal     -1.05123387879752-${y_0}
variable           new_y         equal     -1.05123387879752--1.01611299667649
variable           new_z         equal     ${z0}-${z_0}
variable           new_z         equal     -30.7156767937334-${z_0}
variable           new_z         equal     -30.7156767937334--30.7358299219733

variable           dot      equal     ${fx}*${new_x}+${fy}*${new_y}+${fz}*${new_z}
variable           dot      equal     -3.43561597977555e-05*${new_x}+${fy}*${new_y}+${fz}*${new_z}
variable           dot      equal     -3.43561597977555e-05*0.0820091906851199+${fy}*${new_y}+${fz}*${new_z}
variable           dot      equal     -3.43561597977555e-05*0.0820091906851199+-6.01124870441531e-05*${new_y}+${fz}*${new_z}
variable           dot      equal     -3.43561597977555e-05*0.0820091906851199+-6.01124870441531e-05*-0.03512088212103+${fz}*${new_z}
variable           dot      equal     -3.43561597977555e-05*0.0820091906851199+-6.01124870441531e-05*-0.03512088212103+2.24066988916293e-05*${new_z}
variable           dot      equal     -3.43561597977555e-05*0.0820091906851199+-6.01124870441531e-05*-0.03512088212103+2.24066988916293e-05*0.0201531282398975
print              "The dot product: ${dot}"
The dot product: -2.54752212387163e-07

if "(${dot} >= 0.0) && (${dot} < 1.0e-10)" then "jump TaR.in relaxation" elif "(${dot} < 0.0) && (${dot} > -1.0e-10)" "jump TaR.in relaxation" elif "(${iteration} == ${iter_tot}) && (${seed} < 319)" "print 'The iteration number is maximum!'" "next seed" "variable iteration delete" "jump TaR.in loop" elif "(${iteration} == ${iter_tot}) && (${seed} == 319)" "quit" else    "next iteration"    "jump TaR.in iteration"
next iteration
jump TaR.in iteration
variable           norm          equal     sqrt(${new_x}^2+${new_y}^2+${new_z}^2)
variable           norm          equal     sqrt(0.0820091906851199^2+${new_y}^2+${new_z}^2)
variable           norm          equal     sqrt(0.0820091906851199^2+-0.03512088212103^2+${new_z}^2)
variable           norm          equal     sqrt(0.0820091906851199^2+-0.03512088212103^2+0.0201531282398975^2)
variable           unit_x        equal     ${new_x}/${norm}
variable           unit_x        equal     0.0820091906851199/${norm}
variable           unit_x        equal     0.0820091906851199/0.0914610971705533
variable           unit_y        equal     ${new_y}/${norm}
variable           unit_y        equal     -0.03512088212103/${norm}
variable           unit_y        equal     -0.03512088212103/0.0914610971705533
variable           unit_z        equal     ${new_z}/${norm}
variable           unit_z        equal     0.0201531282398975/${norm}
variable           unit_z        equal     0.0201531282398975/0.0914610971705533
variable           x_new         equal     ${x0}+${delta}*${unit_x}
variable           x_new         equal     1.81881808119623+${delta}*${unit_x}
variable           x_new         equal     1.81881808119623+0.02*${unit_x}
variable           x_new         equal     1.81881808119623+0.02*0.896656537283739
variable           y_new         equal     ${y0}+${delta}*${unit_y}
variable           y_new         equal     -1.05123387879752+${delta}*${unit_y}
variable           y_new         equal     -1.05123387879752+0.02*${unit_y}
variable           y_new         equal     -1.05123387879752+0.02*-0.383998040779435
variable           z_new         equal     ${z0}+${delta}*${unit_z}
variable           z_new         equal     -30.7156767937334+${delta}*${unit_z}
variable           z_new         equal     -30.7156767937334+0.02*${unit_z}
variable           z_new         equal     -30.7156767937334+0.02*0.2203464518069

set                atom          $i    x  ${x_new}  y  ${y_new}  z   ${z_new}
set                atom          288751    x  ${x_new}  y  ${y_new}  z   ${z_new}
set                atom          288751    x  1.8367512119419  y  ${y_new}  z   ${z_new}
set                atom          288751    x  1.8367512119419  y  -1.05891383961311  z   ${z_new}
set                atom          288751    x  1.8367512119419  y  -1.05891383961311  z   -30.7112698646973
Setting atom values ...
  1 settings made for x
  1 settings made for y
  1 settings made for z

fix                hold    carbon   planeforce   ${new_x}  ${new_y}  ${new_z}
fix                hold    carbon   planeforce   0.0820091906851199  ${new_y}  ${new_z}
fix                hold    carbon   planeforce   0.0820091906851199  -0.03512088212103  ${new_z}
fix                hold    carbon   planeforce   0.0820091906851199  -0.03512088212103  0.0201531282398975
min_style          cg
minimize           1.0e-30 1.0e-30 10000 10000
Per MPI rank memory allocation (min/avg/max) = 5.441 | 5.816 | 6.074 Mbytes
Step PotEng KinEng TotEng v_fx v_fy v_fz 
     985   -1152449.4            0   -1152449.4   0.01507114 0.0010988605 -0.059414055 
    1000   -1152449.4            0   -1152449.4 0.00015127487 0.00033023733 -4.0078313e-05 
    1103   -1152449.4            0   -1152449.4 -1.4226888e-05 -3.5552789e-05 -4.0643697e-06 
Loop time of 1.38032 on 104 procs for 118 steps with 288751 atoms

99.9% CPU use with 104 MPI tasks x 1 OpenMP threads

Minimization stats:
  Stopping criterion = energy tolerance
  Energy initial, next-to-last, final = 
     -1152449.42373305  -1152449.42513909  -1152449.42513909
  Force two-norm initial, final = 0.16503346 0.00014409339
  Force max component initial, final = 0.10387783 3.5552789e-05
  Final line search alpha, max atom move = 1.0000000 3.5552789e-05
  Iterations, force evaluations = 118 236

MPI task timing breakdown:
Section |  min time  |  avg time  |  max time  |%varavg| %total
---------------------------------------------------------------
Pair    | 0.35521    | 0.99071    | 1.2895     |  27.0 | 71.77
Neigh   | 0          | 0          | 0          |   0.0 |  0.00
Comm    | 0.022783   | 0.22474    | 0.67015    |  39.2 | 16.28
Output  | 0.00015043 | 0.00015755 | 0.00022937 |   0.0 |  0.01
Modify  | 1.4369e-05 | 0.0019575  | 0.004153   |   2.1 |  0.14
Other   |            | 0.1628     |            |       | 11.79

Nlocal:        2776.45 ave        3957 max           0 min
Histogram: 8 4 4 0 4 12 8 2 28 34
Nghost:        3879.01 ave        5424 max         232 min
Histogram: 8 0 8 0 16 0 8 8 16 40
Neighs:        79213.4 ave      115325 max           0 min
Histogram: 8 4 4 0 10 6 8 8 24 32

Total # of neighbors = 8238194
Ave neighs/atom = 28.530443
Neighbor list builds = 0
Dangerous builds = 0
unfix              hold

variable           new_x         delete
variable           new_y         delete
variable           new_z         delete
variable           dot           delete
variable           new_x         equal     ${x0}-${x_0}
variable           new_x         equal     1.83994086705258-${x_0}
variable           new_x         equal     1.83994086705258-1.73680889051111
variable           new_y         equal     ${y0}-${y_0}
variable           new_y         equal     -1.05599994306626-${y_0}
variable           new_y         equal     -1.05599994306626--1.01611299667649
variable           new_z         equal     ${z0}-${z_0}
variable           new_z         equal     -30.7191714874708-${z_0}
variable           new_z         equal     -30.7191714874708--30.7358299219733

variable           dot      equal     ${fx}*${new_x}+${fy}*${new_y}+${fz}*${new_z}
variable           dot      equal     -1.42268879054981e-05*${new_x}+${fy}*${new_y}+${fz}*${new_z}
variable           dot      equal     -1.42268879054981e-05*0.10313197654147+${fy}*${new_y}+${fz}*${new_z}
variable           dot      equal     -1.42268879054981e-05*0.10313197654147+-3.5552789444006e-05*${new_y}+${fz}*${new_z}
variable           dot      equal     -1.42268879054981e-05*0.10313197654147+-3.5552789444006e-05*-0.0398869463897702+${fz}*${new_z}
variable           dot      equal     -1.42268879054981e-05*0.10313197654147+-3.5552789444006e-05*-0.0398869463897702+-4.06436971308085e-06*${new_z}
variable           dot      equal     -1.42268879054981e-05*0.10313197654147+-3.5552789444006e-05*-0.0398869463897702+-4.06436971308085e-06*0.0166584345024994
print              "The dot product: ${dot}"
The dot product: -1.16860899827398e-07

if "(${dot} >= 0.0) && (${dot} < 1.0e-10)" then "jump TaR.in relaxation" elif "(${dot} < 0.0) && (${dot} > -1.0e-10)" "jump TaR.in relaxation" elif "(${iteration} == ${iter_tot}) && (${seed} < 319)" "print 'The iteration number is maximum!'" "next seed" "variable iteration delete" "jump TaR.in loop" elif "(${iteration} == ${iter_tot}) && (${seed} == 319)" "quit" else    "next iteration"    "jump TaR.in iteration"
next iteration
jump TaR.in iteration
variable           norm          equal     sqrt(${new_x}^2+${new_y}^2+${new_z}^2)
variable           norm          equal     sqrt(0.10313197654147^2+${new_y}^2+${new_z}^2)
variable           norm          equal     sqrt(0.10313197654147^2+-0.0398869463897702^2+${new_z}^2)
variable           norm          equal     sqrt(0.10313197654147^2+-0.0398869463897702^2+0.0166584345024994^2)
variable           unit_x        equal     ${new_x}/${norm}
variable           unit_x        equal     0.10313197654147/${norm}
variable           unit_x        equal     0.10313197654147/0.11182431094232
variable           unit_y        equal     ${new_y}/${norm}
variable           unit_y        equal     -0.0398869463897702/${norm}
variable           unit_y        equal     -0.0398869463897702/0.11182431094232
variable           unit_z        equal     ${new_z}/${norm}
variable           unit_z        equal     0.0166584345024994/${norm}
variable           unit_z        equal     0.0166584345024994/0.11182431094232
variable           x_new         equal     ${x0}+${delta}*${unit_x}
variable           x_new         equal     1.83994086705258+${delta}*${unit_x}
variable           x_new         equal     1.83994086705258+0.02*${unit_x}
variable           x_new         equal     1.83994086705258+0.02*0.922267936841269
variable           y_new         equal     ${y0}+${delta}*${unit_y}
variable           y_new         equal     -1.05599994306626+${delta}*${unit_y}
variable           y_new         equal     -1.05599994306626+0.02*${unit_y}
variable           y_new         equal     -1.05599994306626+0.02*-0.356692977167946
variable           z_new         equal     ${z0}+${delta}*${unit_z}
variable           z_new         equal     -30.7191714874708+${delta}*${unit_z}
variable           z_new         equal     -30.7191714874708+0.02*${unit_z}
variable           z_new         equal     -30.7191714874708+0.02*0.148969704012681

set                atom          $i    x  ${x_new}  y  ${y_new}  z   ${z_new}
set                atom          288751    x  ${x_new}  y  ${y_new}  z   ${z_new}
set                atom          288751    x  1.85838622578941  y  ${y_new}  z   ${z_new}
set                atom          288751    x  1.85838622578941  y  -1.06313380260962  z   ${z_new}
set                atom          288751    x  1.85838622578941  y  -1.06313380260962  z   -30.7161920933905
Setting atom values ...
  1 settings made for x
  1 settings made for y
  1 settings made for z

fix                hold    carbon   planeforce   ${new_x}  ${new_y}  ${new_z}
fix                hold    carbon   planeforce   0.10313197654147  ${new_y}  ${new_z}
fix                hold    carbon   planeforce   0.10313197654147  -0.0398869463897702  ${new_z}
fix                hold    carbon   planeforce   0.10313197654147  -0.0398869463897702  0.0166584345024994
min_style          cg
minimize           1.0e-30 1.0e-30 10000 10000
Per MPI rank memory allocation (min/avg/max) = 5.441 | 5.816 | 6.074 Mbytes
Step PotEng KinEng TotEng v_fx v_fy v_fz 
    1103   -1152449.4            0   -1152449.4  0.013505856 0.0090703767 -0.061896332 
    1290   -1152449.4            0   -1152449.4 -1.8328043e-06 -3.292298e-06 3.4637721e-06 
Loop time of 2.18463 on 104 procs for 187 steps with 288751 atoms

99.9% CPU use with 104 MPI tasks x 1 OpenMP threads

Minimization stats:
  Stopping criterion = energy tolerance
  Energy initial, next-to-last, final = 
     -1152449.41460838  -1152449.41605148  -1152449.41605148
  Force two-norm initial, final = 0.1646593 7.3258218e-05
  Force max component initial, final = 0.1065562 4.8776560e-06
  Final line search alpha, max atom move = 1.0000000 4.8776560e-06
  Iterations, force evaluations = 187 374

MPI task timing breakdown:
Section |  min time  |  avg time  |  max time  |%varavg| %total
---------------------------------------------------------------
Pair    | 0.56183    | 1.5739     | 2.0533     |  33.9 | 72.05
Neigh   | 0          | 0          | 0          |   0.0 |  0.00
Comm    | 0.03358    | 0.3525     | 1.0518     |  49.9 | 16.14
Output  | 0          | 0          | 0          |   0.0 |  0.00
Modify  | 2.3399e-05 | 0.0030946  | 0.0066083  |   2.6 |  0.14
Other   |            | 0.2551     |            |       | 11.68

Nlocal:        2776.45 ave        3957 max           0 min
Histogram: 8 4 4 0 4 12 8 2 28 34
Nghost:        3879.01 ave        5424 max         232 min
Histogram: 8 0 8 0 16 0 8 8 16 40
Neighs:        79213.4 ave      115325 max           0 min
Histogram: 8 4 4 0 10 6 8 8 24 32

Total # of neighbors = 8238194
Ave neighs/atom = 28.530443
Neighbor list builds = 0
Dangerous builds = 0
unfix              hold

variable           new_x         delete
variable           new_y         delete
variable           new_z         delete
variable           dot           delete
variable           new_x         equal     ${x0}-${x_0}
variable           new_x         equal     1.8615710516152-${x_0}
variable           new_x         equal     1.8615710516152-1.73680889051111
variable           new_y         equal     ${y0}-${y_0}
variable           new_y         equal     -1.05862034792477-${y_0}
variable           new_y         equal     -1.05862034792477--1.01611299667649
variable           new_z         equal     ${z0}-${z_0}
variable           new_z         equal     -30.7251022618269-${z_0}
variable           new_z         equal     -30.7251022618269--30.7358299219733

variable           dot      equal     ${fx}*${new_x}+${fy}*${new_y}+${fz}*${new_z}
variable           dot      equal     -1.8328043456864e-06*${new_x}+${fy}*${new_y}+${fz}*${new_z}
variable           dot      equal     -1.8328043456864e-06*0.12476216110409+${fy}*${new_y}+${fz}*${new_z}
variable           dot      equal     -1.8328043456864e-06*0.12476216110409+-3.29229802147921e-06*${new_y}+${fz}*${new_z}
variable           dot      equal     -1.8328043456864e-06*0.12476216110409+-3.29229802147921e-06*-0.0425073512482801+${fz}*${new_z}
variable           dot      equal     -1.8328043456864e-06*0.12476216110409+-3.29229802147921e-06*-0.0425073512482801+3.46377206687496e-06*${new_z}
variable           dot      equal     -1.8328043456864e-06*0.12476216110409+-3.29229802147921e-06*-0.0425073512482801+3.46377206687496e-06*0.0107276601463973
print              "The dot product: ${dot}"
The dot product: -5.15595930777498e-08

if "(${dot} >= 0.0) && (${dot} < 1.0e-10)" then "jump TaR.in relaxation" elif "(${dot} < 0.0) && (${dot} > -1.0e-10)" "jump TaR.in relaxation" elif "(${iteration} == ${iter_tot}) && (${seed} < 319)" "print 'The iteration number is maximum!'" "next seed" "variable iteration delete" "jump TaR.in loop" elif "(${iteration} == ${iter_tot}) && (${seed} == 319)" "quit" else    "next iteration"    "jump TaR.in iteration"
next iteration
jump TaR.in iteration
variable           norm          equal     sqrt(${new_x}^2+${new_y}^2+${new_z}^2)
variable           norm          equal     sqrt(0.12476216110409^2+${new_y}^2+${new_z}^2)
variable           norm          equal     sqrt(0.12476216110409^2+-0.0425073512482801^2+${new_z}^2)
variable           norm          equal     sqrt(0.12476216110409^2+-0.0425073512482801^2+0.0107276601463973^2)
variable           unit_x        equal     ${new_x}/${norm}
variable           unit_x        equal     0.12476216110409/${norm}
variable           unit_x        equal     0.12476216110409/0.13224051741325
variable           unit_y        equal     ${new_y}/${norm}
variable           unit_y        equal     -0.0425073512482801/${norm}
variable           unit_y        equal     -0.0425073512482801/0.13224051741325
variable           unit_z        equal     ${new_z}/${norm}
variable           unit_z        equal     0.0107276601463973/${norm}
variable           unit_z        equal     0.0107276601463973/0.13224051741325
variable           x_new         equal     ${x0}+${delta}*${unit_x}
variable           x_new         equal     1.8615710516152+${delta}*${unit_x}
variable           x_new         equal     1.8615710516152+0.02*${unit_x}
variable           x_new         equal     1.8615710516152+0.02*0.943448827519404
variable           y_new         equal     ${y0}+${delta}*${unit_y}
variable           y_new         equal     -1.05862034792477+${delta}*${unit_y}
variable           y_new         equal     -1.05862034792477+0.02*${unit_y}
variable           y_new         equal     -1.05862034792477+0.02*-0.321439692461616
variable           z_new         equal     ${z0}+${delta}*${unit_z}
variable           z_new         equal     -30.7251022618269+${delta}*${unit_z}
variable           z_new         equal     -30.7251022618269+0.02*${unit_z}
variable           z_new         equal     -30.7251022618269+0.02*0.0811223394784028

set                atom          $i    x  ${x_new}  y  ${y_new}  z   ${z_new}
set                atom          288751    x  ${x_new}  y  ${y_new}  z   ${z_new}
set                atom          288751    x  1.88044002816559  y  ${y_new}  z   ${z_new}
set                atom          288751    x  1.88044002816559  y  -1.065049141774  z   ${z_new}
set                atom          288751    x  1.88044002816559  y  -1.065049141774  z   -30.7234798150373
Setting atom values ...
  1 settings made for x
  1 settings made for y
  1 settings made for z

fix                hold    carbon   planeforce   ${new_x}  ${new_y}  ${new_z}
fix                hold    carbon   planeforce   0.12476216110409  ${new_y}  ${new_z}
fix                hold    carbon   planeforce   0.12476216110409  -0.0425073512482801  ${new_z}
fix                hold    carbon   planeforce   0.12476216110409  -0.0425073512482801  0.0107276601463973
min_style          cg
minimize           1.0e-30 1.0e-30 10000 10000
Per MPI rank memory allocation (min/avg/max) = 5.441 | 5.816 | 6.074 Mbytes
Step PotEng KinEng TotEng v_fx v_fy v_fz 
    1290   -1152449.4            0   -1152449.4 0.0096026419  0.013148346 -0.059579163 
    1469   -1152449.4            0   -1152449.4 -4.3453235e-06 -1.5086004e-05 -9.2409832e-06 
Loop time of 2.10311 on 104 procs for 179 steps with 288751 atoms

99.9% CPU use with 104 MPI tasks x 1 OpenMP threads

Minimization stats:
  Stopping criterion = energy tolerance
  Energy initial, next-to-last, final = 
     -1152449.40430873  -1152449.40573856  -1152449.40573856
  Force two-norm initial, final = 0.1630989 0.00012563625
  Force max component initial, final = 0.10804113 2.5924208e-05
  Final line search alpha, max atom move = 1.0000000 2.5924208e-05
  Iterations, force evaluations = 179 358

MPI task timing breakdown:
Section |  min time  |  avg time  |  max time  |%varavg| %total
---------------------------------------------------------------
Pair    | 0.54221    | 1.5056     | 1.956      |  33.1 | 71.59
Neigh   | 0          | 0          | 0          |   0.0 |  0.00
Comm    | 0.035294   | 0.34261    | 1.0268     |  48.5 | 16.29
Output  | 0          | 0          | 0          |   0.0 |  0.00
Modify  | 2.1354e-05 | 0.0029606  | 0.0062688  |   2.6 |  0.14
Other   |            | 0.2519     |            |       | 11.98

Nlocal:        2776.45 ave        3957 max           0 min
Histogram: 8 4 4 0 4 12 8 2 28 34
Nghost:        3879.01 ave        5424 max         232 min
Histogram: 8 0 8 0 16 0 8 8 16 40
Neighs:        79213.4 ave      115317 max           0 min
Histogram: 8 4 4 0 10 6 8 8 24 32

Total # of neighbors = 8238196
Ave neighs/atom = 28.530450
Neighbor list builds = 0
Dangerous builds = 0
unfix              hold

variable           new_x         delete
variable           new_y         delete
variable           new_z         delete
variable           dot           delete
variable           new_x         equal     ${x0}-${x_0}
variable           new_x         equal     1.88300396007379-${x_0}
variable           new_x         equal     1.88300396007379-1.73680889051111
variable           new_y         equal     ${y0}-${y_0}
variable           new_y         equal     -1.0597502518227-${y_0}
variable           new_y         equal     -1.0597502518227--1.01611299667649
variable           new_z         equal     ${z0}-${z_0}
variable           new_z         equal     -30.7323018608624-${z_0}
variable           new_z         equal     -30.7323018608624--30.7358299219733

variable           dot      equal     ${fx}*${new_x}+${fy}*${new_y}+${fz}*${new_z}
variable           dot      equal     -4.34532348582525e-06*${new_x}+${fy}*${new_y}+${fz}*${new_z}
variable           dot      equal     -4.34532348582525e-06*0.14619506956268+${fy}*${new_y}+${fz}*${new_z}
variable           dot      equal     -4.34532348582525e-06*0.14619506956268+-1.50860041072466e-05*${new_y}+${fz}*${new_z}
variable           dot      equal     -4.34532348582525e-06*0.14619506956268+-1.50860041072466e-05*-0.0436372551462101+${fz}*${new_z}
variable           dot      equal     -4.34532348582525e-06*0.14619506956268+-1.50860041072466e-05*-0.0436372551462101+-9.2409831576124e-06*${new_z}
variable           dot      equal     -4.34532348582525e-06*0.14619506956268+-1.50860041072466e-05*-0.0436372551462101+-9.2409831576124e-06*0.00352806111089876
print              "The dot product: ${dot}"
The dot product: -9.55581222271891e-09

if "(${dot} >= 0.0) && (${dot} < 1.0e-10)" then "jump TaR.in relaxation" elif "(${dot} < 0.0) && (${dot} > -1.0e-10)" "jump TaR.in relaxation" elif "(${iteration} == ${iter_tot}) && (${seed} < 319)" "print 'The iteration number is maximum!'" "next seed" "variable iteration delete" "jump TaR.in loop" elif "(${iteration} == ${iter_tot}) && (${seed} == 319)" "quit" else    "next iteration"    "jump TaR.in iteration"
next iteration
jump TaR.in iteration
variable           norm          equal     sqrt(${new_x}^2+${new_y}^2+${new_z}^2)
variable           norm          equal     sqrt(0.14619506956268^2+${new_y}^2+${new_z}^2)
variable           norm          equal     sqrt(0.14619506956268^2+-0.0436372551462101^2+${new_z}^2)
variable           norm          equal     sqrt(0.14619506956268^2+-0.0436372551462101^2+0.00352806111089876^2)
variable           unit_x        equal     ${new_x}/${norm}
variable           unit_x        equal     0.14619506956268/${norm}
variable           unit_x        equal     0.14619506956268/0.152609487307751
variable           unit_y        equal     ${new_y}/${norm}
variable           unit_y        equal     -0.0436372551462101/${norm}
variable           unit_y        equal     -0.0436372551462101/0.152609487307751
variable           unit_z        equal     ${new_z}/${norm}
variable           unit_z        equal     0.00352806111089876/${norm}
variable           unit_z        equal     0.00352806111089876/0.152609487307751
variable           x_new         equal     ${x0}+${delta}*${unit_x}
variable           x_new         equal     1.88300396007379+${delta}*${unit_x}
variable           x_new         equal     1.88300396007379+0.02*${unit_x}
variable           x_new         equal     1.88300396007379+0.02*0.957968420848333
variable           y_new         equal     ${y0}+${delta}*${unit_y}
variable           y_new         equal     -1.0597502518227+${delta}*${unit_y}
variable           y_new         equal     -1.0597502518227+0.02*${unit_y}
variable           y_new         equal     -1.0597502518227+0.02*-0.285940644425412
variable           z_new         equal     ${z0}+${delta}*${unit_z}
variable           z_new         equal     -30.7323018608624+${delta}*${unit_z}
variable           z_new         equal     -30.7323018608624+0.02*${unit_z}
variable           z_new         equal     -30.7323018608624+0.02*0.0231182292342291

set                atom          $i    x  ${x_new}  y  ${y_new}  z   ${z_new}
set                atom          288751    x  ${x_new}  y  ${y_new}  z   ${z_new}
set                atom          288751    x  1.90216332849076  y  ${y_new}  z   ${z_new}
set                atom          288751    x  1.90216332849076  y  -1.06546906471121  z   ${z_new}
set                atom          288751    x  1.90216332849076  y  -1.06546906471121  z   -30.7318394962777
Setting atom values ...
  1 settings made for x
  1 settings made for y
  1 settings made for z

fix                hold    carbon   planeforce   ${new_x}  ${new_y}  ${new_z}
fix                hold    carbon   planeforce   0.14619506956268  ${new_y}  ${new_z}
fix                hold    carbon   planeforce   0.14619506956268  -0.0436372551462101  ${new_z}
fix                hold    carbon   planeforce   0.14619506956268  -0.0436372551462101  0.00352806111089876
min_style          cg
minimize           1.0e-30 1.0e-30 10000 10000
Per MPI rank memory allocation (min/avg/max) = 5.441 | 5.816 | 6.074 Mbytes
Step PotEng KinEng TotEng v_fx v_fy v_fz 
    1469   -1152449.4            0   -1152449.4 0.0052534632  0.013246535 -0.053850533 
    1685   -1152449.4            0   -1152449.4 -1.6695471e-06 -6.3684093e-06 -9.5860993e-06 
Loop time of 2.52773 on 104 procs for 216 steps with 288751 atoms

99.9% CPU use with 104 MPI tasks x 1 OpenMP threads

Minimization stats:
  Stopping criterion = energy tolerance
  Energy initial, next-to-last, final = 
     -1152449.39275338  -1152449.39413194  -1152449.39413194
  Force two-norm initial, final = 0.16083784 3.6877133e-05
  Force max component initial, final = 0.10855994 9.5860993e-06
  Final line search alpha, max atom move = 1.0000000 9.5860993e-06
  Iterations, force evaluations = 216 432

MPI task timing breakdown:
Section |  min time  |  avg time  |  max time  |%varavg| %total
---------------------------------------------------------------
Pair    | 0.64792    | 1.8197     | 2.364      |  36.4 | 71.99
Neigh   | 0          | 0          | 0          |   0.0 |  0.00
Comm    | 0.039221   | 0.40686    | 1.2163     |  53.7 | 16.10
Output  | 0          | 0          | 0          |   0.0 |  0.00
Modify  | 2.59e-05   | 0.0035732  | 0.007582   |   2.8 |  0.14
Other   |            | 0.2976     |            |       | 11.77

Nlocal:        2776.45 ave        3957 max           0 min
Histogram: 8 4 4 0 4 12 8 2 28 34
Nghost:        3879.01 ave        5424 max         232 min
Histogram: 8 0 8 0 16 0 8 8 16 40
Neighs:        79213.4 ave      115318 max           0 min
Histogram: 8 4 4 0 10 6 8 8 24 32

Total # of neighbors = 8238197
Ave neighs/atom = 28.530454
Neighbor list builds = 0
Dangerous builds = 0
unfix              hold

variable           new_x         delete
variable           new_y         delete
variable           new_z         delete
variable           dot           delete
variable           new_x         equal     ${x0}-${x_0}
variable           new_x         equal     1.90393295494865-${x_0}
variable           new_x         equal     1.90393295494865-1.73680889051111
variable           new_y         equal     ${y0}-${y_0}
variable           new_y         equal     -1.06019020569042-${y_0}
variable           new_y         equal     -1.06019020569042--1.01611299667649
variable           new_z         equal     ${z0}-${z_0}
variable           new_z         equal     -30.7398766997893-${z_0}
variable           new_z         equal     -30.7398766997893--30.7358299219733

variable           dot      equal     ${fx}*${new_x}+${fy}*${new_y}+${fz}*${new_z}
variable           dot      equal     -1.66954711508758e-06*${new_x}+${fy}*${new_y}+${fz}*${new_z}
variable           dot      equal     -1.66954711508758e-06*0.16712406443754+${fy}*${new_y}+${fz}*${new_z}
variable           dot      equal     -1.66954711508758e-06*0.16712406443754+-6.36840928187411e-06*${new_y}+${fz}*${new_z}
variable           dot      equal     -1.66954711508758e-06*0.16712406443754+-6.36840928187411e-06*-0.0440772090139301+${fz}*${new_z}
variable           dot      equal     -1.66954711508758e-06*0.16712406443754+-6.36840928187411e-06*-0.0440772090139301+-9.58609928790276e-06*${new_z}
variable           dot      equal     -1.66954711508758e-06*0.16712406443754+-6.36840928187411e-06*-0.0440772090139301+-9.58609928790276e-06*-0.00404677781600071
print              "The dot product: ${dot}"
The dot product: 4.0473021300277e-08

if "(${dot} >= 0.0) && (${dot} < 1.0e-10)" then "jump TaR.in relaxation" elif "(${dot} < 0.0) && (${dot} > -1.0e-10)" "jump TaR.in relaxation" elif "(${iteration} == ${iter_tot}) && (${seed} < 319)" "print 'The iteration number is maximum!'" "next seed" "variable iteration delete" "jump TaR.in loop" elif "(${iteration} == ${iter_tot}) && (${seed} == 319)" "quit" else    "next iteration"    "jump TaR.in iteration"
next iteration
jump TaR.in iteration
variable           norm          equal     sqrt(${new_x}^2+${new_y}^2+${new_z}^2)
variable           norm          equal     sqrt(0.16712406443754^2+${new_y}^2+${new_z}^2)
variable           norm          equal     sqrt(0.16712406443754^2+-0.0440772090139301^2+${new_z}^2)
variable           norm          equal     sqrt(0.16712406443754^2+-0.0440772090139301^2+-0.00404677781600071^2)
variable           unit_x        equal     ${new_x}/${norm}
variable           unit_x        equal     0.16712406443754/${norm}
variable           unit_x        equal     0.16712406443754/0.17288617550074
variable           unit_y        equal     ${new_y}/${norm}
variable           unit_y        equal     -0.0440772090139301/${norm}
variable           unit_y        equal     -0.0440772090139301/0.17288617550074
variable           unit_z        equal     ${new_z}/${norm}
variable           unit_z        equal     -0.00404677781600071/${norm}
variable           unit_z        equal     -0.00404677781600071/0.17288617550074
variable           x_new         equal     ${x0}+${delta}*${unit_x}
variable           x_new         equal     1.90393295494865+${delta}*${unit_x}
variable           x_new         equal     1.90393295494865+0.02*${unit_x}
variable           x_new         equal     1.90393295494865+0.02*0.966671071029763
variable           y_new         equal     ${y0}+${delta}*${unit_y}
variable           y_new         equal     -1.06019020569042+${delta}*${unit_y}
variable           y_new         equal     -1.06019020569042+0.02*${unit_y}
variable           y_new         equal     -1.06019020569042+0.02*-0.25494929763046
variable           z_new         equal     ${z0}+${delta}*${unit_z}
variable           z_new         equal     -30.7398766997893+${delta}*${unit_z}
variable           z_new         equal     -30.7398766997893+0.02*${unit_z}
variable           z_new         equal     -30.7398766997893+0.02*-0.0234071799221644

set                atom          $i    x  ${x_new}  y  ${y_new}  z   ${z_new}
set                atom          288751    x  ${x_new}  y  ${y_new}  z   ${z_new}
set                atom          288751    x  1.92326637636925  y  ${y_new}  z   ${z_new}
set                atom          288751    x  1.92326637636925  y  -1.06528919164303  z   ${z_new}
set                atom          288751    x  1.92326637636925  y  -1.06528919164303  z   -30.7403448433877
Setting atom values ...
  1 settings made for x
  1 settings made for y
  1 settings made for z

fix                hold    carbon   planeforce   ${new_x}  ${new_y}  ${new_z}
fix                hold    carbon   planeforce   0.16712406443754  ${new_y}  ${new_z}
fix                hold    carbon   planeforce   0.16712406443754  -0.0440772090139301  ${new_z}
fix                hold    carbon   planeforce   0.16712406443754  -0.0440772090139301  -0.00404677781600071
min_style          cg
minimize           1.0e-30 1.0e-30 10000 10000
Per MPI rank memory allocation (min/avg/max) = 5.441 | 5.816 | 6.074 Mbytes
Step PotEng KinEng TotEng v_fx v_fy v_fz 
    1685   -1152449.4            0   -1152449.4 0.0016473913  0.010533554 -0.046696643 
    1855   -1152449.4            0   -1152449.4 2.5985552e-06 1.4395861e-05 -4.9483382e-05 
Loop time of 1.98516 on 104 procs for 170 steps with 288751 atoms

99.9% CPU use with 104 MPI tasks x 1 OpenMP threads

Minimization stats:
  Stopping criterion = energy tolerance
  Energy initial, next-to-last, final = 
     -1152449.37985859  -1152449.38117262  -1152449.38117262
  Force two-norm initial, final = 0.15867321 0.00019421613
  Force max component initial, final = 0.10854832 4.9483382e-05
  Final line search alpha, max atom move = 1.0000000 4.9483382e-05
  Iterations, force evaluations = 170 340

MPI task timing breakdown:
Section |  min time  |  avg time  |  max time  |%varavg| %total
---------------------------------------------------------------
Pair    | 0.51239    | 1.4324     | 1.8654     |  32.4 | 72.16
Neigh   | 0          | 0          | 0          |   0.0 |  0.00
Comm    | 0.033702   | 0.32305    | 0.97264    |  47.6 | 16.27
Output  | 0          | 0          | 0          |   0.0 |  0.00
Modify  | 2.1217e-05 | 0.0028218  | 0.0060051  |   2.5 |  0.14
Other   |            | 0.2269     |            |       | 11.43

Nlocal:        2776.45 ave        3957 max           0 min
Histogram: 8 4 4 0 4 12 8 3 27 34
Nghost:        3879.01 ave        5424 max         232 min
Histogram: 8 0 8 0 16 0 8 8 16 40
Neighs:        79213.4 ave      115318 max           0 min
Histogram: 8 4 4 0 10 6 8 8 24 32

Total # of neighbors = 8238193
Ave neighs/atom = 28.530440
Neighbor list builds = 0
Dangerous builds = 0
unfix              hold

variable           new_x         delete
variable           new_y         delete
variable           new_z         delete
variable           dot           delete
variable           new_x         equal     ${x0}-${x_0}
variable           new_x         equal     1.92434018246327-${x_0}
variable           new_x         equal     1.92434018246327-1.73680889051111
variable           new_y         equal     ${y0}-${y_0}
variable           new_y         equal     -1.06058005494515-${y_0}
variable           new_y         equal     -1.06058005494515--1.01611299667649
variable           new_z         equal     ${z0}-${z_0}
variable           new_z         equal     -30.7472903108522-${z_0}
variable           new_z         equal     -30.7472903108522--30.7358299219733

variable           dot      equal     ${fx}*${new_x}+${fy}*${new_y}+${fz}*${new_z}
variable           dot      equal     2.59855518707863e-06*${new_x}+${fy}*${new_y}+${fz}*${new_z}
variable           dot      equal     2.59855518707863e-06*0.18753129195216+${fy}*${new_y}+${fz}*${new_z}
variable           dot      equal     2.59855518707863e-06*0.18753129195216+1.43958606498811e-05*${new_y}+${fz}*${new_z}
variable           dot      equal     2.59855518707863e-06*0.18753129195216+1.43958606498811e-05*-0.0444670582686602+${fz}*${new_z}
variable           dot      equal     2.59855518707863e-06*0.18753129195216+1.43958606498811e-05*-0.0444670582686602+-4.94833824259883e-05*${new_z}
variable           dot      equal     2.59855518707863e-06*0.18753129195216+1.43958606498811e-05*-0.0444670582686602+-4.94833824259883e-05*-0.011460388878902
print              "The dot product: ${dot}"
The dot product: 4.14267642741318e-07

if "(${dot} >= 0.0) && (${dot} < 1.0e-10)" then "jump TaR.in relaxation" elif "(${dot} < 0.0) && (${dot} > -1.0e-10)" "jump TaR.in relaxation" elif "(${iteration} == ${iter_tot}) && (${seed} < 319)" "print 'The iteration number is maximum!'" "next seed" "variable iteration delete" "jump TaR.in loop" elif "(${iteration} == ${iter_tot}) && (${seed} == 319)" "quit" else    "next iteration"    "jump TaR.in iteration"
next iteration
jump TaR.in iteration
variable           norm          equal     sqrt(${new_x}^2+${new_y}^2+${new_z}^2)
variable           norm          equal     sqrt(0.18753129195216^2+${new_y}^2+${new_z}^2)
variable           norm          equal     sqrt(0.18753129195216^2+-0.0444670582686602^2+${new_z}^2)
variable           norm          equal     sqrt(0.18753129195216^2+-0.0444670582686602^2+-0.011460388878902^2)
variable           unit_x        equal     ${new_x}/${norm}
variable           unit_x        equal     0.18753129195216/${norm}
variable           unit_x        equal     0.18753129195216/0.193071606523513
variable           unit_y        equal     ${new_y}/${norm}
variable           unit_y        equal     -0.0444670582686602/${norm}
variable           unit_y        equal     -0.0444670582686602/0.193071606523513
variable           unit_z        equal     ${new_z}/${norm}
variable           unit_z        equal     -0.011460388878902/${norm}
variable           unit_z        equal     -0.011460388878902/0.193071606523513
variable           x_new         equal     ${x0}+${delta}*${unit_x}
variable           x_new         equal     1.92434018246327+${delta}*${unit_x}
variable           x_new         equal     1.92434018246327+0.02*${unit_x}
variable           x_new         equal     1.92434018246327+0.02*0.971304353492919
variable           y_new         equal     ${y0}+${delta}*${unit_y}
variable           y_new         equal     -1.06058005494515+${delta}*${unit_y}
variable           y_new         equal     -1.06058005494515+0.02*${unit_y}
variable           y_new         equal     -1.06058005494515+0.02*-0.230313815010623
variable           z_new         equal     ${z0}+${delta}*${unit_z}
variable           z_new         equal     -30.7472903108522+${delta}*${unit_z}
variable           z_new         equal     -30.7472903108522+0.02*${unit_z}
variable           z_new         equal     -30.7472903108522+0.02*-0.0593582302714527

set                atom          $i    x  ${x_new}  y  ${y_new}  z   ${z_new}
set                atom          288751    x  ${x_new}  y  ${y_new}  z   ${z_new}
set                atom          288751    x  1.94376626953313  y  ${y_new}  z   ${z_new}
set                atom          288751    x  1.94376626953313  y  -1.06518633124536  z   ${z_new}
set                atom          288751    x  1.94376626953313  y  -1.06518633124536  z   -30.7484774754576
Setting atom values ...
  1 settings made for x
  1 settings made for y
  1 settings made for z

fix                hold    carbon   planeforce   ${new_x}  ${new_y}  ${new_z}
fix                hold    carbon   planeforce   0.18753129195216  ${new_y}  ${new_z}
fix                hold    carbon   planeforce   0.18753129195216  -0.0444670582686602  ${new_z}
fix                hold    carbon   planeforce   0.18753129195216  -0.0444670582686602  -0.011460388878902
min_style          cg
minimize           1.0e-30 1.0e-30 10000 10000
Per MPI rank memory allocation (min/avg/max) = 5.441 | 5.816 | 6.074 Mbytes
Step PotEng KinEng TotEng v_fx v_fy v_fz 
    1855   -1152449.4            0   -1152449.4 -0.00089603975 0.0064200509 -0.039572502 
    2000   -1152449.4            0   -1152449.4 5.373534e-06 1.0750519e-05 4.621674e-05 
    2067   -1152449.4            0   -1152449.4 1.8263006e-08 1.1724719e-06 -4.2504221e-06 
Loop time of 2.49357 on 104 procs for 212 steps with 288751 atoms

99.9% CPU use with 104 MPI tasks x 1 OpenMP threads

Minimization stats:
  Stopping criterion = energy tolerance
  Energy initial, next-to-last, final = 
     -1152449.36556516  -1152449.36682186  -1152449.36682186
  Force two-norm initial, final = 0.15714296 4.3064741e-05
  Force max component initial, final = 0.10844111 9.9855857e-06
  Final line search alpha, max atom move = 1.0000000 9.9855857e-06
  Iterations, force evaluations = 212 424

MPI task timing breakdown:
Section |  min time  |  avg time  |  max time  |%varavg| %total
---------------------------------------------------------------
Pair    | 0.6358     | 1.7885     | 2.3412     |  36.2 | 71.72
Neigh   | 0          | 0          | 0          |   0.0 |  0.00
Comm    | 0.039882   | 0.40451    | 1.2062     |  52.7 | 16.22
Output  | 0.00024254 | 0.00025344 | 0.00038339 |   0.0 |  0.01
Modify  | 2.5705e-05 | 0.0035152  | 0.0074699  |   2.8 |  0.14
Other   |            | 0.2968     |            |       | 11.90

Nlocal:        2776.45 ave        3957 max           0 min
Histogram: 8 4 4 0 4 12 8 3 27 34
Nghost:        3879.01 ave        5429 max         232 min
Histogram: 8 0 8 0 16 0 8 8 16 40
Neighs:        79213.4 ave      115316 max           0 min
Histogram: 8 4 4 0 10 6 8 8 24 32

Total # of neighbors = 8238192
Ave neighs/atom = 28.530436
Neighbor list builds = 0
Dangerous builds = 0
unfix              hold

variable           new_x         delete
variable           new_y         delete
variable           new_z         delete
variable           dot           delete
variable           new_x         equal     ${x0}-${x_0}
variable           new_x         equal     1.94431153713742-${x_0}
variable           new_x         equal     1.94431153713742-1.73680889051111
variable           new_y         equal     ${y0}-${y_0}
variable           new_y         equal     -1.06137914443683-${y_0}
variable           new_y         equal     -1.06137914443683--1.01611299667649
variable           new_z         equal     ${z0}-${z_0}
variable           new_z         equal     -30.7543271599733-${z_0}
variable           new_z         equal     -30.7543271599733--30.7358299219733

variable           dot      equal     ${fx}*${new_x}+${fy}*${new_y}+${fz}*${new_z}
variable           dot      equal     1.82630060498826e-08*${new_x}+${fy}*${new_y}+${fz}*${new_z}
variable           dot      equal     1.82630060498826e-08*0.20750264662631+${fy}*${new_y}+${fz}*${new_z}
variable           dot      equal     1.82630060498826e-08*0.20750264662631+1.17247188768826e-06*${new_y}+${fz}*${new_z}
variable           dot      equal     1.82630060498826e-08*0.20750264662631+1.17247188768826e-06*-0.04526614776034+${fz}*${new_z}
variable           dot      equal     1.82630060498826e-08*0.20750264662631+1.17247188768826e-06*-0.04526614776034+-4.25042214188235e-06*${new_z}
variable           dot      equal     1.82630060498826e-08*0.20750264662631+1.17247188768826e-06*-0.04526614776034+-4.25042214188235e-06*-0.0184972380000019
print              "The dot product: ${dot}"
The dot product: 2.93374063366371e-08

if "(${dot} >= 0.0) && (${dot} < 1.0e-10)" then "jump TaR.in relaxation" elif "(${dot} < 0.0) && (${dot} > -1.0e-10)" "jump TaR.in relaxation" elif "(${iteration} == ${iter_tot}) && (${seed} < 319)" "print 'The iteration number is maximum!'" "next seed" "variable iteration delete" "jump TaR.in loop" elif "(${iteration} == ${iter_tot}) && (${seed} == 319)" "quit" else    "next iteration"    "jump TaR.in iteration"
next iteration
jump TaR.in iteration
variable           norm          equal     sqrt(${new_x}^2+${new_y}^2+${new_z}^2)
variable           norm          equal     sqrt(0.20750264662631^2+${new_y}^2+${new_z}^2)
variable           norm          equal     sqrt(0.20750264662631^2+-0.04526614776034^2+${new_z}^2)
variable           norm          equal     sqrt(0.20750264662631^2+-0.04526614776034^2+-0.0184972380000019^2)
variable           unit_x        equal     ${new_x}/${norm}
variable           unit_x        equal     0.20750264662631/${norm}
variable           unit_x        equal     0.20750264662631/0.213186585655882
variable           unit_y        equal     ${new_y}/${norm}
variable           unit_y        equal     -0.04526614776034/${norm}
variable           unit_y        equal     -0.04526614776034/0.213186585655882
variable           unit_z        equal     ${new_z}/${norm}
variable           unit_z        equal     -0.0184972380000019/${norm}
[...]
fix                hold    carbon   planeforce   0.0727230205751599  0.0248967694877239  ${new_z}
fix                hold    carbon   planeforce   0.0727230205751599  0.0248967694877239  -0.0373115605883001
min_style          cg
minimize           1.0e-30 1.0e-30 10000 10000
Per MPI rank memory allocation (min/avg/max) = 5.441 | 5.816 | 6.074 Mbytes
Step PotEng KinEng TotEng v_fx v_fy v_fz 
     985   -1152449.4            0   -1152449.4  0.032611748  -0.03392925  0.040922869 
    1000   -1152449.4            0   -1152449.4 -0.00036538349 0.00054103868 -0.00035114253 
    1114   -1152449.4            0   -1152449.4 -6.8870297e-06 3.3862214e-06 -1.1163822e-05 
Loop time of 1.49651 on 104 procs for 129 steps with 288751 atoms

99.9% CPU use with 104 MPI tasks x 1 OpenMP threads

Minimization stats:
  Stopping criterion = energy tolerance
  Energy initial, next-to-last, final = 
     -1152449.42656663   -1152449.4281439   -1152449.4281439
  Force two-norm initial, final = 0.18292457 0.00011380971
  Force max component initial, final = 0.091514838 1.1163822e-05
  Final line search alpha, max atom move = 1.0000000 1.1163822e-05
  Iterations, force evaluations = 129 258

MPI task timing breakdown:
Section |  min time  |  avg time  |  max time  |%varavg| %total
---------------------------------------------------------------
Pair    | 0.39138    | 1.086      | 1.4073     |  28.1 | 72.57
Neigh   | 0          | 0          | 0          |   0.0 |  0.00
Comm    | 0.022878   | 0.24266    | 0.73133    |  41.4 | 16.21
Output  | 0.00015002 | 0.00015817 | 0.00022962 |   0.0 |  0.01
Modify  | 1.5199e-05 | 0.0021384  | 0.0045364  |   2.2 |  0.14
Other   |            | 0.1656     |            |       | 11.06

Nlocal:        2776.45 ave        3958 max           0 min
Histogram: 8 4 4 0 4 12 8 2 28 34
Nghost:        3879.07 ave        5424 max         232 min
Histogram: 8 0 8 0 16 0 8 8 16 40
Neighs:        79213.4 ave      115360 max           0 min
Histogram: 8 4 4 0 10 6 8 8 24 32

Total # of neighbors = 8238197
Ave neighs/atom = 28.530454
Neighbor list builds = 0
Dangerous builds = 0
unfix              hold

variable           new_x         delete
variable           new_y         delete
variable           new_z         delete
variable           dot           delete
variable           new_x         equal     ${x0}-${x_0}
variable           new_x         equal     1.83048672067138-${x_0}
variable           new_x         equal     1.83048672067138-1.73680889051111
variable           new_y         equal     ${y0}-${y_0}
variable           new_y         equal     -0.987632071639211-${y_0}
variable           new_y         equal     -0.987632071639211--1.01611299667649
variable           new_z         equal     ${z0}-${z_0}
variable           new_z         equal     -30.7757075676998-${z_0}
variable           new_z         equal     -30.7757075676998--30.7358299219733

variable           dot      equal     ${fx}*${new_x}+${fy}*${new_y}+${fz}*${new_z}
variable           dot      equal     -6.8870296519246e-06*${new_x}+${fy}*${new_y}+${fz}*${new_z}
variable           dot      equal     -6.8870296519246e-06*0.0936778301602699+${fy}*${new_y}+${fz}*${new_z}
variable           dot      equal     -6.8870296519246e-06*0.0936778301602699+3.38622137698197e-06*${new_y}+${fz}*${new_z}
variable           dot      equal     -6.8870296519246e-06*0.0936778301602699+3.38622137698197e-06*0.0284809250372789+${fz}*${new_z}
variable           dot      equal     -6.8870296519246e-06*0.0936778301602699+3.38622137698197e-06*0.0284809250372789+-1.11638221357744e-05*${new_z}
variable           dot      equal     -6.8870296519246e-06*0.0936778301602699+3.38622137698197e-06*0.0284809250372789+-1.11638221357744e-05*-0.0398776457265022
print              "The dot product: ${dot}"
The dot product: -1.03532332760186e-07

if "(${dot} >= 0.0) && (${dot} < 1.0e-10)" then "jump TaR.in relaxation" elif "(${dot} < 0.0) && (${dot} > -1.0e-10)" "jump TaR.in relaxation" elif "(${iteration} == ${iter_tot}) && (${seed} < 319)" "print 'The iteration number is maximum!'" "next seed" "variable iteration delete" "jump TaR.in loop" elif "(${iteration} == ${iter_tot}) && (${seed} == 319)" "quit" else    "next iteration"    "jump TaR.in iteration"
next iteration
jump TaR.in iteration
variable           norm          equal     sqrt(${new_x}^2+${new_y}^2+${new_z}^2)
variable           norm          equal     sqrt(0.0936778301602699^2+${new_y}^2+${new_z}^2)
variable           norm          equal     sqrt(0.0936778301602699^2+0.0284809250372789^2+${new_z}^2)
variable           norm          equal     sqrt(0.0936778301602699^2+0.0284809250372789^2+-0.0398776457265022^2)
variable           unit_x        equal     ${new_x}/${norm}
variable           unit_x        equal     0.0936778301602699/${norm}
variable           unit_x        equal     0.0936778301602699/0.105720979863052
variable           unit_y        equal     ${new_y}/${norm}
variable           unit_y        equal     0.0284809250372789/${norm}
variable           unit_y        equal     0.0284809250372789/0.105720979863052
variable           unit_z        equal     ${new_z}/${norm}
variable           unit_z        equal     -0.0398776457265022/${norm}
variable           unit_z        equal     -0.0398776457265022/0.105720979863052
variable           x_new         equal     ${x0}+${delta}*${unit_x}
variable           x_new         equal     1.83048672067138+${delta}*${unit_x}
variable           x_new         equal     1.83048672067138+0.02*${unit_x}
variable           x_new         equal     1.83048672067138+0.02*0.886085527031792
variable           y_new         equal     ${y0}+${delta}*${unit_y}
variable           y_new         equal     -0.987632071639211+${delta}*${unit_y}
variable           y_new         equal     -0.987632071639211+0.02*${unit_y}
variable           y_new         equal     -0.987632071639211+0.02*0.269397096717911
variable           z_new         equal     ${z0}+${delta}*${unit_z}
variable           z_new         equal     -30.7757075676998+${delta}*${unit_z}
variable           z_new         equal     -30.7757075676998+0.02*${unit_z}
variable           z_new         equal     -30.7757075676998+0.02*-0.377197087826452

set                atom          $i    x  ${x_new}  y  ${y_new}  z   ${z_new}
set                atom          288751    x  ${x_new}  y  ${y_new}  z   ${z_new}
set                atom          288751    x  1.84820843121202  y  ${y_new}  z   ${z_new}
set                atom          288751    x  1.84820843121202  y  -0.982244129704853  z   ${z_new}
set                atom          288751    x  1.84820843121202  y  -0.982244129704853  z   -30.7832515094563
Setting atom values ...
  1 settings made for x
  1 settings made for y
  1 settings made for z

fix                hold    carbon   planeforce   ${new_x}  ${new_y}  ${new_z}
fix                hold    carbon   planeforce   0.0936778301602699  ${new_y}  ${new_z}
fix                hold    carbon   planeforce   0.0936778301602699  0.0284809250372789  ${new_z}
fix                hold    carbon   planeforce   0.0936778301602699  0.0284809250372789  -0.0398776457265022
min_style          cg
minimize           1.0e-30 1.0e-30 10000 10000
Per MPI rank memory allocation (min/avg/max) = 5.441 | 5.816 | 6.074 Mbytes
Step PotEng KinEng TotEng v_fx v_fy v_fz 
    1114   -1152449.4            0   -1152449.4  0.026973102 -0.038591571  0.035800961 
    1257   -1152449.4            0   -1152449.4 -1.0970214e-06 -8.7165012e-06 -8.8024404e-06 
Loop time of 1.67065 on 104 procs for 143 steps with 288751 atoms

99.9% CPU use with 104 MPI tasks x 1 OpenMP threads

Minimization stats:
  Stopping criterion = energy tolerance
  Energy initial, next-to-last, final = 
     -1152449.41821393  -1152449.41971977  -1152449.41971977
  Force two-norm initial, final = 0.17875115 5.5046794e-05
  Force max component initial, final = 0.086237488 8.8024404e-06
  Final line search alpha, max atom move = 1.0000000 8.8024404e-06
  Iterations, force evaluations = 143 286

MPI task timing breakdown:
Section |  min time  |  avg time  |  max time  |%varavg| %total
---------------------------------------------------------------
Pair    | 0.43196    | 1.2028     | 1.5649     |  29.6 | 71.99
Neigh   | 0          | 0          | 0          |   0.0 |  0.00
Comm    | 0.030878   | 0.27041    | 0.80987    |  43.3 | 16.19
Output  | 0          | 0          | 0          |   0.0 |  0.00
Modify  | 1.7189e-05 | 0.0023701  | 0.0050221  |   2.3 |  0.14
Other   |            | 0.1951     |            |       | 11.68

Nlocal:        2776.45 ave        3958 max           0 min
Histogram: 8 4 4 0 4 12 8 4 26 34
Nghost:        3879.07 ave        5424 max         232 min
Histogram: 8 0 8 0 16 0 8 8 16 40
Neighs:        79213.5 ave      115360 max           0 min
Histogram: 8 4 4 0 10 6 8 8 24 32

Total # of neighbors = 8238199
Ave neighs/atom = 28.530461
Neighbor list builds = 0
Dangerous builds = 0
unfix              hold

variable           new_x         delete
variable           new_y         delete
variable           new_z         delete
variable           dot           delete
variable           new_x         equal     ${x0}-${x_0}
variable           new_x         equal     1.85144793760779-${x_0}
variable           new_x         equal     1.85144793760779-1.73680889051111
variable           new_y         equal     ${y0}-${y_0}
variable           new_y         equal     -0.984990500830144-${y_0}
variable           new_y         equal     -0.984990500830144--1.01611299667649
variable           new_z         equal     ${z0}-${z_0}
variable           new_z         equal     -30.7776029628658-${z_0}
variable           new_z         equal     -30.7776029628658--30.7358299219733

variable           dot      equal     ${fx}*${new_x}+${fy}*${new_y}+${fz}*${new_z}
variable           dot      equal     -1.0970213806973e-06*${new_x}+${fy}*${new_y}+${fz}*${new_z}
variable           dot      equal     -1.0970213806973e-06*0.11463904709668+${fy}*${new_y}+${fz}*${new_z}
variable           dot      equal     -1.0970213806973e-06*0.11463904709668+-8.71650117644066e-06*${new_y}+${fz}*${new_z}
variable           dot      equal     -1.0970213806973e-06*0.11463904709668+-8.71650117644066e-06*0.031122495846346+${fz}*${new_z}
variable           dot      equal     -1.0970213806973e-06*0.11463904709668+-8.71650117644066e-06*0.031122495846346+-8.80244038424391e-06*${new_z}
variable           dot      equal     -1.0970213806973e-06*0.11463904709668+-8.71650117644066e-06*0.031122495846346+-8.80244038424391e-06*-0.041773040892501
print              "The dot product: ${dot}"
The dot product: -2.93360552614441e-08

if "(${dot} >= 0.0) && (${dot} < 1.0e-10)" then "jump TaR.in relaxation" elif "(${dot} < 0.0) && (${dot} > -1.0e-10)" "jump TaR.in relaxation" elif "(${iteration} == ${iter_tot}) && (${seed} < 319)" "print 'The iteration number is maximum!'" "next seed" "variable iteration delete" "jump TaR.in loop" elif "(${iteration} == ${iter_tot}) && (${seed} == 319)" "quit" else    "next iteration"    "jump TaR.in iteration"
next iteration
jump TaR.in iteration
variable           norm          equal     sqrt(${new_x}^2+${new_y}^2+${new_z}^2)
variable           norm          equal     sqrt(0.11463904709668^2+${new_y}^2+${new_z}^2)
variable           norm          equal     sqrt(0.11463904709668^2+0.031122495846346^2+${new_z}^2)
variable           norm          equal     sqrt(0.11463904709668^2+0.031122495846346^2+-0.041773040892501^2)
variable           unit_x        equal     ${new_x}/${norm}
variable           unit_x        equal     0.11463904709668/${norm}
variable           unit_x        equal     0.11463904709668/0.125919449698397
variable           unit_y        equal     ${new_y}/${norm}
variable           unit_y        equal     0.031122495846346/${norm}
variable           unit_y        equal     0.031122495846346/0.125919449698397
variable           unit_z        equal     ${new_z}/${norm}
variable           unit_z        equal     -0.041773040892501/${norm}
variable           unit_z        equal     -0.041773040892501/0.125919449698397
variable           x_new         equal     ${x0}+${delta}*${unit_x}
variable           x_new         equal     1.85144793760779+${delta}*${unit_x}
variable           x_new         equal     1.85144793760779+0.02*${unit_x}
variable           x_new         equal     1.85144793760779+0.02*0.910415725062841
variable           y_new         equal     ${y0}+${delta}*${unit_y}
variable           y_new         equal     -0.984990500830144+${delta}*${unit_y}
variable           y_new         equal     -0.984990500830144+0.02*${unit_y}
variable           y_new         equal     -0.984990500830144+0.02*0.247161942979347
variable           z_new         equal     ${z0}+${delta}*${unit_z}
variable           z_new         equal     -30.7776029628658+${delta}*${unit_z}
variable           z_new         equal     -30.7776029628658+0.02*${unit_z}
variable           z_new         equal     -30.7776029628658+0.02*-0.331744150665811

set                atom          $i    x  ${x_new}  y  ${y_new}  z   ${z_new}
set                atom          288751    x  ${x_new}  y  ${y_new}  z   ${z_new}
set                atom          288751    x  1.86965625210905  y  ${y_new}  z   ${z_new}
set                atom          288751    x  1.86965625210905  y  -0.980047261970557  z   ${z_new}
set                atom          288751    x  1.86965625210905  y  -0.980047261970557  z   -30.7842378458791
Setting atom values ...
  1 settings made for x
  1 settings made for y
  1 settings made for z

fix                hold    carbon   planeforce   ${new_x}  ${new_y}  ${new_z}
fix                hold    carbon   planeforce   0.11463904709668  ${new_y}  ${new_z}
fix                hold    carbon   planeforce   0.11463904709668  0.031122495846346  ${new_z}
fix                hold    carbon   planeforce   0.11463904709668  0.031122495846346  -0.041773040892501
min_style          cg
minimize           1.0e-30 1.0e-30 10000 10000
Per MPI rank memory allocation (min/avg/max) = 5.441 | 5.816 | 6.074 Mbytes
Step PotEng KinEng TotEng v_fx v_fy v_fz 
    1257   -1152449.4            0   -1152449.4  0.021858963 -0.041546886  0.029034227 
    1388   -1152449.4            0   -1152449.4 3.0534607e-07 -1.1639666e-05 -7.8340209e-06 
Loop time of 1.51999 on 104 procs for 131 steps with 288751 atoms

99.9% CPU use with 104 MPI tasks x 1 OpenMP threads

Minimization stats:
  Stopping criterion = energy tolerance
  Energy initial, next-to-last, final = 
     -1152449.40847506  -1152449.40991429  -1152449.40991429
  Force two-norm initial, final = 0.17494176 8.2761417e-05
  Force max component initial, final = 0.0814917 1.2845159e-05
  Final line search alpha, max atom move = 1.0000000 1.2845159e-05
  Iterations, force evaluations = 131 262

MPI task timing breakdown:
Section |  min time  |  avg time  |  max time  |%varavg| %total
---------------------------------------------------------------
Pair    | 0.39628    | 1.1016     | 1.4323     |  28.4 | 72.47
Neigh   | 0          | 0          | 0          |   0.0 |  0.00
Comm    | 0.023329   | 0.24726    | 0.74019    |  41.5 | 16.27
Output  | 0          | 0          | 0          |   0.0 |  0.00
Modify  | 1.5576e-05 | 0.0021666  | 0.0046058  |   2.2 |  0.14
Other   |            | 0.169      |            |       | 11.12

Nlocal:        2776.45 ave        3959 max           0 min
Histogram: 8 4 4 0 4 12 8 4 26 34
Nghost:        3879.07 ave        5424 max         232 min
Histogram: 8 0 8 0 16 0 8 8 16 40
Neighs:        79213.5 ave      115394 max           0 min
Histogram: 8 4 4 0 10 6 8 8 24 32

Total # of neighbors = 8238202
Ave neighs/atom = 28.530471
Neighbor list builds = 0
Dangerous builds = 0
unfix              hold

variable           new_x         delete
variable           new_y         delete
variable           new_z         delete
variable           dot           delete
variable           new_x         equal     ${x0}-${x_0}
variable           new_x         equal     1.87225200671678-${x_0}
variable           new_x         equal     1.87225200671678-1.73680889051111
variable           new_y         equal     ${y0}-${y_0}
variable           new_y         equal     -0.983193079955214-${y_0}
variable           new_y         equal     -0.983193079955214--1.01611299667649
variable           new_z         equal     ${z0}-${z_0}
variable           new_z         equal     -30.7794579897015-${z_0}
variable           new_z         equal     -30.7794579897015--30.7358299219733

variable           dot      equal     ${fx}*${new_x}+${fy}*${new_y}+${fz}*${new_z}
variable           dot      equal     3.05346067528733e-07*${new_x}+${fy}*${new_y}+${fz}*${new_z}
variable           dot      equal     3.05346067528733e-07*0.13544311620567+${fy}*${new_y}+${fz}*${new_z}
variable           dot      equal     3.05346067528733e-07*0.13544311620567+-1.16396659916769e-05*${new_y}+${fz}*${new_z}
variable           dot      equal     3.05346067528733e-07*0.13544311620567+-1.16396659916769e-05*0.0329199167212759+${fz}*${new_z}
variable           dot      equal     3.05346067528733e-07*0.13544311620567+-1.16396659916769e-05*0.0329199167212759+-7.83402087248594e-06*${new_z}
variable           dot      equal     3.05346067528733e-07*0.13544311620567+-1.16396659916769e-05*0.0329199167212759+-7.83402087248594e-06*-0.0436280677281999
print              "The dot product: ${dot}"
The dot product: -3.66189932839915e-11

if "(${dot} >= 0.0) && (${dot} < 1.0e-10)" then "jump TaR.in relaxation" elif "(${dot} < 0.0) && (${dot} > -1.0e-10)" "jump TaR.in relaxation" elif "(${iteration} == ${iter_tot}) && (${seed} < 319)" "print 'The iteration number is maximum!'" "next seed" "variable iteration delete" "jump TaR.in loop" elif "(${iteration} == ${iter_tot}) && (${seed} == 319)" "quit" else    "next iteration"    "jump TaR.in iteration"
jump TaR.in relaxation
#full relaxation
min_style          cg
minimize           1.0e-30 1.0e-30 10000 10000
Per MPI rank memory allocation (min/avg/max) = 5.441 | 5.816 | 6.074 Mbytes
Step PotEng KinEng TotEng v_fx v_fy v_fz 
    1388   -1152449.4            0   -1152449.4  -0.48198232  -0.13086149   0.17562063 
    1642   -1152449.5            0   -1152449.5 5.3521122e-06 9.6376673e-06 -1.4573171e-05 
Loop time of 2.93948 on 104 procs for 254 steps with 288751 atoms

99.9% CPU use with 104 MPI tasks x 1 OpenMP threads

Minimization stats:
  Stopping criterion = energy tolerance
  Energy initial, next-to-last, final = 
     -1152449.40991429  -1152449.45035271  -1152449.45035271
  Force two-norm initial, final = 0.52940938 5.5543416e-05
  Force max component initial, final = 0.48198232 1.4573171e-05
  Final line search alpha, max atom move = 1.0000000 1.4573171e-05
  Iterations, force evaluations = 254 508

MPI task timing breakdown:
Section |  min time  |  avg time  |  max time  |%varavg| %total
---------------------------------------------------------------
Pair    | 0.77225    | 2.1339     | 2.7688     |  39.2 | 72.59
Neigh   | 1.0096e-05 | 0.002942   | 0.004267   |   2.2 |  0.10
Comm    | 0.047429   | 0.47648    | 1.4211     |  57.8 | 16.21
Output  | 0          | 0          | 0          |   0.0 |  0.00
Modify  | 2.7771e-05 | 0.0027379  | 0.0069361  |   3.2 |  0.09
Other   |            | 0.3234     |            |       | 11.00

Nlocal:        2776.45 ave        3959 max           0 min
Histogram: 8 4 4 0 4 12 8 4 26 34
Nghost:        3879.07 ave        5424 max         232 min
Histogram: 8 0 8 0 16 0 8 8 16 40
Neighs:        79213.5 ave      115394 max           0 min
Histogram: 8 4 4 0 10 6 8 8 24 32

Total # of neighbors = 8238199
Ave neighs/atom = 28.530461
Neighbor list builds = 1
Dangerous builds = 0
print              "${x0} ${y0} ${z0}" append info.dat screen no

if "${seed} < 319" then "next seed" "variable iteration delete" "jump TaR.in loop" else "quit"
quit
