LAMMPS (29 Oct 2020)
OMP_NUM_THREADS environment is not set. Defaulting to 1 thread. (../comm.cpp:94)
  using 1 OpenMP thread(s) per MPI task
OMP_NUM_THREADS environment is not set. Defaulting to 1 thread. (../comm.cpp:94)
  using 1 OpenMP thread(s) per MPI task
Reading data file ...
  orthogonal box = (-122.39241 -121.13707 -37.090501) to (122.39241 121.13707 37.090501)
  13 by 4 by 2 MPI processor grid
  reading atoms ...
  288751 atoms
  read_data CPU = 0.647 seconds
199981 atoms in group inner
88770 atoms in group outer
1 atoms in group carbon
Neighbor list info ...
  update every 1 steps, delay 0 steps, check yes
  max neighbors/atom: 2000, page size: 100000
  master list distance cutoff = 5.6
  ghost atom cutoff = 5.6
  binsize = 2.8, bins = 88 87 27
  1 neighbor lists, perpetual/occasional/extra = 1 0 0
  (1) pair eam/alloy, perpetual
      attributes: half, newton on
      pair build: half/bin/atomonly/newton
      stencil: half/bin/3d/newton
      bin: standard
Setting up cg style minimization ...
  Unit style    : metal
  Current step  : 0
Per MPI rank memory allocation (min/avg/max) = 5.441 | 5.816 | 6.074 Mbytes
Step v_fx v_fy v_fz PotEng KinEng TotEng 
       0   0.13455878    -30.30682    50.785936   -1152433.2            0   -1152433.2 
     156 -6.0991502e-06 -1.782139e-05 -7.9105871e-05   -1152449.5            0   -1152449.5 
Loop time of 1.84781 on 104 procs for 156 steps with 288751 atoms

99.8% CPU use with 104 MPI tasks x 1 OpenMP threads

Minimization stats:
  Stopping criterion = energy tolerance
  Energy initial, next-to-last, final = 
     -1152433.17620743  -1152449.45035268  -1152449.45035268
  Force two-norm initial, final = 88.547702 0.00021917624
  Force max component initial, final = 57.877628 7.9105871e-05
  Final line search alpha, max atom move = 1.0000000 7.9105871e-05
  Iterations, force evaluations = 156 304

MPI task timing breakdown:
Section |  min time  |  avg time  |  max time  |%varavg| %total
---------------------------------------------------------------
Pair    | 0.48913    | 1.295      | 1.6895     |  30.1 | 70.08
Neigh   | 5.3384e-05 | 0.015481   | 0.023353   |   5.2 |  0.84
Comm    | 0.035792   | 0.30293    | 0.87546    |  43.4 | 16.39
Output  | 0          | 0          | 0          |   0.0 |  0.00
Modify  | 1.7014e-05 | 0.0016538  | 0.0041987  |   2.5 |  0.09
Other   |            | 0.2327     |            |       | 12.59

Nlocal:        2776.45 ave        3958 max           0 min
Histogram: 8 4 4 0 4 12 8 2 28 34
Nghost:        3879.01 ave        5424 max         232 min
Histogram: 8 0 8 0 16 0 8 8 16 40
Neighs:        79213.5 ave      115372 max           0 min
Histogram: 8 4 4 0 10 6 8 8 24 32

Total # of neighbors = 8238208
Ave neighs/atom = 28.530492
Neighbor list builds = 5
Dangerous builds = 0
Setting atom values ...
  1 settings made for x
  1 settings made for y
  1 settings made for z
Setting up cg style minimization ...
  Unit style    : metal
  Current step  : 156
Per MPI rank memory allocation (min/avg/max) = 5.441 | 5.816 | 6.074 Mbytes
Step PotEng KinEng TotEng v_fx v_fy v_fz 
     156   -1152449.4            0   -1152449.4  0.010239678 -0.0083602841 -0.023265608 
     319   -1152449.5            0   -1152449.5 1.346234e-07 -2.4630674e-06 -2.3188903e-06 
Loop time of 1.96464 on 104 procs for 163 steps with 288751 atoms

99.9% CPU use with 104 MPI tasks x 1 OpenMP threads

Minimization stats:
  Stopping criterion = energy tolerance
  Energy initial, next-to-last, final = 
     -1152449.44967107  -1152449.45009683  -1152449.45009683
  Force two-norm initial, final = 0.094830427 0.00015657581
  Force max component initial, final = 0.045888075 1.3132740e-05
  Final line search alpha, max atom move = 1.0000000 1.3132740e-05
  Iterations, force evaluations = 163 326

MPI task timing breakdown:
Section |  min time  |  avg time  |  max time  |%varavg| %total
---------------------------------------------------------------
Pair    | 0.50021    | 1.3845     | 1.8086     |  31.7 | 70.47
Neigh   | 0          | 0          | 0          |   0.0 |  0.00
Comm    | 0.032375   | 0.32209    | 0.96542    |  45.8 | 16.39
Output  | 0          | 0          | 0          |   0.0 |  0.00
Modify  | 2.0323e-05 | 0.0027032  | 0.0057199  |   2.4 |  0.14
Other   |            | 0.2554     |            |       | 13.00

Nlocal:        2776.45 ave        3958 max           0 min
Histogram: 8 4 4 0 4 12 8 2 28 34
Nghost:        3878.99 ave        5426 max         232 min
Histogram: 8 0 8 0 16 0 8 8 16 40
Neighs:        79213.4 ave      115354 max           0 min
Histogram: 8 4 4 0 10 6 8 8 24 32

Total # of neighbors = 8238197
Ave neighs/atom = 28.530454
Neighbor list builds = 0
Dangerous builds = 0
Setting atom values ...
  1 settings made for x
  1 settings made for y
  1 settings made for z
Setting up cg style minimization ...
  Unit style    : metal
  Current step  : 319
Per MPI rank memory allocation (min/avg/max) = 5.441 | 5.816 | 6.074 Mbytes
Step PotEng KinEng TotEng v_fx v_fy v_fz 
     319   -1152449.4            0   -1152449.4  0.014007649 -0.014717673 -0.040899269 
     561   -1152449.4            0   -1152449.4 1.8618669e-07 -9.4240567e-07 -1.2436857e-06 
Loop time of 2.85247 on 104 procs for 242 steps with 288751 atoms

99.9% CPU use with 104 MPI tasks x 1 OpenMP threads

Minimization stats:
  Stopping criterion = energy tolerance
  Energy initial, next-to-last, final = 
     -1152449.44696733  -1152449.44832317  -1152449.44832317
  Force two-norm initial, final = 0.16772931 1.4252126e-05
  Force max component initial, final = 0.088628363 3.3252006e-06
  Final line search alpha, max atom move = 1.0000000 3.3252006e-06
  Iterations, force evaluations = 242 484

MPI task timing breakdown:
Section |  min time  |  avg time  |  max time  |%varavg| %total
---------------------------------------------------------------
Pair    | 0.73344    | 2.0366     | 2.6625     |  38.7 | 71.40
Neigh   | 0          | 0          | 0          |   0.0 |  0.00
Comm    | 0.04255    | 0.46538    | 1.384      |  56.1 | 16.32
Output  | 0          | 0          | 0          |   0.0 |  0.00
Modify  | 2.7344e-05 | 0.0040038  | 0.0084893  |   3.0 |  0.14
Other   |            | 0.3465     |            |       | 12.15

Nlocal:        2776.45 ave        3958 max           0 min
Histogram: 8 4 4 0 4 12 8 2 28 34
Nghost:        3879.01 ave        5424 max         232 min
Histogram: 8 0 8 0 16 0 8 8 16 40
Neighs:        79213.4 ave      115354 max           0 min
Histogram: 8 4 4 0 10 6 8 8 24 32

Total # of neighbors = 8238196
Ave neighs/atom = 28.530450
Neighbor list builds = 0
Dangerous builds = 0
The dot product: 1.81026510479617e-09
Setting atom values ...
  1 settings made for x
  1 settings made for y
  1 settings made for z
Setting up cg style minimization ...
  Unit style    : metal
  Current step  : 561
Per MPI rank memory allocation (min/avg/max) = 5.441 | 5.816 | 6.074 Mbytes
Step PotEng KinEng TotEng v_fx v_fy v_fz 
     561   -1152449.4            0   -1152449.4  0.010919501 -0.015790611 -0.041109295 
     764   -1152449.4            0   -1152449.4 -2.4194952e-06 -1.0425027e-05 -5.3470404e-06 
Loop time of 2.4009 on 104 procs for 203 steps with 288751 atoms

99.9% CPU use with 104 MPI tasks x 1 OpenMP threads

Minimization stats:
  Stopping criterion = energy tolerance
  Energy initial, next-to-last, final = 
       -1152449.443504  -1152449.44484009  -1152449.44484009
  Force two-norm initial, final = 0.16531244 6.8616933e-05
  Force max component initial, final = 0.092668695 1.3248280e-05
  Final line search alpha, max atom move = 1.0000000 1.3248280e-05
  Iterations, force evaluations = 203 406

MPI task timing breakdown:
Section |  min time  |  avg time  |  max time  |%varavg| %total
---------------------------------------------------------------
Pair    | 0.61396    | 1.7174     | 2.2387     |  35.5 | 71.53
Neigh   | 0          | 0          | 0          |   0.0 |  0.00
Comm    | 0.035049   | 0.39459    | 1.1626     |  51.3 | 16.44
Output  | 0          | 0          | 0          |   0.0 |  0.00
Modify  | 2.4607e-05 | 0.0033561  | 0.0071471  |   2.7 |  0.14
Other   |            | 0.2855     |            |       | 11.89

Nlocal:        2776.45 ave        3958 max           0 min
Histogram: 8 4 4 0 4 12 8 2 28 34
Nghost:        3879.01 ave        5424 max         232 min
Histogram: 8 0 8 0 16 0 8 8 16 40
Neighs:        79213.4 ave      115356 max           0 min
Histogram: 8 4 4 0 10 6 8 8 24 32

Total # of neighbors = 8238194
Ave neighs/atom = 28.530443
Neighbor list builds = 0
Dangerous builds = 0
The dot product: 1.12552369419276e-08
Setting atom values ...
  1 settings made for x
  1 settings made for y
  1 settings made for z
Setting up cg style minimization ...
  Unit style    : metal
  Current step  : 764
Per MPI rank memory allocation (min/avg/max) = 5.441 | 5.816 | 6.074 Mbytes
Step PotEng KinEng TotEng v_fx v_fy v_fz 
     764   -1152449.4            0   -1152449.4  0.011015484 -0.013689946  -0.04465283 
     892   -1152449.4            0   -1152449.4 -2.0879906e-05 -1.7918623e-05 3.2978029e-05 
Loop time of 1.50106 on 104 procs for 128 steps with 288751 atoms

99.9% CPU use with 104 MPI tasks x 1 OpenMP threads

Minimization stats:
  Stopping criterion = energy tolerance
  Energy initial, next-to-last, final = 
     -1152449.43837176     -1152449.43969     -1152449.43969
  Force two-norm initial, final = 0.16400458 0.00021744982
  Force max component initial, final = 0.096423555 4.9862256e-05
  Final line search alpha, max atom move = 1.0000000 4.9862256e-05
  Iterations, force evaluations = 128 256

MPI task timing breakdown:
Section |  min time  |  avg time  |  max time  |%varavg| %total
---------------------------------------------------------------
Pair    | 0.39098    | 1.077      | 1.401      |  28.0 | 71.75
Neigh   | 0          | 0          | 0          |   0.0 |  0.00
Comm    | 0.022043   | 0.2442     | 0.73069    |  41.0 | 16.27
Output  | 0          | 0          | 0          |   0.0 |  0.00
Modify  | 1.4958e-05 | 0.0021174  | 0.0044863  |   2.2 |  0.14
Other   |            | 0.1777     |            |       | 11.84

Nlocal:        2776.45 ave        3958 max           0 min
Histogram: 8 4 4 0 4 12 8 2 28 34
Nghost:        3879.01 ave        5424 max         232 min
Histogram: 8 0 8 0 16 0 8 8 16 40
Neighs:        79213.4 ave      115356 max           0 min
Histogram: 8 4 4 0 10 6 8 8 24 32

Total # of neighbors = 8238195
Ave neighs/atom = 28.530447
Neighbor list builds = 0
Dangerous builds = 0
The dot product: -1.30406278457861e-07
Setting atom values ...
  1 settings made for x
  1 settings made for y
  1 settings made for z
Setting up cg style minimization ...
  Unit style    : metal
  Current step  : 892
Per MPI rank memory allocation (min/avg/max) = 5.441 | 5.816 | 6.074 Mbytes
Step PotEng KinEng TotEng v_fx v_fy v_fz 
     892   -1152449.4            0   -1152449.4  0.013251553 -0.0082744671 -0.052244642 
    1000   -1152449.4            0   -1152449.4 2.8788951e-05 4.0733521e-05 -3.2141512e-05 
    1030   -1152449.4            0   -1152449.4 3.4135771e-06 3.1243648e-06 -6.1745873e-06 
Loop time of 1.64144 on 104 procs for 138 steps with 288751 atoms

99.9% CPU use with 104 MPI tasks x 1 OpenMP threads

Minimization stats:
  Stopping criterion = energy tolerance
  Energy initial, next-to-last, final = 
     -1152449.43170087  -1152449.43304321  -1152449.43304321
  Force two-norm initial, final = 0.16428393 0.00012502497
  Force max component initial, final = 0.10024255 1.0499145e-05
  Final line search alpha, max atom move = 1.0000000 1.0499145e-05
  Iterations, force evaluations = 138 276

MPI task timing breakdown:
Section |  min time  |  avg time  |  max time  |%varavg| %total
---------------------------------------------------------------
Pair    | 0.41884    | 1.1676     | 1.5289     |  29.3 | 71.13
Neigh   | 0          | 0          | 0          |   0.0 |  0.00
Comm    | 0.026076   | 0.26768    | 0.80191    |  42.1 | 16.31
Output  | 0.0004719  | 0.00047625 | 0.00060167 |   0.0 |  0.03
Modify  | 1.6224e-05 | 0.0022831  | 0.0048502  |   2.2 |  0.14
Other   |            | 0.2034     |            |       | 12.39

Nlocal:        2776.45 ave        3957 max           0 min
Histogram: 8 4 4 0 4 12 8 2 28 34
Nghost:        3879.01 ave        5424 max         232 min
Histogram: 8 0 8 0 16 0 8 8 16 40
Neighs:        79213.4 ave      115317 max           0 min
Histogram: 8 4 4 0 10 6 8 8 24 32

Total # of neighbors = 8238195
Ave neighs/atom = 28.530447
Neighbor list builds = 0
Dangerous builds = 0
The dot product: 4.5708999769184e-08
Setting atom values ...
  1 settings made for x
  1 settings made for y
  1 settings made for z
Setting up cg style minimization ...
  Unit style    : metal
  Current step  : 1030
Per MPI rank memory allocation (min/avg/max) = 5.441 | 5.816 | 6.074 Mbytes
Step PotEng KinEng TotEng v_fx v_fy v_fz 
    1030   -1152449.4            0   -1152449.4  0.015109998 0.0011373805 -0.059463274 
    1152   -1152449.4            0   -1152449.4 1.273501e-07 -1.3255004e-05 -2.3596726e-05 
Loop time of 1.43416 on 104 procs for 122 steps with 288751 atoms

99.9% CPU use with 104 MPI tasks x 1 OpenMP threads

Minimization stats:
  Stopping criterion = energy tolerance
  Energy initial, next-to-last, final = 
     -1152449.42373296  -1152449.42513892  -1152449.42513892
  Force two-norm initial, final = 0.16505788 0.00012233835
  Force max component initial, final = 0.10387479 2.3596726e-05
  Final line search alpha, max atom move = 1.0000000 2.3596726e-05
  Iterations, force evaluations = 122 244

MPI task timing breakdown:
Section |  min time  |  avg time  |  max time  |%varavg| %total
---------------------------------------------------------------
Pair    | 0.36908    | 1.0273     | 1.3504     |  27.4 | 71.63
Neigh   | 0          | 0          | 0          |   0.0 |  0.00
Comm    | 0.026085   | 0.23273    | 0.69212    |  40.0 | 16.23
Output  | 0          | 0          | 0          |   0.0 |  0.00
Modify  | 1.4938e-05 | 0.0020152  | 0.0042922  |   2.1 |  0.14
Other   |            | 0.1721     |            |       | 12.00

Nlocal:        2776.45 ave        3957 max           0 min
Histogram: 8 4 4 0 4 12 8 2 28 34
Nghost:        3879.01 ave        5424 max         232 min
Histogram: 8 0 8 0 16 0 8 8 16 40
Neighs:        79213.4 ave      115317 max           0 min
Histogram: 8 4 4 0 10 6 8 8 24 32

Total # of neighbors = 8238194
Ave neighs/atom = 28.530443
Neighbor list builds = 0
Dangerous builds = 0
The dot product: 1.48269342110625e-07
Setting atom values ...
  1 settings made for x
  1 settings made for y
  1 settings made for z
Setting up cg style minimization ...
  Unit style    : metal
  Current step  : 1152
Per MPI rank memory allocation (min/avg/max) = 5.441 | 5.816 | 6.074 Mbytes
Step PotEng KinEng TotEng v_fx v_fy v_fz 
    1152   -1152449.4            0   -1152449.4  0.013524072 0.0090776543 -0.061931393 
    1315   -1152449.4            0   -1152449.4 2.879923e-07 -1.5769217e-05 -3.9494664e-05 
Loop time of 1.90031 on 104 procs for 163 steps with 288751 atoms

99.9% CPU use with 104 MPI tasks x 1 OpenMP threads

Minimization stats:
  Stopping criterion = energy tolerance
  Energy initial, next-to-last, final = 
     -1152449.41460795  -1152449.41605116  -1152449.41605116
  Force two-norm initial, final = 0.1646809 0.00022883694
  Force max component initial, final = 0.10657423 5.0825708e-05
  Final line search alpha, max atom move = 1.0000000 5.0825708e-05
  Iterations, force evaluations = 163 326

MPI task timing breakdown:
Section |  min time  |  avg time  |  max time  |%varavg| %total
---------------------------------------------------------------
Pair    | 0.49285    | 1.3728     | 1.7857     |  31.6 | 72.24
Neigh   | 0          | 0          | 0          |   0.0 |  0.00
Comm    | 0.028017   | 0.30905    | 0.93383    |  46.8 | 16.26
Output  | 0          | 0          | 0          |   0.0 |  0.00
Modify  | 1.8891e-05 | 0.0026927  | 0.0057449  |   2.4 |  0.14
Other   |            | 0.2157     |            |       | 11.35

Nlocal:        2776.45 ave        3957 max           0 min
Histogram: 8 4 4 0 4 12 8 2 28 34
Nghost:        3879.01 ave        5424 max         232 min
Histogram: 8 0 8 0 16 0 8 8 16 40
Neighs:        79213.4 ave      115325 max           0 min
Histogram: 8 4 4 0 10 6 8 8 24 32

Total # of neighbors = 8238194
Ave neighs/atom = 28.530443
Neighbor list builds = 0
Dangerous builds = 0
The dot product: 2.81227091834781e-07
Setting atom values ...
  1 settings made for x
  1 settings made for y
  1 settings made for z
Setting up cg style minimization ...
  Unit style    : metal
  Current step  : 1315
Per MPI rank memory allocation (min/avg/max) = 5.441 | 5.816 | 6.074 Mbytes
Step PotEng KinEng TotEng v_fx v_fy v_fz 
    1315   -1152449.4            0   -1152449.4 0.0096116076  0.013127476  -0.05960448 
    1529   -1152449.4            0   -1152449.4 7.0970498e-07 1.1130386e-06 -3.8333063e-06 
Loop time of 2.53839 on 104 procs for 214 steps with 288751 atoms

99.9% CPU use with 104 MPI tasks x 1 OpenMP threads

Minimization stats:
  Stopping criterion = energy tolerance
  Energy initial, next-to-last, final = 
     -1152449.40430827  -1152449.40573826  -1152449.40573826
  Force two-norm initial, final = 0.16312332 3.7031025e-05
  Force max component initial, final = 0.10806323 3.8333063e-06
  Final line search alpha, max atom move = 1.0000000 3.8333063e-06
  Iterations, force evaluations = 214 428

MPI task timing breakdown:
Section |  min time  |  avg time  |  max time  |%varavg| %total
---------------------------------------------------------------
Pair    | 0.64901    | 1.7997     | 2.3578     |  36.3 | 70.90
Neigh   | 0          | 0          | 0          |   0.0 |  0.00
Comm    | 0.045316   | 0.41268    | 1.2213     |  52.4 | 16.26
Output  | 0          | 0          | 0          |   0.0 |  0.00
Modify  | 2.6875e-05 | 0.0035323  | 0.0075436  |   2.8 |  0.14
Other   |            | 0.3225     |            |       | 12.70

Nlocal:        2776.45 ave        3957 max           0 min
Histogram: 8 4 4 0 4 12 8 2 28 34
Nghost:        3879.01 ave        5424 max         232 min
Histogram: 8 0 8 0 16 0 8 8 16 40
Neighs:        79213.4 ave      115317 max           0 min
Histogram: 8 4 4 0 10 6 8 8 24 32

Total # of neighbors = 8238196
Ave neighs/atom = 28.530450
Neighbor list builds = 0
Dangerous builds = 0
The dot product: 4.15845281338351e-08
Setting atom values ...
  1 settings made for x
  1 settings made for y
  1 settings made for z
Setting up cg style minimization ...
  Unit style    : metal
  Current step  : 1529
Per MPI rank memory allocation (min/avg/max) = 5.441 | 5.816 | 6.074 Mbytes
Step PotEng KinEng TotEng v_fx v_fy v_fz 
    1529   -1152449.4            0   -1152449.4 0.0052631104  0.013248961  -0.05390899 
    1730   -1152449.4            0   -1152449.4 -1.1730851e-06 -2.4755233e-06 1.7884891e-05 
Loop time of 2.35272 on 104 procs for 201 steps with 288751 atoms

99.9% CPU use with 104 MPI tasks x 1 OpenMP threads

Minimization stats:
  Stopping criterion = energy tolerance
  Energy initial, next-to-last, final = 
      -1152449.3927527  -1152449.39413161  -1152449.39413161
  Force two-norm initial, final = 0.16085345 7.1629188e-05
  Force max component initial, final = 0.10854674 1.7884891e-05
  Final line search alpha, max atom move = 1.0000000 1.7884891e-05
  Iterations, force evaluations = 201 402

MPI task timing breakdown:
Section |  min time  |  avg time  |  max time  |%varavg| %total
---------------------------------------------------------------
Pair    | 0.60808    | 1.6961     | 2.1951     |  35.1 | 72.09
Neigh   | 0          | 0          | 0          |   0.0 |  0.00
Comm    | 0.034636   | 0.38356    | 1.1542     |  51.8 | 16.30
Output  | 0          | 0          | 0          |   0.0 |  0.00
Modify  | 2.3144e-05 | 0.0033265  | 0.0071066  |   2.7 |  0.14
Other   |            | 0.2697     |            |       | 11.47

Nlocal:        2776.45 ave        3957 max           0 min
Histogram: 8 4 4 0 4 12 8 2 28 34
Nghost:        3879.01 ave        5424 max         232 min
Histogram: 8 0 8 0 16 0 8 8 16 40
Neighs:        79213.4 ave      115318 max           0 min
Histogram: 8 4 4 0 10 6 8 8 24 32

Total # of neighbors = 8238197
Ave neighs/atom = 28.530454
Neighbor list builds = 0
Dangerous builds = 0
The dot product: -1.58942610389223e-07
Setting atom values ...
  1 settings made for x
  1 settings made for y
  1 settings made for z
Setting up cg style minimization ...
  Unit style    : metal
  Current step  : 1730
Per MPI rank memory allocation (min/avg/max) = 5.441 | 5.816 | 6.074 Mbytes
Step PotEng KinEng TotEng v_fx v_fy v_fz 
    1730   -1152449.4            0   -1152449.4 0.0016523871  0.010530617 -0.046692821 
    1921   -1152449.4            0   -1152449.4 2.768326e-06 9.2166337e-06 1.4027402e-05 
Loop time of 2.26068 on 104 procs for 191 steps with 288751 atoms

99.9% CPU use with 104 MPI tasks x 1 OpenMP threads

Minimization stats:
  Stopping criterion = energy tolerance
  Energy initial, next-to-last, final = 
     -1152449.37985816  -1152449.38117232  -1152449.38117232
  Force two-norm initial, final = 0.15867529 8.7189678e-05
  Force max component initial, final = 0.10855375 1.4027402e-05
  Final line search alpha, max atom move = 1.0000000 1.4027402e-05
  Iterations, force evaluations = 191 382

MPI task timing breakdown:
Section |  min time  |  avg time  |  max time  |%varavg| %total
---------------------------------------------------------------
Pair    | 0.57735    | 1.6103     | 2.1023     |  34.4 | 71.23
Neigh   | 0          | 0          | 0          |   0.0 |  0.00
Comm    | 0.035814   | 0.36843    | 1.0899     |  49.8 | 16.30
Output  | 0          | 0          | 0          |   0.0 |  0.00
Modify  | 2.3255e-05 | 0.0031549  | 0.0067285  |   2.6 |  0.14
Other   |            | 0.2788     |            |       | 12.33

Nlocal:        2776.45 ave        3957 max           0 min
Histogram: 8 4 4 0 4 12 8 3 27 34
Nghost:        3879.01 ave        5424 max         232 min
Histogram: 8 0 8 0 16 0 8 8 16 40
Neighs:        79213.4 ave      115318 max           0 min
Histogram: 8 4 4 0 10 6 8 8 24 32

Total # of neighbors = 8238193
Ave neighs/atom = 28.530440
Neighbor list builds = 0
Dangerous builds = 0
The dot product: -5.12708466345049e-08
Setting atom values ...
  1 settings made for x
  1 settings made for y
  1 settings made for z
Setting up cg style minimization ...
  Unit style    : metal
  Current step  : 1921
Per MPI rank memory allocation (min/avg/max) = 5.441 | 5.816 | 6.074 Mbytes
Step PotEng KinEng TotEng v_fx v_fy v_fz 
    1921   -1152449.4            0   -1152449.4 -0.00089638335  0.006409842 -0.039567291 
    2000   -1152449.4            0   -1152449.4 1.741828e-05 3.6622784e-05 0.0001430559 
    2097   -1152449.4            0   -1152449.4 2.0613309e-06 6.9725336e-06 6.6851723e-06 
Loop time of 2.09142 on 104 procs for 176 steps with 288751 atoms

99.9% CPU use with 104 MPI tasks x 1 OpenMP threads

Minimization stats:
  Stopping criterion = energy tolerance
  Energy initial, next-to-last, final = 
     -1152449.36556461  -1152449.36682147  -1152449.36682147
  Force two-norm initial, final = 0.15714344 0.00014317266
  Force max component initial, final = 0.10843524 2.6017750e-05
  Final line search alpha, max atom move = 1.0000000 2.6017750e-05
  Iterations, force evaluations = 176 352

MPI task timing breakdown:
Section |  min time  |  avg time  |  max time  |%varavg| %total
---------------------------------------------------------------
Pair    | 0.53167    | 1.4856     | 1.94       |  33.1 | 71.03
Neigh   | 0          | 0          | 0          |   0.0 |  0.00
Comm    | 0.030014   | 0.34431    | 1.0275     |  47.7 | 16.46
Output  | 0.00025038 | 0.00025293 | 0.00036232 |   0.0 |  0.01
Modify  | 2.1404e-05 | 0.0029073  | 0.0061806  |   2.5 |  0.14
Other   |            | 0.2583     |            |       | 12.35

Nlocal:        2776.45 ave        3957 max           0 min
Histogram: 8 4 4 0 4 12 8 3 27 34
Nghost:        3879.01 ave        5429 max         232 min
Histogram: 8 0 8 0 16 0 8 8 16 40
Neighs:        79213.4 ave      115316 max           0 min
Histogram: 8 4 4 0 10 6 8 8 24 32

Total # of neighbors = 8238192
Ave neighs/atom = 28.530436
Neighbor list builds = 0
Dangerous builds = 0
The dot product: -1.13816788081104e-08
Setting atom values ...
  1 settings made for x
  1 settings made for y
  1 settings made for z
Setting up cg style minimization ...
  Unit style    : metal
  Current step  : 2097
Per MPI rank memory allocation (min/avg/max) = 5.441 | 5.816 | 6.074 Mbytes
Step PotEng KinEng TotEng v_fx v_fy v_fz 
    2097   -1152449.3            0   -1152449.3 -0.0025791935 0.0017222153 -0.033180402 
    2282   -1152449.4            0   -1152449.4 -3.4523367e-06 -8.5378651e-06 -1.7855134e-05 
Loop time of 2.14764 on 104 procs for 185 steps with 288751 atoms

99.9% CPU use with 104 MPI tasks x 1 OpenMP threads

Minimization stats:
  Stopping criterion = energy tolerance
  Energy initial, next-to-last, final = 
     -1152449.34984184  -1152449.35105316  -1152449.35105316
  Force two-norm initial, final = 0.15637261 8.7906980e-05
  Force max component initial, final = 0.10843579 1.7855134e-05
  Final line search alpha, max atom move = 1.0000000 1.7855134e-05
  Iterations, force evaluations = 185 370

MPI task timing breakdown:
Section |  min time  |  avg time  |  max time  |%varavg| %total
---------------------------------------------------------------
Pair    | 0.55791    | 1.551      | 2.0162     |  33.7 | 72.22
Neigh   | 0          | 0          | 0          |   0.0 |  0.00
Comm    | 0.033988   | 0.34961    | 1.0388     |  49.2 | 16.28
Output  | 0          | 0          | 0          |   0.0 |  0.00
Modify  | 2.1707e-05 | 0.0030533  | 0.0065069  |   2.6 |  0.14
Other   |            | 0.2439     |            |       | 11.36

Nlocal:        2776.45 ave        3956 max           0 min
Histogram: 8 4 4 0 4 12 8 0 30 34
Nghost:        3878.99 ave        5429 max         232 min
Histogram: 8 0 8 0 16 0 8 8 16 40
Neighs:        79213.4 ave      115274 max           0 min
Histogram: 8 4 4 0 10 6 8 8 24 32

Total # of neighbors = 8238192
Ave neighs/atom = 28.530436
Neighbor list builds = 0
Dangerous builds = 0
The dot product: 6.22688062438273e-08
Setting atom values ...
  1 settings made for x
  1 settings made for y
  1 settings made for z
Setting up cg style minimization ...
  Unit style    : metal
  Current step  : 2282
Per MPI rank memory allocation (min/avg/max) = 5.441 | 5.816 | 6.074 Mbytes
Step PotEng KinEng TotEng v_fx v_fy v_fz 
    2282   -1152449.3            0   -1152449.3 -0.0036939421 -0.0030327377 -0.027837245 
    2471   -1152449.3            0   -1152449.3 8.9459162e-07 4.6697054e-06 -6.0487473e-07 
Loop time of 2.21364 on 104 procs for 189 steps with 288751 atoms

99.9% CPU use with 104 MPI tasks x 1 OpenMP threads

Minimization stats:
  Stopping criterion = energy tolerance
  Energy initial, next-to-last, final = 
     -1152449.33266862  -1152449.33384985  -1152449.33384985
  Force two-norm initial, final = 0.15635163 7.7500908e-05
  Force max component initial, final = 0.10874487 8.4770399e-06
  Final line search alpha, max atom move = 1.0000000 8.4770399e-06
  Iterations, force evaluations = 189 378

MPI task timing breakdown:
Section |  min time  |  avg time  |  max time  |%varavg| %total
---------------------------------------------------------------
Pair    | 0.5714     | 1.5914     | 2.0783     |  34.0 | 71.89
Neigh   | 0          | 0          | 0          |   0.0 |  0.00
Comm    | 0.033333   | 0.36046    | 1.0799     |  49.8 | 16.28
Output  | 0          | 0          | 0          |   0.0 |  0.00
Modify  | 2.1681e-05 | 0.0031176  | 0.0066706  |   2.6 |  0.14
Other   |            | 0.2587     |            |       | 11.69

Nlocal:        2776.45 ave        3956 max           0 min
Histogram: 8 4 4 0 4 12 8 0 30 34
Nghost:        3878.99 ave        5424 max         232 min
Histogram: 8 0 8 0 16 0 8 8 16 40
Neighs:        79213.4 ave      115264 max           0 min
Histogram: 8 4 4 0 10 6 8 8 24 32

Total # of neighbors = 8238193
Ave neighs/atom = 28.530440
Neighbor list builds = 0
Dangerous builds = 0
The dot product: 9.90618226458556e-09
Setting atom values ...
  1 settings made for x
  1 settings made for y
  1 settings made for z
Setting up cg style minimization ...
  Unit style    : metal
  Current step  : 2471
Per MPI rank memory allocation (min/avg/max) = 5.441 | 5.816 | 6.074 Mbytes
Step PotEng KinEng TotEng v_fx v_fy v_fz 
    2471   -1152449.3            0   -1152449.3 -0.004482377 -0.0076505487 -0.023393255 
    2621   -1152449.3            0   -1152449.3 -8.8448915e-07 1.0714424e-05 -2.3891926e-05 
Loop time of 1.77547 on 104 procs for 150 steps with 288751 atoms

99.9% CPU use with 104 MPI tasks x 1 OpenMP threads

Minimization stats:
  Stopping criterion = energy tolerance
  Energy initial, next-to-last, final = 
     -1152449.31403488  -1152449.31519974  -1152449.31519974
  Force two-norm initial, final = 0.15692052 0.00024823184
  Force max component initial, final = 0.10934237 3.0611112e-05
  Final line search alpha, max atom move = 1.0000000 3.0611112e-05
  Iterations, force evaluations = 150 300

MPI task timing breakdown:
Section |  min time  |  avg time  |  max time  |%varavg| %total
---------------------------------------------------------------
Pair    | 0.45435    | 1.2617     | 1.653      |  30.4 | 71.07
Neigh   | 0          | 0          | 0          |   0.0 |  0.00
Comm    | 0.030857   | 0.28916    | 0.86671    |  44.0 | 16.29
Output  | 0          | 0          | 0          |   0.0 |  0.00
Modify  | 1.7726e-05 | 0.0024817  | 0.0052662  |   2.3 |  0.14
Other   |            | 0.2221     |            |       | 12.51

Nlocal:        2776.45 ave        3955 max           0 min
Histogram: 8 4 4 0 4 12 8 0 30 34
Nghost:        3878.99 ave        5424 max         232 min
Histogram: 8 0 8 0 16 0 8 8 16 40
Neighs:        79213.4 ave      115241 max           0 min
Histogram: 8 4 4 0 10 6 8 8 24 32

Total # of neighbors = 8238193
Ave neighs/atom = 28.530440
Neighbor list builds = 0
Dangerous builds = 0
The dot product: 8.2454489065856e-08
Setting atom values ...
  1 settings made for x
  1 settings made for y
  1 settings made for z
Setting up cg style minimization ...
  Unit style    : metal
  Current step  : 2621
Per MPI rank memory allocation (min/avg/max) = 5.441 | 5.816 | 6.074 Mbytes
Step PotEng KinEng TotEng v_fx v_fy v_fz 
    2621   -1152449.3            0   -1152449.3 -0.0051386194 -0.012157793 -0.019716134 
    2758   -1152449.3            0   -1152449.3 -1.8385841e-05 -2.8202728e-05 -9.2355134e-05 
Loop time of 1.62133 on 104 procs for 137 steps with 288751 atoms

99.9% CPU use with 104 MPI tasks x 1 OpenMP threads

Minimization stats:
  Stopping criterion = energy tolerance
  Energy initial, next-to-last, final = 
     -1152449.29393337  -1152449.29509586  -1152449.29509586
  Force two-norm initial, final = 0.15808043 0.00028026632
  Force max component initial, final = 0.11032454 9.2355134e-05
  Final line search alpha, max atom move = 1.0000000 9.2355134e-05
  Iterations, force evaluations = 137 274

MPI task timing breakdown:
Section |  min time  |  avg time  |  max time  |%varavg| %total
---------------------------------------------------------------
Pair    | 0.4154     | 1.156      | 1.5098     |  29.1 | 71.30
Neigh   | 0          | 0          | 0          |   0.0 |  0.00
Comm    | 0.02438    | 0.26307    | 0.78154    |  42.2 | 16.23
Output  | 0          | 0          | 0          |   0.0 |  0.00
Modify  | 1.6111e-05 | 0.0022663  | 0.0048293  |   2.2 |  0.14
Other   |            | 0.2        |            |       | 12.33

Nlocal:        2776.45 ave        3955 max           0 min
Histogram: 8 4 4 0 4 12 8 0 30 34
Nghost:        3878.99 ave        5424 max         232 min
Histogram: 8 0 8 0 16 0 8 8 16 40
Neighs:        79213.4 ave      115242 max           0 min
Histogram: 8 4 4 0 10 6 8 8 24 32

Total # of neighbors = 8238193
Ave neighs/atom = 28.530440
Neighbor list builds = 0
Dangerous builds = 0
The dot product: 2.69188802065269e-07
Setting atom values ...
  1 settings made for x
  1 settings made for y
  1 settings made for z
Setting up cg style minimization ...
  Unit style    : metal
  Current step  : 2758
Per MPI rank memory allocation (min/avg/max) = 5.441 | 5.816 | 6.074 Mbytes
Step PotEng KinEng TotEng v_fx v_fy v_fz 
    2758   -1152449.3            0   -1152449.3 -0.0058166891  -0.01662501 -0.016776303 
    2927   -1152449.3            0   -1152449.3 6.4966368e-06 1.1768432e-05 2.7937924e-05 
Loop time of 1.97293 on 104 procs for 169 steps with 288751 atoms

99.9% CPU use with 104 MPI tasks x 1 OpenMP threads

Minimization stats:
  Stopping criterion = energy tolerance
  Energy initial, next-to-last, final = 
     -1152449.27236303  -1152449.27353567  -1152449.27353567
  Force two-norm initial, final = 0.15978214 0.00017936868
  Force max component initial, final = 0.11158215 4.1118654e-05
  Final line search alpha, max atom move = 1.0000000 4.1118654e-05
  Iterations, force evaluations = 169 338

MPI task timing breakdown:
Section |  min time  |  avg time  |  max time  |%varavg| %total
---------------------------------------------------------------
Pair    | 0.50943    | 1.4168     | 1.8572     |  32.2 | 71.81
Neigh   | 0          | 0          | 0          |   0.0 |  0.00
Comm    | 0.029335   | 0.3201     | 0.95008    |  47.1 | 16.22
Output  | 0          | 0          | 0          |   0.0 |  0.00
Modify  | 1.9595e-05 | 0.0027885  | 0.0059461  |   2.5 |  0.14
Other   |            | 0.2332     |            |       | 11.82

Nlocal:        2776.45 ave        3954 max           0 min
Histogram: 8 4 4 0 4 12 8 0 30 34
Nghost:        3878.99 ave        5424 max         232 min
Histogram: 8 0 8 0 16 0 8 8 16 40
Neighs:        79213.4 ave      115220 max           0 min
Histogram: 8 4 4 0 10 6 8 8 24 32

Total # of neighbors = 8238191
Ave neighs/atom = 28.530433
Neighbor list builds = 0
Dangerous builds = 0
The dot product: -8.59789608026171e-08
Setting atom values ...
  1 settings made for x
  1 settings made for y
  1 settings made for z
Setting up cg style minimization ...
  Unit style    : metal
  Current step  : 2927
Per MPI rank memory allocation (min/avg/max) = 5.441 | 5.816 | 6.074 Mbytes
Step PotEng KinEng TotEng v_fx v_fy v_fz 
    2927   -1152449.2            0   -1152449.2 -0.006541333 -0.020901659 -0.014260121 
    3000   -1152449.3            0   -1152449.3 5.7921266e-06 7.9150917e-05 -6.8001345e-05 
    3081   -1152449.3            0   -1152449.3 3.5593247e-06 1.8099948e-06 2.0474077e-05 
Loop time of 1.79053 on 104 procs for 154 steps with 288751 atoms

99.9% CPU use with 104 MPI tasks x 1 OpenMP threads

Minimization stats:
  Stopping criterion = energy tolerance
  Energy initial, next-to-last, final = 
     -1152449.24932542  -1152449.25052025  -1152449.25052025
  Force two-norm initial, final = 0.16200304 0.0002244281
  Force max component initial, final = 0.11316003 5.0954101e-05
  Final line search alpha, max atom move = 1.0000000 5.0954101e-05
  Iterations, force evaluations = 154 308

MPI task timing breakdown:
Section |  min time  |  avg time  |  max time  |%varavg| %total
---------------------------------------------------------------
Pair    | 0.4646     | 1.2993     | 1.6848     |  30.8 | 72.56
Neigh   | 0          | 0          | 0          |   0.0 |  0.00
Comm    | 0.026195   | 0.29416    | 0.88609    |  45.5 | 16.43
Output  | 0.00015299 | 0.0001633  | 0.00027598 |   0.0 |  0.01
Modify  | 1.826e-05  | 0.0025482  | 0.0054261  |   2.4 |  0.14
Other   |            | 0.1944     |            |       | 10.86

Nlocal:        2776.45 ave        3954 max           0 min
Histogram: 8 4 4 0 4 12 8 0 30 34
Nghost:        3878.99 ave        5425 max         232 min
Histogram: 8 0 8 0 16 0 8 8 16 40
Neighs:        79213.3 ave      115220 max           0 min
Histogram: 8 4 4 0 10 6 8 8 24 32

Total # of neighbors = 8238188
Ave neighs/atom = 28.530422
Neighbor list builds = 0
Dangerous builds = 0
The dot product: -4.32470468400092e-08
Setting atom values ...
  1 settings made for x
  1 settings made for y
  1 settings made for z
Setting up cg style minimization ...
  Unit style    : metal
  Current step  : 3081
Per MPI rank memory allocation (min/avg/max) = 5.441 | 5.816 | 6.074 Mbytes
Step PotEng KinEng TotEng v_fx v_fy v_fz 
    3081   -1152449.2            0   -1152449.2 -0.0073396228 -0.024995209 -0.011952798 
    3210   -1152449.2            0   -1152449.2 -2.1009262e-05 -4.2921168e-05 -7.264872e-05 
Loop time of 1.50342 on 104 procs for 129 steps with 288751 atoms

99.9% CPU use with 104 MPI tasks x 1 OpenMP threads

Minimization stats:
  Stopping criterion = energy tolerance
  Energy initial, next-to-last, final = 
     -1152449.22482601  -1152449.22605548  -1152449.22605548
  Force two-norm initial, final = 0.16482469 0.00025329553
  Force max component initial, final = 0.11516261 7.2648720e-05
  Final line search alpha, max atom move = 1.0000000 7.2648720e-05
  Iterations, force evaluations = 129 258

MPI task timing breakdown:
Section |  min time  |  avg time  |  max time  |%varavg| %total
---------------------------------------------------------------
Pair    | 0.38977    | 1.0849     | 1.4143     |  28.2 | 72.16
Neigh   | 0          | 0          | 0          |   0.0 |  0.00
Comm    | 0.022701   | 0.24489    | 0.72949    |  41.4 | 16.29
Output  | 0          | 0          | 0          |   0.0 |  0.00
Modify  | 1.617e-05  | 0.002131   | 0.0045827  |   2.2 |  0.14
Other   |            | 0.1715     |            |       | 11.41

Nlocal:        2776.45 ave        3953 max           0 min
Histogram: 8 4 4 0 4 12 8 0 30 34
Nghost:        3879.03 ave        5425 max         232 min
Histogram: 8 0 8 0 16 0 8 8 16 40
Neighs:        79213.3 ave      115193 max           0 min
Histogram: 8 4 4 0 10 6 8 8 24 32

Total # of neighbors = 8238186
Ave neighs/atom = 28.530415
Neighbor list builds = 0
Dangerous builds = 0
The dot product: 2.88530601311112e-07
Setting atom values ...
  1 settings made for x
  1 settings made for y
  1 settings made for z
Setting up cg style minimization ...
  Unit style    : metal
  Current step  : 3210
Per MPI rank memory allocation (min/avg/max) = 5.441 | 5.816 | 6.074 Mbytes
Step PotEng KinEng TotEng v_fx v_fy v_fz 
    3210   -1152449.2            0   -1152449.2 -0.0082727474 -0.028956218 -0.0099087033 
    3368   -1152449.2            0   -1152449.2 9.2335897e-06 1.0714376e-05 4.0952337e-05 
Loop time of 1.84869 on 104 procs for 158 steps with 288751 atoms

99.9% CPU use with 104 MPI tasks x 1 OpenMP threads

Minimization stats:
  Stopping criterion = energy tolerance
  Energy initial, next-to-last, final = 
     -1152449.19887859  -1152449.20015501  -1152449.20015501
  Force two-norm initial, final = 0.16808026 0.00022858355
  Force max component initial, final = 0.11735529 4.0952337e-05
  Final line search alpha, max atom move = 1.0000000 4.0952337e-05
  Iterations, force evaluations = 158 316

MPI task timing breakdown:
Section |  min time  |  avg time  |  max time  |%varavg| %total
---------------------------------------------------------------
Pair    | 0.47734    | 1.3352     | 1.7281     |  31.2 | 72.23
Neigh   | 0          | 0          | 0          |   0.0 |  0.00
Comm    | 0.026443   | 0.30291    | 0.90811    |  46.0 | 16.39
Output  | 0          | 0          | 0          |   0.0 |  0.00
Modify  | 1.9229e-05 | 0.0026117  | 0.0055398  |   2.4 |  0.14
Other   |            | 0.2079     |            |       | 11.25

Nlocal:        2776.45 ave        3953 max           0 min
Histogram: 8 4 4 0 4 12 8 0 30 34
Nghost:        3879.03 ave        5425 max         232 min
Histogram: 8 0 8 0 16 0 8 8 16 40
Neighs:        79213.3 ave      115202 max           0 min
Histogram: 8 4 4 0 10 6 8 8 24 32

Total # of neighbors = 8238183
Ave neighs/atom = 28.530405
Neighbor list builds = 0
Dangerous builds = 0
The dot product: -1.04782180039819e-07
Setting atom values ...
  1 settings made for x
  1 settings made for y
  1 settings made for z
Setting up cg style minimization ...
  Unit style    : metal
  Current step  : 3368
Per MPI rank memory allocation (min/avg/max) = 5.441 | 5.816 | 6.074 Mbytes
Step PotEng KinEng TotEng v_fx v_fy v_fz 
    3368   -1152449.2            0   -1152449.2 -0.0096752185 -0.034456001 -0.0074270807 
    3520   -1152449.2            0   -1152449.2 -1.7260728e-05 -3.0935671e-05 -5.7502673e-05 
Loop time of 1.77525 on 104 procs for 152 steps with 288751 atoms

99.9% CPU use with 104 MPI tasks x 1 OpenMP threads

Minimization stats:
  Stopping criterion = energy tolerance
  Energy initial, next-to-last, final = 
     -1152449.17151465   -1152449.1728642   -1152449.1728642
  Force two-norm initial, final = 0.17210067 0.00020440064
  Force max component initial, final = 0.11988867 5.7502673e-05
  Final line search alpha, max atom move = 1.0000000 5.7502673e-05
  Iterations, force evaluations = 152 304

MPI task timing breakdown:
Section |  min time  |  avg time  |  max time  |%varavg| %total
---------------------------------------------------------------
Pair    | 0.45967    | 1.2814     | 1.6721     |  30.7 | 72.18
Neigh   | 0          | 0          | 0          |   0.0 |  0.00
Comm    | 0.027116   | 0.29023    | 0.87296    |  45.1 | 16.35
Output  | 0          | 0          | 0          |   0.0 |  0.00
Modify  | 1.8271e-05 | 0.0025109  | 0.0053401  |   2.4 |  0.14
Other   |            | 0.2011     |            |       | 11.33

Nlocal:        2776.45 ave        3951 max           0 min
Histogram: 8 4 4 0 4 12 8 0 30 34
Nghost:        3879.09 ave        5426 max         232 min
Histogram: 8 0 8 0 16 0 8 8 16 40
Neighs:        79213.3 ave      115129 max           0 min
Histogram: 8 4 4 0 10 6 8 8 24 32

Total # of neighbors = 8238184
Ave neighs/atom = 28.530409
Neighbor list builds = 0
Dangerous builds = 0
The dot product: 2.66989732148855e-07
Setting atom values ...
  1 settings made for x
  1 settings made for y
  1 settings made for z
Setting up cg style minimization ...
  Unit style    : metal
  Current step  : 3520
Per MPI rank memory allocation (min/avg/max) = 5.441 | 5.816 | 6.074 Mbytes
Step PotEng KinEng TotEng v_fx v_fy v_fz 
    3520   -1152449.1            0   -1152449.1 -0.011330957 -0.042169962 -0.0010116122 
    3663   -1152449.1            0   -1152449.1 6.4125306e-06 1.8330459e-05 9.1784503e-06 
Loop time of 1.66593 on 104 procs for 143 steps with 288751 atoms

99.9% CPU use with 104 MPI tasks x 1 OpenMP threads

Minimization stats:
  Stopping criterion = energy tolerance
  Energy initial, next-to-last, final = 
     -1152449.14278153  -1152449.14426605  -1152449.14426605
  Force two-norm initial, final = 0.17677471 0.00017097207
  Force max component initial, final = 0.1229604 3.0611929e-05
  Final line search alpha, max atom move = 1.0000000 3.0611929e-05
  Iterations, force evaluations = 143 286

MPI task timing breakdown:
Section |  min time  |  avg time  |  max time  |%varavg| %total
---------------------------------------------------------------
Pair    | 0.43096    | 1.2016     | 1.5596     |  29.5 | 72.13
Neigh   | 0          | 0          | 0          |   0.0 |  0.00
Comm    | 0.024879   | 0.2714     | 0.81642    |  43.4 | 16.29
Output  | 0          | 0          | 0          |   0.0 |  0.00
Modify  | 1.6726e-05 | 0.0023644  | 0.0050247  |   2.3 |  0.14
Other   |            | 0.1906     |            |       | 11.44

Nlocal:        2776.45 ave        3951 max           0 min
Histogram: 8 4 4 0 4 12 8 0 30 34
Nghost:        3879.07 ave        5426 max         232 min
Histogram: 8 0 8 0 16 0 8 8 16 40
Neighs:        79213.3 ave      115129 max           0 min
Histogram: 8 4 4 0 10 6 8 8 24 32

Total # of neighbors = 8238185
Ave neighs/atom = 28.530412
Neighbor list builds = 0
Dangerous builds = 0
The dot product: -1.98980993277543e-07
Setting atom values ...
  1 settings made for x
  1 settings made for y
  1 settings made for z
Setting up cg style minimization ...
  Unit style    : metal
  Current step  : 3663
Per MPI rank memory allocation (min/avg/max) = 5.441 | 5.816 | 6.074 Mbytes
Step PotEng KinEng TotEng v_fx v_fy v_fz 
    3663   -1152449.1            0   -1152449.1 -0.013551104 -0.054144446  0.013994716 
    3788   -1152449.1            0   -1152449.1 8.408933e-06 1.544433e-05 2.3114674e-05 
Loop time of 1.46547 on 104 procs for 125 steps with 288751 atoms

99.9% CPU use with 104 MPI tasks x 1 OpenMP threads

Minimization stats:
  Stopping criterion = energy tolerance
  Energy initial, next-to-last, final = 
     -1152449.11263414  -1152449.11439976  -1152449.11439976
  Force two-norm initial, final = 0.18415468 0.00016678553
  Force max component initial, final = 0.12703634 2.3114674e-05
  Final line search alpha, max atom move = 1.0000000 2.3114674e-05
  Iterations, force evaluations = 125 250

MPI task timing breakdown:
Section |  min time  |  avg time  |  max time  |%varavg| %total
---------------------------------------------------------------
Pair    | 0.37731    | 1.05       | 1.3767     |  27.7 | 71.65
Neigh   | 0          | 0          | 0          |   0.0 |  0.00
Comm    | 0.021867   | 0.23802    | 0.70467    |  40.4 | 16.24
Output  | 0          | 0          | 0          |   0.0 |  0.00
Modify  | 1.457e-05  | 0.0020667  | 0.0043921  |   2.1 |  0.14
Other   |            | 0.1753     |            |       | 11.96

Nlocal:        2776.45 ave        3949 max           0 min
Histogram: 8 4 4 0 4 12 8 0 26 38
Nghost:        3879.04 ave        5426 max         232 min
Histogram: 8 0 8 0 16 0 8 8 16 40
Neighs:        79213.3 ave      115074 max           0 min
Histogram: 8 4 4 0 10 6 8 8 24 32

Total # of neighbors = 8238184
Ave neighs/atom = 28.530409
Neighbor list builds = 0
Dangerous builds = 0
The dot product: -1.59475257022303e-07
Setting atom values ...
  1 settings made for x
  1 settings made for y
  1 settings made for z
Setting up cg style minimization ...
  Unit style    : metal
  Current step  : 3788
Per MPI rank memory allocation (min/avg/max) = 5.441 | 5.816 | 6.074 Mbytes
Step PotEng KinEng TotEng v_fx v_fy v_fz 
    3788   -1152449.1            0   -1152449.1 -0.017690016 -0.065978789  0.026643109 
    4000   -1152449.1            0   -1152449.1 -2.3303156e-08 1.3311614e-07 -4.2535476e-07 
    4056   -1152449.1            0   -1152449.1 2.3116065e-08 2.9845081e-08 8.3151526e-08 
Loop time of 3.11923 on 104 procs for 268 steps with 288751 atoms

99.9% CPU use with 104 MPI tasks x 1 OpenMP threads

Minimization stats:
  Stopping criterion = energy tolerance
  Energy initial, next-to-last, final = 
     -1152449.08116836  -1152449.08324343  -1152449.08324343
  Force two-norm initial, final = 0.19355574 2.9123832e-06
  Force max component initial, final = 0.13223745 1.9974505e-07
  Final line search alpha, max atom move = 1.0000000 1.9974505e-07
  Iterations, force evaluations = 268 536

MPI task timing breakdown:
Section |  min time  |  avg time  |  max time  |%varavg| %total
---------------------------------------------------------------
Pair    | 0.80935    | 2.2565     | 2.9364     |  40.6 | 72.34
Neigh   | 0          | 0          | 0          |   0.0 |  0.00
Comm    | 0.045147   | 0.51109    | 1.5637     |  60.0 | 16.39
Output  | 0.0002339  | 0.00024252 | 0.00038492 |   0.0 |  0.01
Modify  | 3.1495e-05 | 0.0044143  | 0.0094089  |   3.1 |  0.14
Other   |            | 0.347      |            |       | 11.12

Nlocal:        2776.45 ave        3948 max           0 min
Histogram: 8 4 4 0 4 12 8 0 26 38
Nghost:        3879.02 ave        5426 max         232 min
Histogram: 8 0 8 0 16 0 8 8 16 40
Neighs:        79213.3 ave      115039 max           0 min
Histogram: 8 4 4 0 10 6 8 8 24 32

Total # of neighbors = 8238183
Ave neighs/atom = 28.530405
Neighbor list builds = 0
Dangerous builds = 0
The dot product: -8.65529568270748e-11
Setting up cg style minimization ...
  Unit style    : metal
  Current step  : 4056
Per MPI rank memory allocation (min/avg/max) = 5.441 | 5.816 | 6.074 Mbytes
Step PotEng KinEng TotEng v_fx v_fy v_fz 
    4056   -1152449.1            0   -1152449.1   -1.5233943   0.50610888   0.24184798 
    4345   -1152449.5            0   -1152449.5 -2.7266676e-06 -6.0429536e-06 -5.4703749e-06 
Loop time of 3.38385 on 104 procs for 289 steps with 288751 atoms

99.9% CPU use with 104 MPI tasks x 1 OpenMP threads

Minimization stats:
  Stopping criterion = energy tolerance
  Energy initial, next-to-last, final = 
     -1152449.08324343  -1152449.45035272  -1152449.45035272
  Force two-norm initial, final = 1.6233813 3.0068816e-05
  Force max component initial, final = 1.5233943 6.4549929e-06
  Final line search alpha, max atom move = 1.0000000 6.4549929e-06
  Iterations, force evaluations = 289 575

MPI task timing breakdown:
Section |  min time  |  avg time  |  max time  |%varavg| %total
---------------------------------------------------------------
Pair    | 0.87534    | 2.4126     | 3.1529     |  41.8 | 71.30
Neigh   | 2.0151e-05 | 0.0058849  | 0.0084716  |   3.2 |  0.17
Comm    | 0.050782   | 0.55052    | 1.6399     |  61.0 | 16.27
Output  | 0          | 0          | 0          |   0.0 |  0.00
Modify  | 3.1121e-05 | 0.0030854  | 0.0079047  |   3.5 |  0.09
Other   |            | 0.4117     |            |       | 12.17

Nlocal:        2776.45 ave        3946 max           0 min
Histogram: 8 4 4 0 4 12 8 0 26 38
Nghost:        3878.97 ave        5425 max         232 min
Histogram: 8 0 8 0 16 0 8 8 16 40
Neighs:        79213.3 ave      114975 max           0 min
Histogram: 8 4 4 0 10 6 8 8 24 32

Total # of neighbors = 8238181
Ave neighs/atom = 28.530398
Neighbor list builds = 2
Dangerous builds = 0
OMP_NUM_THREADS environment is not set. Defaulting to 1 thread. (../comm.cpp:94)
  using 1 OpenMP thread(s) per MPI task
Reading data file ...
  orthogonal box = (-122.39241 -121.13707 -37.090501) to (122.39241 121.13707 37.090501)
  13 by 4 by 2 MPI processor grid
  reading atoms ...
  288751 atoms
  read_data CPU = 0.344 seconds
199981 atoms in group inner
88770 atoms in group outer
1 atoms in group carbon
Neighbor list info ...
  update every 1 steps, delay 0 steps, check yes
  max neighbors/atom: 2000, page size: 100000
  master list distance cutoff = 5.6
  ghost atom cutoff = 5.6
  binsize = 2.8, bins = 88 87 27
  1 neighbor lists, perpetual/occasional/extra = 1 0 0
  (1) pair eam/alloy, perpetual
      attributes: half, newton on
      pair build: half/bin/atomonly/newton
      stencil: half/bin/3d/newton
      bin: standard
Setting up cg style minimization ...
  Unit style    : metal
  Current step  : 0
Per MPI rank memory allocation (min/avg/max) = 5.441 | 5.816 | 6.074 Mbytes
Step v_fx v_fy v_fz PotEng KinEng TotEng 
       0   0.13455878    -30.30682    50.785936   -1152433.2            0   -1152433.2 
     156 -6.0991502e-06 -1.782139e-05 -7.9105871e-05   -1152449.5            0   -1152449.5 
Loop time of 1.81194 on 104 procs for 156 steps with 288751 atoms

99.9% CPU use with 104 MPI tasks x 1 OpenMP threads

Minimization stats:
  Stopping criterion = energy tolerance
  Energy initial, next-to-last, final = 
     -1152433.17620743  -1152449.45035268  -1152449.45035268
  Force two-norm initial, final = 88.547702 0.00021917624
  Force max component initial, final = 57.877628 7.9105871e-05
  Final line search alpha, max atom move = 1.0000000 7.9105871e-05
  Iterations, force evaluations = 156 304

MPI task timing breakdown:
Section |  min time  |  avg time  |  max time  |%varavg| %total
---------------------------------------------------------------
Pair    | 0.48105    | 1.288      | 1.6778     |  30.1 | 71.09
Neigh   | 5.0071e-05 | 0.014742   | 0.022265   |   5.0 |  0.81
Comm    | 0.02758    | 0.29645    | 0.86997    |  43.9 | 16.36
Output  | 0          | 0          | 0          |   0.0 |  0.00
Modify  | 1.8204e-05 | 0.0016424  | 0.0041998  |   2.5 |  0.09
Other   |            | 0.2111     |            |       | 11.65

Nlocal:        2776.45 ave        3958 max           0 min
Histogram: 8 4 4 0 4 12 8 2 28 34
Nghost:        3879.01 ave        5424 max         232 min
Histogram: 8 0 8 0 16 0 8 8 16 40
Neighs:        79213.5 ave      115372 max           0 min
Histogram: 8 4 4 0 10 6 8 8 24 32

Total # of neighbors = 8238208
Ave neighs/atom = 28.530492
Neighbor list builds = 5
Dangerous builds = 0
Setting atom values ...
  1 settings made for x
  1 settings made for y
  1 settings made for z
Setting up cg style minimization ...
  Unit style    : metal
  Current step  : 156
Per MPI rank memory allocation (min/avg/max) = 5.441 | 5.816 | 6.074 Mbytes
Step PotEng KinEng TotEng v_fx v_fy v_fz 
     156   -1152449.4            0   -1152449.4 -0.064850697 0.0023375732 -0.070146322 
     349   -1152449.4            0   -1152449.4 2.0751868e-05 -8.4447775e-06 2.9277985e-05 
Loop time of 2.28738 on 104 procs for 193 steps with 288751 atoms

99.9% CPU use with 104 MPI tasks x 1 OpenMP threads

Minimization stats:
  Stopping criterion = energy tolerance
  Energy initial, next-to-last, final = 
     -1152449.44503743  -1152449.44835229  -1152449.44835229
  Force two-norm initial, final = 0.26672069 0.00018268473
  Force max component initial, final = 0.10005128 3.9187799e-05
  Final line search alpha, max atom move = 1.0000000 3.9187799e-05
  Iterations, force evaluations = 193 386

MPI task timing breakdown:
Section |  min time  |  avg time  |  max time  |%varavg| %total
---------------------------------------------------------------
Pair    | 0.58729    | 1.6287     | 2.1422     |  34.6 | 71.20
Neigh   | 0          | 0          | 0          |   0.0 |  0.00
Comm    | 0.034163   | 0.37501    | 1.09       |  49.5 | 16.39
Output  | 0          | 0          | 0          |   0.0 |  0.00
Modify  | 2.4459e-05 | 0.0031861  | 0.0067694  |   2.7 |  0.14
Other   |            | 0.2805     |            |       | 12.26

Nlocal:        2776.45 ave        3958 max           0 min
Histogram: 8 4 4 0 4 12 8 2 28 34
Nghost:        3878.99 ave        5426 max         232 min
Histogram: 8 0 8 0 16 0 8 8 16 40
Neighs:        79213.4 ave      115354 max           0 min
Histogram: 8 4 4 0 10 6 8 8 24 32

Total # of neighbors = 8238198
Ave neighs/atom = 28.530457
Neighbor list builds = 0
Dangerous builds = 0
Setting atom values ...
  1 settings made for x
  1 settings made for y
  1 settings made for z
Setting up cg style minimization ...
  Unit style    : metal
  Current step  : 349
Per MPI rank memory allocation (min/avg/max) = 5.441 | 5.816 | 6.074 Mbytes
Step PotEng KinEng TotEng v_fx v_fy v_fz 
     349   -1152449.4            0   -1152449.4 -0.045113957 -0.0055269825  -0.06473914 
     524   -1152449.4            0   -1152449.4 2.0304726e-05 1.1097894e-05 2.0062136e-05 
Loop time of 2.04509 on 104 procs for 175 steps with 288751 atoms

99.9% CPU use with 104 MPI tasks x 1 OpenMP threads

Minimization stats:
  Stopping criterion = energy tolerance
  Energy initial, next-to-last, final = 
     -1152449.44351416  -1152449.44498542  -1152449.44498542
  Force two-norm initial, final = 0.17592638 0.00015485844
  Force max component initial, final = 0.074421831 2.0304726e-05
  Final line search alpha, max atom move = 1.0000000 2.0304726e-05
  Iterations, force evaluations = 175 350

MPI task timing breakdown:
Section |  min time  |  avg time  |  max time  |%varavg| %total
---------------------------------------------------------------
Pair    | 0.5317     | 1.4777     | 1.9256     |  32.9 | 72.26
Neigh   | 0          | 0          | 0          |   0.0 |  0.00
Comm    | 0.03041    | 0.3356     | 1.0145     |  48.5 | 16.41
Output  | 0          | 0          | 0          |   0.0 |  0.00
Modify  | 2.1614e-05 | 0.002894   | 0.0061961  |   2.5 |  0.14
Other   |            | 0.2289     |            |       | 11.19

Nlocal:        2776.45 ave        3959 max           0 min
Histogram: 8 4 4 0 4 12 8 2 28 34
Nghost:        3879.05 ave        5424 max         232 min
Histogram: 8 0 8 0 16 0 8 8 16 40
Neighs:        79213.5 ave      115392 max           0 min
Histogram: 8 4 4 0 10 6 8 8 24 32

Total # of neighbors = 8238201
Ave neighs/atom = 28.530467
Neighbor list builds = 0
Dangerous builds = 0
The dot product: -2.5303278236525e-07
Setting atom values ...
  1 settings made for x
  1 settings made for y
  1 settings made for z
Setting up cg style minimization ...
  Unit style    : metal
  Current step  : 524
Per MPI rank memory allocation (min/avg/max) = 5.441 | 5.816 | 6.074 Mbytes
Step PotEng KinEng TotEng v_fx v_fy v_fz 
     524   -1152449.4            0   -1152449.4 -0.031240149 -0.0095102759 -0.063467523 
     648   -1152449.4            0   -1152449.4 -2.1109998e-05 -1.6326269e-05 -2.9918141e-05 
Loop time of 1.45215 on 104 procs for 124 steps with 288751 atoms

99.9% CPU use with 104 MPI tasks x 1 OpenMP threads

Minimization stats:
  Stopping criterion = energy tolerance
  Energy initial, next-to-last, final = 
     -1152449.43887806  -1152449.44025061  -1152449.44025061
  Force two-norm initial, final = 0.16275419 0.00012720543
  Force max component initial, final = 0.077046533 2.9918141e-05
  Final line search alpha, max atom move = 1.0000000 2.9918141e-05
  Iterations, force evaluations = 124 248

MPI task timing breakdown:
Section |  min time  |  avg time  |  max time  |%varavg| %total
---------------------------------------------------------------
Pair    | 0.37727    | 1.0424     | 1.3645     |  27.5 | 71.78
Neigh   | 0          | 0          | 0          |   0.0 |  0.00
Comm    | 0.02185    | 0.23666    | 0.70125    |  40.2 | 16.30
Output  | 0          | 0          | 0          |   0.0 |  0.00
Modify  | 1.5504e-05 | 0.0020464  | 0.0044209  |   2.1 |  0.14
Other   |            | 0.1711     |            |       | 11.78

Nlocal:        2776.45 ave        3959 max           0 min
Histogram: 8 4 4 0 4 12 8 2 28 34
Nghost:        3879.05 ave        5424 max         232 min
Histogram: 8 0 8 0 16 0 8 8 16 40
Neighs:        79213.5 ave      115392 max           0 min
Histogram: 8 4 4 0 10 6 8 8 24 32

Total # of neighbors = 8238203
Ave neighs/atom = 28.530474
Neighbor list builds = 0
Dangerous builds = 0
The dot product: 3.84932331983094e-07
Setting atom values ...
  1 settings made for x
  1 settings made for y
  1 settings made for z
Setting up cg style minimization ...
  Unit style    : metal
  Current step  : 648
Per MPI rank memory allocation (min/avg/max) = 5.441 | 5.816 | 6.074 Mbytes
Step PotEng KinEng TotEng v_fx v_fy v_fz 
     648   -1152449.4            0   -1152449.4 -0.015983425 -0.0076792284 -0.048545985 
     785   -1152449.4            0   -1152449.4 2.5453406e-05 3.273224e-05 4.2017457e-05 
Loop time of 1.60796 on 104 procs for 137 steps with 288751 atoms

99.9% CPU use with 104 MPI tasks x 1 OpenMP threads

Minimization stats:
  Stopping criterion = energy tolerance
  Energy initial, next-to-last, final = 
     -1152449.43292111  -1152449.43417454  -1152449.43417454
  Force two-norm initial, final = 0.14991673 0.00019820808
  Force max component initial, final = 0.076841796 4.2017457e-05
  Final line search alpha, max atom move = 1.0000000 4.2017457e-05
  Iterations, force evaluations = 137 274

MPI task timing breakdown:
Section |  min time  |  avg time  |  max time  |%varavg| %total
---------------------------------------------------------------
Pair    | 0.41641    | 1.1578     | 1.511      |  29.1 | 72.01
Neigh   | 0          | 0          | 0          |   0.0 |  0.00
Comm    | 0.022482   | 0.26429    | 0.79468    |  42.9 | 16.44
Output  | 0          | 0          | 0          |   0.0 |  0.00
Modify  | 1.7224e-05 | 0.0022658  | 0.0048247  |   2.2 |  0.14
Other   |            | 0.1836     |            |       | 11.42

Nlocal:        2776.45 ave        3959 max           0 min
Histogram: 8 4 4 0 4 12 8 2 28 34
Nghost:        3879.05 ave        5424 max         232 min
Histogram: 8 0 8 0 16 0 8 8 16 40
Neighs:        79213.5 ave      115392 max           0 min
Histogram: 8 4 4 0 10 6 8 8 24 32

Total # of neighbors = 8238207
Ave neighs/atom = 28.530488
Neighbor list builds = 0
Dangerous builds = 0
The dot product: -5.03552150579181e-07
Setting atom values ...
  1 settings made for x
  1 settings made for y
  1 settings made for z
Setting up cg style minimization ...
  Unit style    : metal
  Current step  : 785
Per MPI rank memory allocation (min/avg/max) = 5.441 | 5.816 | 6.074 Mbytes
Step PotEng KinEng TotEng v_fx v_fy v_fz 
     785   -1152449.4            0   -1152449.4 -0.0053112678 -0.0020716763 -0.027793543 
     957   -1152449.4            0   -1152449.4 -1.4115719e-05 -2.2968165e-05 -3.2226058e-05 
Loop time of 2.03838 on 104 procs for 172 steps with 288751 atoms

99.9% CPU use with 104 MPI tasks x 1 OpenMP threads

Minimization stats:
  Stopping criterion = energy tolerance
  Energy initial, next-to-last, final = 
     -1152449.42557688  -1152449.42672045  -1152449.42672045
  Force two-norm initial, final = 0.14205142 0.00018979819
  Force max component initial, final = 0.078082848 5.5226633e-05
  Final line search alpha, max atom move = 1.0000000 5.5226633e-05
  Iterations, force evaluations = 172 344

MPI task timing breakdown:
Section |  min time  |  avg time  |  max time  |%varavg| %total
---------------------------------------------------------------
Pair    | 0.52304    | 1.447      | 1.9022     |  32.6 | 70.99
Neigh   | 0          | 0          | 0          |   0.0 |  0.00
Comm    | 0.03072    | 0.33226    | 0.97819    |  46.9 | 16.30
Output  | 0          | 0          | 0          |   0.0 |  0.00
Modify  | 2.1534e-05 | 0.0028392  | 0.0060344  |   2.5 |  0.14
Other   |            | 0.2563     |            |       | 12.57

Nlocal:        2776.45 ave        3959 max           0 min
Histogram: 8 4 4 0 4 12 8 2 28 34
Nghost:        3879.05 ave        5424 max         232 min
Histogram: 8 0 8 0 16 0 8 8 16 40
Neighs:        79213.5 ave      115392 max           0 min
Histogram: 8 4 4 0 10 6 8 8 24 32

Total # of neighbors = 8238207
Ave neighs/atom = 28.530488
Neighbor list builds = 0
Dangerous builds = 0
The dot product: 2.73164785021491e-07
Setting atom values ...
  1 settings made for x
  1 settings made for y
  1 settings made for z
Setting up cg style minimization ...
  Unit style    : metal
  Current step  : 957
Per MPI rank memory allocation (min/avg/max) = 5.441 | 5.816 | 6.074 Mbytes
Step PotEng KinEng TotEng v_fx v_fy v_fz 
     957   -1152449.4            0   -1152449.4 0.0012942732 0.0053938113 -0.005781832 
    1000   -1152449.4            0   -1152449.4 -0.0001177227 -0.0002990061 -0.00011528973 
    1064   -1152449.4            0   -1152449.4 -9.5346642e-06 -2.1002626e-06 -8.3353024e-05 
Loop time of 1.26632 on 104 procs for 107 steps with 288751 atoms

99.9% CPU use with 104 MPI tasks x 1 OpenMP threads

Minimization stats:
  Stopping criterion = energy tolerance
  Energy initial, next-to-last, final = 
     -1152449.41683447   -1152449.4178953   -1152449.4178953
  Force two-norm initial, final = 0.13951847 0.00031149751
  Force max component initial, final = 0.081638157 8.3353024e-05
  Final line search alpha, max atom move = 1.0000000 8.3353024e-05
  Iterations, force evaluations = 107 214

MPI task timing breakdown:
Section |  min time  |  avg time  |  max time  |%varavg| %total
---------------------------------------------------------------
Pair    | 0.32636    | 0.90544    | 1.1815     |  25.8 | 71.50
Neigh   | 0          | 0          | 0          |   0.0 |  0.00
Comm    | 0.017848   | 0.20871    | 0.61616    |  37.2 | 16.48
Output  | 0.00015248 | 0.00015832 | 0.00025956 |   0.0 |  0.01
Modify  | 1.3668e-05 | 0.0017734  | 0.0037574  |   2.0 |  0.14
Other   |            | 0.1502     |            |       | 11.86

Nlocal:        2776.45 ave        3959 max           0 min
Histogram: 8 4 4 0 4 12 8 2 28 34
Nghost:        3879.05 ave        5424 max         232 min
Histogram: 8 0 8 0 16 0 8 8 16 40
Neighs:        79213.5 ave      115392 max           0 min
Histogram: 8 4 4 0 10 6 8 8 24 32

Total # of neighbors = 8238207
Ave neighs/atom = 28.530488
Neighbor list builds = 0
Dangerous builds = 0
The dot product: 2.74462165869979e-07
Setting atom values ...
  1 settings made for x
  1 settings made for y
  1 settings made for z
Setting up cg style minimization ...
  Unit style    : metal
  Current step  : 1064
Per MPI rank memory allocation (min/avg/max) = 5.441 | 5.816 | 6.074 Mbytes
Step PotEng KinEng TotEng v_fx v_fy v_fz 
    1064   -1152449.4            0   -1152449.4 0.0061558968  0.014057297  0.017603144 
    1240   -1152449.4            0   -1152449.4 2.6725161e-06 3.8076383e-07 3.2040031e-05 
Loop time of 2.04407 on 104 procs for 176 steps with 288751 atoms

99.9% CPU use with 104 MPI tasks x 1 OpenMP threads

Minimization stats:
  Stopping criterion = energy tolerance
  Energy initial, next-to-last, final = 
     -1152449.40681455  -1152449.40786573  -1152449.40786573
  Force two-norm initial, final = 0.14217932 0.0001212273
  Force max component initial, final = 0.084178697 3.2040031e-05
  Final line search alpha, max atom move = 1.0000000 3.2040031e-05
  Iterations, force evaluations = 176 352

MPI task timing breakdown:
Section |  min time  |  avg time  |  max time  |%varavg| %total
---------------------------------------------------------------
Pair    | 0.53272    | 1.4788     | 1.9243     |  32.9 | 72.35
Neigh   | 0          | 0          | 0          |   0.0 |  0.00
Comm    | 0.031452   | 0.33406    | 0.98891    |  48.1 | 16.34
Output  | 0          | 0          | 0          |   0.0 |  0.00
Modify  | 2.1619e-05 | 0.002907   | 0.00621    |   2.5 |  0.14
Other   |            | 0.2283     |            |       | 11.17

Nlocal:        2776.45 ave        3959 max           0 min
Histogram: 8 4 4 0 4 12 8 2 28 34
Nghost:        3879.05 ave        5424 max         232 min
Histogram: 8 0 8 0 16 0 8 8 16 40
Neighs:        79213.5 ave      115392 max           0 min
Histogram: 8 4 4 0 10 6 8 8 24 32

Total # of neighbors = 8238205
Ave neighs/atom = 28.530481
Neighbor list builds = 0
Dangerous builds = 0
The dot product: 2.91394265477559e-08
Setting atom values ...
  1 settings made for x
  1 settings made for y
  1 settings made for z
Setting up cg style minimization ...
  Unit style    : metal
  Current step  : 1240
Per MPI rank memory allocation (min/avg/max) = 5.441 | 5.816 | 6.074 Mbytes
Step PotEng KinEng TotEng v_fx v_fy v_fz 
    1240   -1152449.4            0   -1152449.4  0.011802854  0.023433659  0.043809485 
    1384   -1152449.4            0   -1152449.4 -6.5976561e-07 -2.5584148e-06 2.5555193e-06 
Loop time of 1.71327 on 104 procs for 144 steps with 288751 atoms

99.9% CPU use with 104 MPI tasks x 1 OpenMP threads

Minimization stats:
  Stopping criterion = energy tolerance
  Energy initial, next-to-last, final = 
      -1152449.3959275  -1152449.39734628  -1152449.39734628
  Force two-norm initial, final = 0.15106614 2.0962110e-05
  Force max component initial, final = 0.085720635 4.5914001e-06
  Final line search alpha, max atom move = 1.0000000 4.5914001e-06
  Iterations, force evaluations = 144 288

MPI task timing breakdown:
Section |  min time  |  avg time  |  max time  |%varavg| %total
---------------------------------------------------------------
Pair    | 0.43832    | 1.2167     | 1.6092     |  30.0 | 71.02
Neigh   | 0          | 0          | 0          |   0.0 |  0.00
Comm    | 0.024441   | 0.2831     | 0.82101    |  42.5 | 16.52
Output  | 0          | 0          | 0          |   0.0 |  0.00
Modify  | 1.8862e-05 | 0.0023777  | 0.0050586  |   2.3 |  0.14
Other   |            | 0.211      |            |       | 12.32

Nlocal:        2776.45 ave        3959 max           0 min
Histogram: 8 4 4 0 4 12 8 2 28 34
Nghost:        3879.03 ave        5424 max         232 min
Histogram: 8 0 8 0 16 0 8 8 16 40
Neighs:        79213.5 ave      115392 max           0 min
Histogram: 8 4 4 0 10 6 8 8 24 32

Total # of neighbors = 8238203
Ave neighs/atom = 28.530474
Neighbor list builds = 0
Dangerous builds = 0
The dot product: 1.48430785823638e-08
Setting atom values ...
  1 settings made for x
  1 settings made for y
  1 settings made for z
Setting up cg style minimization ...
  Unit style    : metal
  Current step  : 1384
Per MPI rank memory allocation (min/avg/max) = 5.441 | 5.816 | 6.074 Mbytes
Step PotEng KinEng TotEng v_fx v_fy v_fz 
    1384   -1152449.4            0   -1152449.4  0.023171554  0.030864249  0.073610304 
    1635   -1152449.4            0   -1152449.4 -6.860839e-07 -7.5039209e-07 -2.5742454e-06 
Loop time of 2.93712 on 104 procs for 251 steps with 288751 atoms

99.9% CPU use with 104 MPI tasks x 1 OpenMP threads

Minimization stats:
  Stopping criterion = energy tolerance
  Energy initial, next-to-last, final = 
     -1152449.38577974  -1152449.38805155  -1152449.38805155
  Force two-norm initial, final = 0.16557797 9.8011879e-06
  Force max component initial, final = 0.083993017 2.5742454e-06
  Final line search alpha, max atom move = 1.0000000 2.5742454e-06
  Iterations, force evaluations = 251 502

MPI task timing breakdown:
Section |  min time  |  avg time  |  max time  |%varavg| %total
---------------------------------------------------------------
Pair    | 0.76282    | 2.1105     | 2.7675     |  39.3 | 71.86
Neigh   | 0          | 0          | 0          |   0.0 |  0.00
Comm    | 0.044556   | 0.48014    | 1.4142     |  56.9 | 16.35
Output  | 0          | 0          | 0          |   0.0 |  0.00
Modify  | 3.082e-05  | 0.0041386  | 0.0087963  |   3.0 |  0.14
Other   |            | 0.3423     |            |       | 11.65

Nlocal:        2776.45 ave        3959 max           0 min
Histogram: 8 4 4 0 4 12 8 2 28 34
Nghost:        3879.03 ave        5424 max         232 min
Histogram: 8 0 8 0 16 0 8 8 16 40
Neighs:        79213.5 ave      115392 max           0 min
Histogram: 8 4 4 0 10 6 8 8 24 32

Total # of neighbors = 8238205
Ave neighs/atom = 28.530481
Neighbor list builds = 0
Dangerous builds = 0
The dot product: -5.90212354070714e-08
Setting atom values ...
  1 settings made for x
  1 settings made for y
  1 settings made for z
Setting up cg style minimization ...
  Unit style    : metal
  Current step  : 1635
Per MPI rank memory allocation (min/avg/max) = 5.441 | 5.816 | 6.074 Mbytes
Step PotEng KinEng TotEng v_fx v_fy v_fz 
    1635   -1152449.4            0   -1152449.4  0.029058389  0.024909704  0.066885156 
    1800   -1152449.4            0   -1152449.4 -1.1657479e-05 -6.8522851e-07 -4.1423855e-05 
Loop time of 1.93752 on 104 procs for 165 steps with 288751 atoms

99.9% CPU use with 104 MPI tasks x 1 OpenMP threads

Minimization stats:
  Stopping criterion = energy tolerance
  Energy initial, next-to-last, final = 
     -1152449.37755173  -1152449.37940591  -1152449.37940591
  Force two-norm initial, final = 0.15928141 0.00018491131
  Force max component initial, final = 0.078612266 4.8134494e-05
  Final line search alpha, max atom move = 1.0000000 4.8134494e-05
  Iterations, force evaluations = 165 330

MPI task timing breakdown:
Section |  min time  |  avg time  |  max time  |%varavg| %total
---------------------------------------------------------------
Pair    | 0.50277    | 1.3965     | 1.8288     |  32.0 | 72.08
Neigh   | 0          | 0          | 0          |   0.0 |  0.00
Comm    | 0.031107   | 0.31541    | 0.94504    |  46.9 | 16.28
Output  | 0          | 0          | 0          |   0.0 |  0.00
Modify  | 2.0262e-05 | 0.0027297  | 0.0058071  |   2.5 |  0.14
Other   |            | 0.2229     |            |       | 11.50

Nlocal:        2776.45 ave        3959 max           0 min
Histogram: 8 4 4 0 4 12 8 2 28 34
Nghost:        3879.05 ave        5424 max         232 min
Histogram: 8 0 8 0 16 0 8 8 16 40
Neighs:        79213.5 ave      115400 max           0 min
Histogram: 8 4 4 0 10 6 8 8 24 32

Total # of neighbors = 8238203
Ave neighs/atom = 28.530474
Neighbor list builds = 0
Dangerous builds = 0
The dot product: -6.98965422249781e-07
Setting atom values ...
  1 settings made for x
  1 settings made for y
  1 settings made for z
Setting up cg style minimization ...
  Unit style    : metal
  Current step  : 1800
Per MPI rank memory allocation (min/avg/max) = 5.441 | 5.816 | 6.074 Mbytes
Step PotEng KinEng TotEng v_fx v_fy v_fz 
    1800   -1152449.4            0   -1152449.4  0.020818143  0.014873323  0.037812156 
    1974   -1152449.4            0   -1152449.4 1.2421974e-05 1.0799303e-05 2.0083158e-05 
Loop time of 2.04381 on 104 procs for 174 steps with 288751 atoms

99.9% CPU use with 104 MPI tasks x 1 OpenMP threads

Minimization stats:
  Stopping criterion = energy tolerance
  Energy initial, next-to-last, final = 
     -1152449.36910211  -1152449.37046517  -1152449.37046517
  Force two-norm initial, final = 0.14448836 7.8839671e-05
  Force max component initial, final = 0.073825744 2.0083158e-05
  Final line search alpha, max atom move = 1.0000000 2.0083158e-05
  Iterations, force evaluations = 174 348

MPI task timing breakdown:
Section |  min time  |  avg time  |  max time  |%varavg| %total
---------------------------------------------------------------
Pair    | 0.53073    | 1.4629     | 1.9227     |  32.7 | 71.58
Neigh   | 0          | 0          | 0          |   0.0 |  0.00
Comm    | 0.030297   | 0.33363    | 0.98005    |  47.5 | 16.32
Output  | 0          | 0          | 0          |   0.0 |  0.00
Modify  | 2.151e-05  | 0.0028758  | 0.0061268  |   2.5 |  0.14
Other   |            | 0.2444     |            |       | 11.96

Nlocal:        2776.45 ave        3959 max           0 min
Histogram: 8 4 4 0 4 12 8 2 28 34
Nghost:        3879.05 ave        5424 max         232 min
Histogram: 8 0 8 0 16 0 8 8 16 40
Neighs:        79213.5 ave      115400 max           0 min
Histogram: 8 4 4 0 10 6 8 8 24 32

Total # of neighbors = 8238201
Ave neighs/atom = 28.530467
Neighbor list builds = 0
Dangerous builds = 0
The dot product: 2.66545454971891e-07
Setting atom values ...
  1 settings made for x
  1 settings made for y
  1 settings made for z
Setting up cg style minimization ...
  Unit style    : metal
  Current step  : 1974
Per MPI rank memory allocation (min/avg/max) = 5.441 | 5.816 | 6.074 Mbytes
Step PotEng KinEng TotEng v_fx v_fy v_fz 
    1974   -1152449.4            0   -1152449.4  0.011974439 0.0083853793  0.018630989 
    2000   -1152449.4            0   -1152449.4 2.3379256e-05 -5.0073836e-06 6.1552487e-05 
    2106   -1152449.4            0   -1152449.4 -2.4426359e-05 -2.9722396e-05 -2.3146451e-05 
Loop time of 1.55616 on 104 procs for 132 steps with 288751 atoms

99.9% CPU use with 104 MPI tasks x 1 OpenMP threads

Minimization stats:
  Stopping criterion = energy tolerance
  Energy initial, next-to-last, final = 
      -1152449.3598846  -1152449.36107231  -1152449.36107231
  Force two-norm initial, final = 0.13827403 0.00021209851
  Force max component initial, final = 0.070863685 4.7199539e-05
  Final line search alpha, max atom move = 1.0000000 4.7199539e-05
  Iterations, force evaluations = 132 264

MPI task timing breakdown:
Section |  min time  |  avg time  |  max time  |%varavg| %total
---------------------------------------------------------------
Pair    | 0.40136    | 1.1165     | 1.4538     |  28.6 | 71.75
Neigh   | 0          | 0          | 0          |   0.0 |  0.00
Comm    | 0.022279   | 0.25528    | 0.76446    |  41.9 | 16.40
Output  | 0.00015484 | 0.000157   | 0.00023673 |   0.0 |  0.01
Modify  | 1.6419e-05 | 0.0021823  | 0.0046645  |   2.2 |  0.14
Other   |            | 0.182      |            |       | 11.70

Nlocal:        2776.45 ave        3959 max           0 min
Histogram: 8 4 4 0 4 12 8 2 28 34
Nghost:        3879.03 ave        5424 max         232 min
Histogram: 8 0 8 0 16 0 8 8 16 40
Neighs:        79213.5 ave      115407 max           0 min
Histogram: 8 4 4 0 10 6 8 8 24 32

Total # of neighbors = 8238201
Ave neighs/atom = 28.530467
Neighbor list builds = 0
Dangerous builds = 0
The dot product: -2.3985139541573e-07
Setting atom values ...
  1 settings made for x
  1 settings made for y
  1 settings made for z
Setting up cg style minimization ...
  Unit style    : metal
  Current step  : 2106
Per MPI rank memory allocation (min/avg/max) = 5.441 | 5.816 | 6.074 Mbytes
Step PotEng KinEng TotEng v_fx v_fy v_fz 
    2106   -1152449.4            0   -1152449.4 0.0073465163 0.0046297286  0.011030579 
    2251   -1152449.4            0   -1152449.4 -4.8010444e-06 -6.2286058e-06 -3.6216716e-06 
Loop time of 1.70751 on 104 procs for 145 steps with 288751 atoms

99.9% CPU use with 104 MPI tasks x 1 OpenMP threads

Minimization stats:
  Stopping criterion = energy tolerance
  Energy initial, next-to-last, final = 
     -1152449.35015762  -1152449.35137649  -1152449.35137649
  Force two-norm initial, final = 0.13693065 9.0050622e-05
  Force max component initial, final = 0.068856919 8.9975864e-06
  Final line search alpha, max atom move = 1.0000000 8.9975864e-06
  Iterations, force evaluations = 145 290

MPI task timing breakdown:
Section |  min time  |  avg time  |  max time  |%varavg| %total
---------------------------------------------------------------
Pair    | 0.44504    | 1.2218     | 1.6029     |  29.8 | 71.56
Neigh   | 0          | 0          | 0          |   0.0 |  0.00
Comm    | 0.028912   | 0.27869    | 0.81945    |  43.3 | 16.32
Output  | 0          | 0          | 0          |   0.0 |  0.00
Modify  | 1.8518e-05 | 0.0023977  | 0.005107   |   2.3 |  0.14
Other   |            | 0.2046     |            |       | 11.98

Nlocal:        2776.45 ave        3959 max           0 min
Histogram: 8 4 4 0 4 12 8 2 28 34
Nghost:        3879.03 ave        5424 max         232 min
Histogram: 8 0 8 0 16 0 8 8 16 40
Neighs:        79213.5 ave      115407 max           0 min
Histogram: 8 4 4 0 10 6 8 8 24 32

Total # of neighbors = 8238201
Ave neighs/atom = 28.530467
Neighbor list builds = 0
Dangerous builds = 0
The dot product: -3.2174768846045e-08
Setting atom values ...
  1 settings made for x
  1 settings made for y
  1 settings made for z
Setting up cg style minimization ...
  Unit style    : metal
  Current step  : 2251
Per MPI rank memory allocation (min/avg/max) = 5.441 | 5.816 | 6.074 Mbytes
Step PotEng KinEng TotEng v_fx v_fy v_fz 
    2251   -1152449.3            0   -1152449.3 0.0082194149 0.0019213179  0.015025117 
    2449   -1152449.3            0   -1152449.3 2.5764209e-06 2.3212706e-05 -1.9434063e-05 
Loop time of 2.31359 on 104 procs for 198 steps with 288751 atoms

99.9% CPU use with 104 MPI tasks x 1 OpenMP threads

Minimization stats:
  Stopping criterion = energy tolerance
  Energy initial, next-to-last, final = 
      -1152449.3406614  -1152449.34260875  -1152449.34260875
  Force two-norm initial, final = 0.14091196 0.00013968879
  Force max component initial, final = 0.066576928 2.9428644e-05
  Final line search alpha, max atom move = 1.0000000 2.9428644e-05
  Iterations, force evaluations = 198 396

MPI task timing breakdown:
Section |  min time  |  avg time  |  max time  |%varavg| %total
---------------------------------------------------------------
Pair    | 0.60107    | 1.6698     | 2.1755     |  35.0 | 72.17
Neigh   | 0          | 0          | 0          |   0.0 |  0.00
Comm    | 0.034418   | 0.37713    | 1.1294     |  51.4 | 16.30
Output  | 0          | 0          | 0          |   0.0 |  0.00
Modify  | 2.4143e-05 | 0.0032648  | 0.0069513  |   2.7 |  0.14
Other   |            | 0.2634     |            |       | 11.38

Nlocal:        2776.45 ave        3959 max           0 min
Histogram: 8 4 4 0 4 12 8 2 28 34
Nghost:        3879.01 ave        5424 max         232 min
Histogram: 8 0 8 0 16 0 8 8 16 40
Neighs:        79213.5 ave      115407 max           0 min
Histogram: 8 4 4 0 10 6 8 8 24 32

Total # of neighbors = 8238202
Ave neighs/atom = 28.530471
Neighbor list builds = 0
Dangerous builds = 0
The dot product: -2.58989205982211e-07
Setting atom values ...
  1 settings made for x
[...]

Nlocal:        2776.45 ave        3942 max           0 min
Histogram: 8 4 4 0 4 12 8 1 27 36
Nghost:        3879.18 ave        5425 max         232 min
Histogram: 8 0 8 0 16 0 8 8 16 40
Neighs:        79213.4 ave      114875 max           0 min
Histogram: 8 4 4 0 10 6 8 8 22 34

Total # of neighbors = 8238191
Ave neighs/atom = 28.530433
Neighbor list builds = 8
Dangerous builds = 0
The dot product: 7.14418991023307e-06
Setting atom values ...
  1 settings made for x
  1 settings made for y
  1 settings made for z
Setting up cg style minimization ...
  Unit style    : metal
  Current step  : 8513
Per MPI rank memory allocation (min/avg/max) = 5.441 | 5.816 | 6.074 Mbytes
Step PotEng KinEng TotEng v_fx v_fy v_fz 
    8513   -1152448.7            0   -1152448.7   0.14340198  -0.15651162  -0.24835421 
    8780   -1152448.7            0   -1152448.7 3.9446103e-06 -1.3760491e-06 -3.6549113e-06 
Loop time of 3.14093 on 104 procs for 267 steps with 288751 atoms

99.9% CPU use with 104 MPI tasks x 1 OpenMP threads

Minimization stats:
  Stopping criterion = energy tolerance
  Energy initial, next-to-last, final = 
     -1152448.71649481  -1152448.72929135  -1152448.72929135
  Force two-norm initial, final = 0.35241008 3.9856888e-05
  Force max component initial, final = 0.24835421 6.7957683e-06
  Final line search alpha, max atom move = 1.0000000 6.7957683e-06
  Iterations, force evaluations = 267 534

MPI task timing breakdown:
Section |  min time  |  avg time  |  max time  |%varavg| %total
---------------------------------------------------------------
Pair    | 0.80302    | 2.2533     | 2.9582     |  40.8 | 71.74
Neigh   | 1.0093e-05 | 0.0029512  | 0.004318   |   2.2 |  0.09
Comm    | 0.047439   | 0.52245    | 1.5595     |  58.9 | 16.63
Output  | 0          | 0          | 0          |   0.0 |  0.00
Modify  | 3.107e-05  | 0.0044145  | 0.0093175  |   3.1 |  0.14
Other   |            | 0.3578     |            |       | 11.39

Nlocal:        2776.45 ave        3960 max           0 min
Histogram: 8 4 4 0 4 12 8 4 26 34
Nghost:        3879.22 ave        5430 max         232 min
Histogram: 8 0 8 0 16 0 8 8 16 40
Neighs:        79213.4 ave      115432 max           0 min
Histogram: 8 4 4 0 10 6 8 8 24 32

Total # of neighbors = 8238190
Ave neighs/atom = 28.530429
Neighbor list builds = 1
Dangerous builds = 0
The dot product: 3.43075833161056e-07
Setting atom values ...
  1 settings made for x
  1 settings made for y
  1 settings made for z
Setting up cg style minimization ...
  Unit style    : metal
  Current step  : 8780
Per MPI rank memory allocation (min/avg/max) = 5.441 | 5.816 | 6.074 Mbytes
Step PotEng KinEng TotEng v_fx v_fy v_fz 
    8780   -1152448.7            0   -1152448.7 -0.0006103815  0.028686012  0.035651465 
    8927   -1152448.7            0   -1152448.7 -4.2185516e-05 -1.8447956e-06 2.3659287e-05 
Loop time of 1.73517 on 104 procs for 147 steps with 288751 atoms

99.9% CPU use with 104 MPI tasks x 1 OpenMP threads

Minimization stats:
  Stopping criterion = energy tolerance
  Energy initial, next-to-last, final = 
     -1152448.73675879  -1152448.73809617  -1152448.73809617
  Force two-norm initial, final = 0.14126455 0.00026435599
  Force max component initial, final = 0.069415374 6.9731035e-05
  Final line search alpha, max atom move = 1.0000000 6.9731035e-05
  Iterations, force evaluations = 147 294

MPI task timing breakdown:
Section |  min time  |  avg time  |  max time  |%varavg| %total
---------------------------------------------------------------
Pair    | 0.43992    | 1.2378     | 1.637      |  30.3 | 71.34
Neigh   | 0          | 0          | 0          |   0.0 |  0.00
Comm    | 0.02439    | 0.28729    | 0.83822    |  43.3 | 16.56
Output  | 0          | 0          | 0          |   0.0 |  0.00
Modify  | 1.7186e-05 | 0.0024357  | 0.0051997  |   2.3 |  0.14
Other   |            | 0.2076     |            |       | 11.96

Nlocal:        2776.45 ave        3960 max           0 min
Histogram: 8 4 4 0 4 12 8 4 26 34
Nghost:        3879.16 ave        5425 max         232 min
Histogram: 8 0 8 0 16 0 8 8 16 40
Neighs:        79213.4 ave      115423 max           0 min
Histogram: 8 4 4 0 10 6 8 8 24 32

Total # of neighbors = 8238196
Ave neighs/atom = 28.530450
Neighbor list builds = 0
Dangerous builds = 0
The dot product: 1.40703002648365e-07
Setting atom values ...
  1 settings made for x
  1 settings made for y
  1 settings made for z
Setting up cg style minimization ...
  Unit style    : metal
  Current step  : 8927
Per MPI rank memory allocation (min/avg/max) = 5.441 | 5.816 | 6.074 Mbytes
Step PotEng KinEng TotEng v_fx v_fy v_fz 
    8927   -1152448.7            0   -1152448.7 0.0038648314  0.010685681  0.010495513 
    9000   -1152448.7            0   -1152448.7 -9.7301204e-05 2.3448758e-05 8.7459449e-05 
    9127   -1152448.7            0   -1152448.7 1.4854735e-06 -1.8863397e-06 -3.1730532e-06 
Loop time of 2.36206 on 104 procs for 200 steps with 288751 atoms

99.9% CPU use with 104 MPI tasks x 1 OpenMP threads

Minimization stats:
  Stopping criterion = energy tolerance
  Energy initial, next-to-last, final = 
     -1152448.74469432  -1152448.74584233  -1152448.74584233
  Force two-norm initial, final = 0.13446681 5.9547593e-05
  Force max component initial, final = 0.068978658 1.1662750e-05
  Final line search alpha, max atom move = 1.0000000 1.1662750e-05
  Iterations, force evaluations = 200 400

MPI task timing breakdown:
Section |  min time  |  avg time  |  max time  |%varavg| %total
---------------------------------------------------------------
Pair    | 0.6008     | 1.6879     | 2.2176     |  35.4 | 71.46
Neigh   | 0          | 0          | 0          |   0.0 |  0.00
Comm    | 0.035474   | 0.39548    | 1.1769     |  50.8 | 16.74
Output  | 0.00015866 | 0.00016992 | 0.00030817 |   0.0 |  0.01
Modify  | 2.2874e-05 | 0.0033076  | 0.0070137  |   2.7 |  0.14
Other   |            | 0.2752     |            |       | 11.65

Nlocal:        2776.45 ave        3960 max           0 min
Histogram: 8 4 4 0 4 12 8 4 26 34
Nghost:        3879.16 ave        5425 max         232 min
Histogram: 8 0 8 0 16 0 8 8 16 40
Neighs:        79213.4 ave      115423 max           0 min
Histogram: 8 4 4 0 10 6 8 8 24 32

Total # of neighbors = 8238195
Ave neighs/atom = 28.530447
Neighbor list builds = 0
Dangerous builds = 0
The dot product: -1.91394032624107e-08
Setting atom values ...
  1 settings made for x
  1 settings made for y
  1 settings made for z
Setting up cg style minimization ...
  Unit style    : metal
  Current step  : 9127
Per MPI rank memory allocation (min/avg/max) = 5.441 | 5.816 | 6.074 Mbytes
Step PotEng KinEng TotEng v_fx v_fy v_fz 
    9127   -1152448.8            0   -1152448.8 0.0029212486  0.011991408  0.012496468 
    9311   -1152448.8            0   -1152448.8 -2.8350741e-06 1.1852138e-06 3.1347053e-06 
Loop time of 2.1527 on 104 procs for 184 steps with 288751 atoms

99.9% CPU use with 104 MPI tasks x 1 OpenMP threads

Minimization stats:
  Stopping criterion = energy tolerance
  Energy initial, next-to-last, final = 
     -1152448.75157964  -1152448.75276369  -1152448.75276369
  Force two-norm initial, final = 0.13511181 0.00010640457
  Force max component initial, final = 0.069396722 8.0221461e-06
  Final line search alpha, max atom move = 1.0000000 8.0221461e-06
  Iterations, force evaluations = 184 368

MPI task timing breakdown:
Section |  min time  |  avg time  |  max time  |%varavg| %total
---------------------------------------------------------------
Pair    | 0.5547     | 1.5484     | 2.0299     |  33.9 | 71.93
Neigh   | 0          | 0          | 0          |   0.0 |  0.00
Comm    | 0.031371   | 0.35459    | 1.0421     |  48.7 | 16.47
Output  | 0          | 0          | 0          |   0.0 |  0.00
Modify  | 2.1113e-05 | 0.0030402  | 0.0064314  |   2.6 |  0.14
Other   |            | 0.2466     |            |       | 11.46

Nlocal:        2776.45 ave        3960 max           0 min
Histogram: 8 4 4 0 4 12 8 4 26 34
Nghost:        3879.16 ave        5425 max         232 min
Histogram: 8 0 8 0 16 0 8 8 16 40
Neighs:        79213.4 ave      115423 max           0 min
Histogram: 8 4 4 0 10 6 8 8 24 32

Total # of neighbors = 8238195
Ave neighs/atom = 28.530447
Neighbor list builds = 0
Dangerous builds = 0
The dot product: 1.53826283327463e-08
Setting atom values ...
  1 settings made for x
  1 settings made for y
  1 settings made for z
Setting up cg style minimization ...
  Unit style    : metal
  Current step  : 9311
Per MPI rank memory allocation (min/avg/max) = 5.441 | 5.816 | 6.074 Mbytes
Step PotEng KinEng TotEng v_fx v_fy v_fz 
    9311   -1152448.8            0   -1152448.8  0.002060743  0.011702144  0.012524755 
    9500   -1152448.8            0   -1152448.8 8.5634699e-06 1.8345926e-06 -3.0364864e-06 
Loop time of 2.24211 on 104 procs for 189 steps with 288751 atoms

99.9% CPU use with 104 MPI tasks x 1 OpenMP threads

Minimization stats:
  Stopping criterion = energy tolerance
  Energy initial, next-to-last, final = 
     -1152448.75768613  -1152448.75884407  -1152448.75884407
  Force two-norm initial, final = 0.13554452 8.8741280e-05
  Force max component initial, final = 0.069644385 2.6247980e-05
  Final line search alpha, max atom move = 1.0000000 2.6247980e-05
  Iterations, force evaluations = 189 378

MPI task timing breakdown:
Section |  min time  |  avg time  |  max time  |%varavg| %total
---------------------------------------------------------------
Pair    | 0.56329    | 1.5969     | 2.1158     |  34.7 | 71.22
Neigh   | 0          | 0          | 0          |   0.0 |  0.00
Comm    | 0.033615   | 0.37919    | 1.1194     |  48.8 | 16.91
Output  | 0          | 0          | 0          |   0.0 |  0.00
Modify  | 2.1879e-05 | 0.0031181  | 0.0065977  |   2.6 |  0.14
Other   |            | 0.2629     |            |       | 11.72

Nlocal:        2776.45 ave        3960 max           0 min
Histogram: 8 4 4 0 4 12 8 3 27 34
Nghost:        3879.16 ave        5425 max         232 min
Histogram: 8 0 8 0 16 0 8 8 16 40
Neighs:        79213.4 ave      115424 max           0 min
Histogram: 8 4 4 0 10 6 8 8 24 32

Total # of neighbors = 8238194
Ave neighs/atom = 28.530443
Neighbor list builds = 0
Dangerous builds = 0
The dot product: 8.09975260559163e-09
Setting atom values ...
  1 settings made for x
  1 settings made for y
  1 settings made for z
Setting up cg style minimization ...
  Unit style    : metal
  Current step  : 9500
Per MPI rank memory allocation (min/avg/max) = 5.441 | 5.816 | 6.074 Mbytes
Step PotEng KinEng TotEng v_fx v_fy v_fz 
    9500   -1152448.8            0   -1152448.8 0.0013221101  0.011699854  0.012838508 
    9659   -1152448.8            0   -1152448.8 7.8381954e-05 -4.2154133e-06 -5.2373676e-05 
Loop time of 1.88323 on 104 procs for 159 steps with 288751 atoms

99.9% CPU use with 104 MPI tasks x 1 OpenMP threads

Minimization stats:
  Stopping criterion = energy tolerance
  Energy initial, next-to-last, final = 
      -1152448.7629293  -1152448.76407642  -1152448.76407642
  Force two-norm initial, final = 0.13606805 0.00022081737
  Force max component initial, final = 0.069958227 9.0523935e-05
  Final line search alpha, max atom move = 1.0000000 9.0523935e-05
  Iterations, force evaluations = 159 318

MPI task timing breakdown:
Section |  min time  |  avg time  |  max time  |%varavg| %total
---------------------------------------------------------------
Pair    | 0.47427    | 1.3373     | 1.7739     |  31.6 | 71.01
Neigh   | 0          | 0          | 0          |   0.0 |  0.00
Comm    | 0.02929    | 0.31025    | 0.89992    |  44.9 | 16.47
Output  | 0          | 0          | 0          |   0.0 |  0.00
Modify  | 1.8745e-05 | 0.0026292  | 0.0055901  |   2.4 |  0.14
Other   |            | 0.2331     |            |       | 12.38

Nlocal:        2776.45 ave        3960 max           0 min
Histogram: 8 4 4 0 4 12 8 3 27 34
Nghost:        3879.16 ave        5425 max         232 min
Histogram: 8 0 8 0 16 0 8 8 16 40
Neighs:        79213.4 ave      115424 max           0 min
Histogram: 8 4 4 0 10 6 8 8 24 32

Total # of neighbors = 8238196
Ave neighs/atom = 28.530450
Neighbor list builds = 0
Dangerous builds = 0
The dot product: -1.21243233672679e-07
Setting atom values ...
  1 settings made for x
  1 settings made for y
  1 settings made for z
Setting up cg style minimization ...
  Unit style    : metal
  Current step  : 9659
Per MPI rank memory allocation (min/avg/max) = 5.441 | 5.816 | 6.074 Mbytes
Step PotEng KinEng TotEng v_fx v_fy v_fz 
    9659   -1152448.8            0   -1152448.8 0.0006280993  0.011630531  0.013057359 
    9813   -1152448.8            0   -1152448.8 -6.8208866e-06 -3.9111804e-06 -3.9751984e-07 
Loop time of 1.81885 on 104 procs for 154 steps with 288751 atoms

99.9% CPU use with 104 MPI tasks x 1 OpenMP threads

Minimization stats:
  Stopping criterion = energy tolerance
  Energy initial, next-to-last, final = 
     -1152448.76733154  -1152448.76847552  -1152448.76847552
  Force two-norm initial, final = 0.13662809 0.0002332721
  Force max component initial, final = 0.070267241 5.5897974e-05
  Final line search alpha, max atom move = 1.0000000 5.5897974e-05
  Iterations, force evaluations = 154 308

MPI task timing breakdown:
Section |  min time  |  avg time  |  max time  |%varavg| %total
---------------------------------------------------------------
Pair    | 0.46081    | 1.2992     | 1.7146     |  31.1 | 71.43
Neigh   | 0          | 0          | 0          |   0.0 |  0.00
Comm    | 0.027546   | 0.30089    | 0.88134    |  44.3 | 16.54
Output  | 0          | 0          | 0          |   0.0 |  0.00
Modify  | 1.7882e-05 | 0.0025479  | 0.0054341  |   2.4 |  0.14
Other   |            | 0.2162     |            |       | 11.89

Nlocal:        2776.45 ave        3960 max           0 min
Histogram: 8 4 4 0 4 12 8 2 28 34
Nghost:        3879.16 ave        5427 max         232 min
Histogram: 8 0 8 0 16 0 8 8 16 40
Neighs:        79213.4 ave      115434 max           0 min
Histogram: 8 4 4 0 10 6 8 8 24 32

Total # of neighbors = 8238193
Ave neighs/atom = 28.530440
Neighbor list builds = 0
Dangerous builds = 0
The dot product: -2.44464352284765e-08
Setting atom values ...
  1 settings made for x
  1 settings made for y
  1 settings made for z
Setting up cg style minimization ...
  Unit style    : metal
  Current step  : 9813
Per MPI rank memory allocation (min/avg/max) = 5.441 | 5.816 | 6.074 Mbytes
Step PotEng KinEng TotEng v_fx v_fy v_fz 
    9813   -1152448.8            0   -1152448.8 -0.00022642593  0.011535229  0.013350415 
   10000   -1152448.8            0   -1152448.8 -3.4825574e-07 -5.00201e-07 -3.6305928e-07 
   10029   -1152448.8            0   -1152448.8 -1.3244329e-05 1.1790183e-06 9.3345118e-06 
Loop time of 2.57646 on 104 procs for 216 steps with 288751 atoms

99.9% CPU use with 104 MPI tasks x 1 OpenMP threads

Minimization stats:
  Stopping criterion = energy tolerance
  Energy initial, next-to-last, final = 
     -1152448.77092631  -1152448.77207449  -1152448.77207449
  Force two-norm initial, final = 0.13726589 4.5431098e-05
  Force max component initial, final = 0.070609289 1.3244329e-05
  Final line search alpha, max atom move = 1.0000000 1.3244329e-05
  Iterations, force evaluations = 216 432

MPI task timing breakdown:
Section |  min time  |  avg time  |  max time  |%varavg| %total
---------------------------------------------------------------
Pair    | 0.64417    | 1.8226     | 2.4023     |  36.9 | 70.74
Neigh   | 0          | 0          | 0          |   0.0 |  0.00
Comm    | 0.036994   | 0.42733    | 1.2339     |  52.3 | 16.59
Output  | 0.00024782 | 0.00025624 | 0.00041128 |   0.0 |  0.01
Modify  | 2.4962e-05 | 0.0035701  | 0.0075812  |   2.8 |  0.14
Other   |            | 0.3227     |            |       | 12.52

Nlocal:        2776.45 ave        3960 max           0 min
Histogram: 8 4 4 0 4 12 8 2 28 34
Nghost:        3879.18 ave        5429 max         232 min
Histogram: 8 0 8 0 16 0 8 8 16 40
Neighs:        79213.4 ave      115434 max           0 min
Histogram: 8 4 4 0 10 6 8 8 24 32

Total # of neighbors = 8238192
Ave neighs/atom = 28.530436
Neighbor list builds = 0
Dangerous builds = 0
The dot product: 2.70705649601064e-08
Setting atom values ...
  1 settings made for x
  1 settings made for y
  1 settings made for z
Setting up cg style minimization ...
  Unit style    : metal
  Current step  : 10029
Per MPI rank memory allocation (min/avg/max) = 5.441 | 5.816 | 6.074 Mbytes
Step PotEng KinEng TotEng v_fx v_fy v_fz 
   10029   -1152448.8            0   -1152448.8 -0.00099976492  0.011397248  0.013549569 
   10212   -1152448.8            0   -1152448.8 -2.3990007e-06 -4.6215614e-07 9.1742659e-07 
Loop time of 2.14928 on 104 procs for 183 steps with 288751 atoms

99.9% CPU use with 104 MPI tasks x 1 OpenMP threads

Minimization stats:
  Stopping criterion = energy tolerance
  Energy initial, next-to-last, final = 
     -1152448.77376548  -1152448.77492642  -1152448.77492642
  Force two-norm initial, final = 0.13796612 0.00010618219
  Force max component initial, final = 0.07083361 8.7164185e-06
  Final line search alpha, max atom move = 1.0000000 8.7164185e-06
  Iterations, force evaluations = 183 366

MPI task timing breakdown:
Section |  min time  |  avg time  |  max time  |%varavg| %total
---------------------------------------------------------------
Pair    | 0.54742    | 1.5415     | 2.0284     |  33.8 | 71.72
Neigh   | 0          | 0          | 0          |   0.0 |  0.00
Comm    | 0.03197    | 0.35338    | 1.0391     |  48.6 | 16.44
Output  | 0          | 0          | 0          |   0.0 |  0.00
Modify  | 2.105e-05  | 0.0030324  | 0.0064789  |   2.6 |  0.14
Other   |            | 0.2514     |            |       | 11.70

Nlocal:        2776.45 ave        3960 max           0 min
Histogram: 8 4 4 0 4 12 8 2 28 34
Nghost:        3879.20 ave        5429 max         232 min
Histogram: 8 0 8 0 16 0 8 8 16 40
Neighs:        79213.4 ave      115434 max           0 min
Histogram: 8 4 4 0 10 6 8 8 24 32

Total # of neighbors = 8238189
Ave neighs/atom = 28.530426
Neighbor list builds = 0
Dangerous builds = 0
The dot product: -5.26270494811277e-11
Setting up cg style minimization ...
  Unit style    : metal
  Current step  : 10212
Per MPI rank memory allocation (min/avg/max) = 5.441 | 5.816 | 6.074 Mbytes
Step PotEng KinEng TotEng v_fx v_fy v_fz 
   10212   -1152448.8            0   -1152448.8  0.046227035 -0.087348936  0.076885338 
   10478   -1152448.8            0   -1152448.8 2.701505e-06 -1.2056092e-07 -1.9493686e-06 
Loop time of 3.14167 on 104 procs for 266 steps with 288751 atoms

99.9% CPU use with 104 MPI tasks x 1 OpenMP threads

Minimization stats:
  Stopping criterion = energy tolerance
  Energy initial, next-to-last, final = 
     -1152448.77492642  -1152448.77903586  -1152448.77903586
  Force two-norm initial, final = 0.12521239 1.8098806e-05
  Force max component initial, final = 0.087348936 2.7015050e-06
  Final line search alpha, max atom move = 1.0000000 2.7015050e-06
  Iterations, force evaluations = 266 532

MPI task timing breakdown:
Section |  min time  |  avg time  |  max time  |%varavg| %total
---------------------------------------------------------------
Pair    | 0.79563    | 2.2353     | 2.9462     |  40.7 | 71.15
Neigh   | 0          | 0          | 0          |   0.0 |  0.00
Comm    | 0.044656   | 0.51905    | 1.5095     |  58.0 | 16.52
Output  | 0          | 0          | 0          |   0.0 |  0.00
Modify  | 2.9046e-05 | 0.0028615  | 0.0072684  |   3.3 |  0.09
Other   |            | 0.3845     |            |       | 12.24

Nlocal:        2776.45 ave        3960 max           0 min
Histogram: 8 4 4 0 4 12 8 2 28 34
Nghost:        3879.18 ave        5425 max         232 min
Histogram: 8 0 8 0 16 0 8 8 16 40
Neighs:        79213.4 ave      115433 max           0 min
Histogram: 8 4 4 0 10 6 8 8 24 32

Total # of neighbors = 8238189
Ave neighs/atom = 28.530426
Neighbor list builds = 0
Dangerous builds = 0
