LAMMPS (29 Oct 2020)
OMP_NUM_THREADS environment is not set. Defaulting to 1 thread. (../comm.cpp:94)
  using 1 OpenMP thread(s) per MPI task
OMP_NUM_THREADS environment is not set. Defaulting to 1 thread. (../comm.cpp:94)
  using 1 OpenMP thread(s) per MPI task
Reading data file ...
  orthogonal box = (-122.39241 -121.13707 -37.090501) to (122.39241 121.13707 37.090501)
  13 by 4 by 2 MPI processor grid
  reading atoms ...
  288751 atoms
  read_data CPU = 0.451 seconds
199981 atoms in group inner
88770 atoms in group outer
1 atoms in group carbon
Neighbor list info ...
  update every 1 steps, delay 0 steps, check yes
  max neighbors/atom: 2000, page size: 100000
  master list distance cutoff = 5.6
  ghost atom cutoff = 5.6
  binsize = 2.8, bins = 88 87 27
  1 neighbor lists, perpetual/occasional/extra = 1 0 0
  (1) pair eam/alloy, perpetual
      attributes: half, newton on
      pair build: half/bin/atomonly/newton
      stencil: half/bin/3d/newton
      bin: standard
Setting up cg style minimization ...
  Unit style    : metal
  Current step  : 0
Per MPI rank memory allocation (min/avg/max) = 5.441 | 5.816 | 6.074 Mbytes
Step v_fx v_fy v_fz PotEng KinEng TotEng 
       0   0.20449552   0.65209998  -0.61032476   -1152447.8            0   -1152447.8 
     164 -1.4842587e-05 2.6296614e-05 -1.1763308e-05   -1152449.5            0   -1152449.5 
Loop time of 1.93807 on 104 procs for 164 steps with 288751 atoms

99.8% CPU use with 104 MPI tasks x 1 OpenMP threads

Minimization stats:
  Stopping criterion = force tolerance
  Energy initial, next-to-last, final = 
     -1152447.84041673  -1152449.45035271  -1152449.45035271
  Force two-norm initial, final = 9.8465003 9.5721204e-05
  Force max component initial, final = 4.6667073 2.6296614e-05
  Final line search alpha, max atom move = 1.0000000 2.6296614e-05
  Iterations, force evaluations = 164 327

MPI task timing breakdown:
Section |  min time  |  avg time  |  max time  |%varavg| %total
---------------------------------------------------------------
Pair    | 0.51051    | 1.3808     | 1.7952     |  31.4 | 71.25
Neigh   | 2.1539e-05 | 0.0058534  | 0.0084476  |   3.2 |  0.30
Comm    | 0.036678   | 0.31391    | 0.92928    |  46.1 | 16.20
Output  | 0          | 0          | 0          |   0.0 |  0.00
Modify  | 1.9865e-05 | 0.0017641  | 0.0045415  |   2.6 |  0.09
Other   |            | 0.2357     |            |       | 12.16

Nlocal:        2776.45 ave        3960 max           0 min
Histogram: 8 4 4 0 4 12 8 2 28 34
Nghost:        3879.05 ave        5424 max         232 min
Histogram: 8 0 8 0 16 0 8 8 16 40
Neighs:        79213.7 ave      115436 max           0 min
Histogram: 8 4 4 0 10 6 8 8 24 32

Total # of neighbors = 8238223
Ave neighs/atom = 28.530544
Neighbor list builds = 2
Dangerous builds = 0
Setting atom values ...
  1 settings made for x
  1 settings made for y
  1 settings made for z
Setting up cg style minimization ...
  Unit style    : metal
  Current step  : 164
Per MPI rank memory allocation (min/avg/max) = 5.441 | 5.816 | 6.074 Mbytes
Step PotEng KinEng TotEng v_fx v_fy v_fz 
     164   -1152449.4            0   -1152449.4 -0.030124934  0.014563185 -0.049425403 
     368   -1152449.4            0   -1152449.4 -1.3724882e-05 5.1928822e-06 -2.5398368e-05 
Loop time of 2.39262 on 104 procs for 204 steps with 288751 atoms

99.9% CPU use with 104 MPI tasks x 1 OpenMP threads

Minimization stats:
  Stopping criterion = force tolerance
  Energy initial, next-to-last, final = 
     -1152449.44450686  -1152449.44798264  -1152449.44798264
  Force two-norm initial, final = 0.26221739 9.8227402e-05
  Force max component initial, final = 0.15216346 2.5398368e-05
  Final line search alpha, max atom move = 1.0000000 2.5398368e-05
  Iterations, force evaluations = 204 408

MPI task timing breakdown:
Section |  min time  |  avg time  |  max time  |%varavg| %total
---------------------------------------------------------------
Pair    | 0.62423    | 1.7258     | 2.2237     |  35.3 | 72.13
Neigh   | 0          | 0          | 0          |   0.0 |  0.00
Comm    | 0.047414   | 0.38658    | 1.1573     |  52.1 | 16.16
Output  | 0          | 0          | 0          |   0.0 |  0.00
Modify  | 2.8106e-05 | 0.0033675  | 0.0072369  |   2.7 |  0.14
Other   |            | 0.2768     |            |       | 11.57

Nlocal:        2776.45 ave        3961 max           0 min
Histogram: 8 4 4 0 6 10 8 2 28 34
Nghost:        3879.01 ave        5424 max         232 min
Histogram: 8 0 8 0 16 0 8 8 16 40
Neighs:        79213.4 ave      115458 max           0 min
Histogram: 8 4 4 0 10 6 8 8 24 32

Total # of neighbors = 8238197
Ave neighs/atom = 28.530454
Neighbor list builds = 0
Dangerous builds = 0
Setting atom values ...
  1 settings made for x
  1 settings made for y
  1 settings made for z
Setting up cg style minimization ...
  Unit style    : metal
  Current step  : 368
Per MPI rank memory allocation (min/avg/max) = 5.441 | 5.816 | 6.074 Mbytes
Step PotEng KinEng TotEng v_fx v_fy v_fz 
     368   -1152449.4            0   -1152449.4 -0.018866595  0.013577072 -0.031785401 
     522   -1152449.4            0   -1152449.4 -3.6138937e-05 3.8363974e-05 -3.0559293e-05 
Loop time of 1.80378 on 104 procs for 154 steps with 288751 atoms

99.9% CPU use with 104 MPI tasks x 1 OpenMP threads

Minimization stats:
  Stopping criterion = energy tolerance
  Energy initial, next-to-last, final = 
     -1152449.43930121  -1152449.44202667  -1152449.44202667
  Force two-norm initial, final = 0.22954965 0.00020814577
  Force max component initial, final = 0.1458901 4.8986300e-05
  Final line search alpha, max atom move = 1.0000000 4.8986300e-05
  Iterations, force evaluations = 154 308

MPI task timing breakdown:
Section |  min time  |  avg time  |  max time  |%varavg| %total
---------------------------------------------------------------
Pair    | 0.46977    | 1.2968     | 1.6892     |  30.8 | 71.89
Neigh   | 0          | 0          | 0          |   0.0 |  0.00
Comm    | 0.032534   | 0.29384    | 0.87822    |  44.9 | 16.29
Output  | 0          | 0          | 0          |   0.0 |  0.00
Modify  | 1.9884e-05 | 0.0025421  | 0.0054248  |   2.4 |  0.14
Other   |            | 0.2106     |            |       | 11.67

Nlocal:        2776.45 ave        3961 max           0 min
Histogram: 8 4 4 0 6 10 8 2 28 34
Nghost:        3879.01 ave        5424 max         232 min
Histogram: 8 0 8 0 16 0 8 8 16 40
Neighs:        79213.4 ave      115458 max           0 min
Histogram: 8 4 4 0 10 6 8 8 24 32

Total # of neighbors = 8238194
Ave neighs/atom = 28.530443
Neighbor list builds = 0
Dangerous builds = 0
The dot product: 1.58229176414319e-06
The angle: 88.5117622119691
Setting atom values ...
  1 settings made for x
  1 settings made for y
  1 settings made for z
Setting up cg style minimization ...
  Unit style    : metal
  Current step  : 522
Per MPI rank memory allocation (min/avg/max) = 5.441 | 5.816 | 6.074 Mbytes
Step PotEng KinEng TotEng v_fx v_fy v_fz 
     522   -1152449.4            0   -1152449.4 -0.019112936  0.019736951 -0.021685084 
     694   -1152449.4            0   -1152449.4 -1.0732239e-05 -7.9115688e-07 -4.3949166e-05 
Loop time of 2.00995 on 104 procs for 172 steps with 288751 atoms

99.9% CPU use with 104 MPI tasks x 1 OpenMP threads

Minimization stats:
  Stopping criterion = energy tolerance
  Energy initial, next-to-last, final = 
     -1152449.43004567  -1152449.43268757  -1152449.43268757
  Force two-norm initial, final = 0.22636585 0.00020836479
  Force max component initial, final = 0.15225953 4.3949166e-05
  Final line search alpha, max atom move = 1.0000000 4.3949166e-05
  Iterations, force evaluations = 172 344

MPI task timing breakdown:
Section |  min time  |  avg time  |  max time  |%varavg| %total
---------------------------------------------------------------
Pair    | 0.52905    | 1.4566     | 1.8743     |  32.5 | 72.47
Neigh   | 0          | 0          | 0          |   0.0 |  0.00
Comm    | 0.033971   | 0.32499    | 0.98381    |  48.3 | 16.17
Output  | 0          | 0          | 0          |   0.0 |  0.00
Modify  | 2.2341e-05 | 0.0028406  | 0.0061192  |   2.5 |  0.14
Other   |            | 0.2255     |            |       | 11.22

Nlocal:        2776.45 ave        3961 max           0 min
Histogram: 8 4 4 0 6 10 8 2 28 34
Nghost:        3879.01 ave        5424 max         232 min
Histogram: 8 0 8 0 16 0 8 8 16 40
Neighs:        79213.4 ave      115466 max           0 min
Histogram: 8 4 4 0 10 6 8 8 24 32

Total # of neighbors = 8238193
Ave neighs/atom = 28.530440
Neighbor list builds = 0
Dangerous builds = 0
The dot product: 5.01108089110236e-07
The angle: 89.3654463374001
Setting atom values ...
  1 settings made for x
  1 settings made for y
  1 settings made for z
Setting up cg style minimization ...
  Unit style    : metal
  Current step  : 694
Per MPI rank memory allocation (min/avg/max) = 5.441 | 5.816 | 6.074 Mbytes
Step PotEng KinEng TotEng v_fx v_fy v_fz 
     694   -1152449.4            0   -1152449.4 -0.022742332  0.030165535 -0.013416681 
     877   -1152449.4            0   -1152449.4 5.8814337e-06 1.5151992e-06 2.8352632e-05 
Loop time of 2.14511 on 104 procs for 183 steps with 288751 atoms

99.9% CPU use with 104 MPI tasks x 1 OpenMP threads

Minimization stats:
  Stopping criterion = energy tolerance
  Energy initial, next-to-last, final = 
     -1152449.41761285  -1152449.42025523  -1152449.42025523
  Force two-norm initial, final = 0.22631419 0.00010692162
  Force max component initial, final = 0.15782161 2.8352632e-05
  Final line search alpha, max atom move = 1.0000000 2.8352632e-05
  Iterations, force evaluations = 183 366

MPI task timing breakdown:
Section |  min time  |  avg time  |  max time  |%varavg| %total
---------------------------------------------------------------
Pair    | 0.56224    | 1.5382     | 1.9955     |  33.4 | 71.71
Neigh   | 0          | 0          | 0          |   0.0 |  0.00
Comm    | 0.034401   | 0.348      | 1.0386     |  48.9 | 16.22
Output  | 0          | 0          | 0          |   0.0 |  0.00
Modify  | 2.3173e-05 | 0.0030216  | 0.0064556  |   2.6 |  0.14
Other   |            | 0.2559     |            |       | 11.93

Nlocal:        2776.45 ave        3960 max           0 min
Histogram: 8 4 4 0 4 12 8 2 28 34
Nghost:        3879.01 ave        5424 max         232 min
Histogram: 8 0 8 0 16 0 8 8 16 40
Neighs:        79213.4 ave      115421 max           0 min
Histogram: 8 4 4 0 10 6 8 8 24 32

Total # of neighbors = 8238191
Ave neighs/atom = 28.530433
Neighbor list builds = 0
Dangerous builds = 0
The dot product: -1.46565519151431e-07
The angle: 90.2896146811518
Setting atom values ...
  1 settings made for x
  1 settings made for y
  1 settings made for z
Setting up cg style minimization ...
  Unit style    : metal
  Current step  : 877
Per MPI rank memory allocation (min/avg/max) = 5.441 | 5.816 | 6.074 Mbytes
Step PotEng KinEng TotEng v_fx v_fy v_fz 
     877   -1152449.4            0   -1152449.4 -0.023042955  0.037201909 -0.0071029759 
     997   -1152449.4            0   -1152449.4 -7.602048e-06 -2.1342921e-05 -8.5639987e-05 
Loop time of 1.40764 on 104 procs for 120 steps with 288751 atoms

99.9% CPU use with 104 MPI tasks x 1 OpenMP threads

Minimization stats:
  Stopping criterion = energy tolerance
  Energy initial, next-to-last, final = 
     -1152449.40226272  -1152449.40493542  -1152449.40493542
  Force two-norm initial, final = 0.22688888 0.00028619113
  Force max component initial, final = 0.16263577 8.5639987e-05
  Final line search alpha, max atom move = 1.0000000 8.5639987e-05
  Iterations, force evaluations = 120 240

MPI task timing breakdown:
Section |  min time  |  avg time  |  max time  |%varavg| %total
---------------------------------------------------------------
Pair    | 0.37246    | 1.0168     | 1.3101     |  27.0 | 72.23
Neigh   | 0          | 0          | 0          |   0.0 |  0.00
Comm    | 0.028236   | 0.22681    | 0.68517    |  40.1 | 16.11
Output  | 0          | 0          | 0          |   0.0 |  0.00
Modify  | 1.5479e-05 | 0.0019825  | 0.0042429  |   2.1 |  0.14
Other   |            | 0.1621     |            |       | 11.51

Nlocal:        2776.45 ave        3959 max           0 min
Histogram: 8 4 4 0 4 12 8 2 28 34
Nghost:        3879.01 ave        5424 max         232 min
Histogram: 8 0 8 0 16 0 8 8 16 40
Neighs:        79213.4 ave      115397 max           0 min
Histogram: 8 4 4 0 10 6 8 8 24 32

Total # of neighbors = 8238193
Ave neighs/atom = 28.530440
Neighbor list builds = 0
Dangerous builds = 0
The dot product: -7.58013228769265e-07
The angle: 90.4902736307562
Setting atom values ...
  1 settings made for x
  1 settings made for y
  1 settings made for z
Setting up cg style minimization ...
  Unit style    : metal
  Current step  : 997
Per MPI rank memory allocation (min/avg/max) = 5.441 | 5.816 | 6.074 Mbytes
Step PotEng KinEng TotEng v_fx v_fy v_fz 
     997   -1152449.4            0   -1152449.4 -0.019937635   0.03830121 -0.0033738906 
    1000   -1152449.4            0   -1152449.4  0.001221558 0.0020137903 0.0099702138 
    1182   -1152449.4            0   -1152449.4 1.1408308e-05 -1.6359614e-05 1.4371682e-05 
Loop time of 2.17094 on 104 procs for 185 steps with 288751 atoms

99.9% CPU use with 104 MPI tasks x 1 OpenMP threads

Minimization stats:
  Stopping criterion = force tolerance
  Energy initial, next-to-last, final = 
     -1152449.38403269  -1152449.38672414  -1152449.38672414
  Force two-norm initial, final = 0.22788803 9.8690742e-05
  Force max component initial, final = 0.16640749 1.6673762e-05
  Final line search alpha, max atom move = 1.0000000 1.6673762e-05
  Iterations, force evaluations = 185 370

MPI task timing breakdown:
Section |  min time  |  avg time  |  max time  |%varavg| %total
---------------------------------------------------------------
Pair    | 0.56999    | 1.5588     | 2.0154     |  33.4 | 71.80
Neigh   | 0          | 0          | 0          |   0.0 |  0.00
Comm    | 0.04457    | 0.35236    | 1.0616     |  49.7 | 16.23
Output  | 0.00013327 | 0.00013633 | 0.00018928 |   0.0 |  0.01
Modify  | 2.3986e-05 | 0.0030557  | 0.0065267  |   2.6 |  0.14
Other   |            | 0.2566     |            |       | 11.82

Nlocal:        2776.45 ave        3959 max           0 min
Histogram: 8 4 4 0 4 12 8 2 28 34
Nghost:        3879.09 ave        5424 max         232 min
Histogram: 8 0 8 0 16 0 8 8 16 40
Neighs:        79213.4 ave      115397 max           0 min
Histogram: 8 4 4 0 10 6 8 8 24 32

Total # of neighbors = 8238193
Ave neighs/atom = 28.530440
Neighbor list builds = 0
Dangerous builds = 0
The dot product: -1.03801372183641e-06
The angle: 92.420010076112
Setting atom values ...
  1 settings made for x
  1 settings made for y
  1 settings made for z
Setting up cg style minimization ...
  Unit style    : metal
  Current step  : 1182
Per MPI rank memory allocation (min/avg/max) = 5.441 | 5.816 | 6.074 Mbytes
Step PotEng KinEng TotEng v_fx v_fy v_fz 
    1182   -1152449.4            0   -1152449.4 -0.015256763  0.034385945 -0.0010395206 
    1326   -1152449.4            0   -1152449.4 -2.1105143e-05 4.4074989e-05 -8.5119053e-06 
Loop time of 1.67916 on 104 procs for 144 steps with 288751 atoms

99.9% CPU use with 104 MPI tasks x 1 OpenMP threads

Minimization stats:
  Stopping criterion = energy tolerance
  Energy initial, next-to-last, final = 
     -1152449.36287197  -1152449.36554811  -1152449.36554811
  Force two-norm initial, final = 0.22917378 0.00019920916
  Force max component initial, final = 0.16927317 4.4074989e-05
  Final line search alpha, max atom move = 1.0000000 4.4074989e-05
  Iterations, force evaluations = 144 288

MPI task timing breakdown:
Section |  min time  |  avg time  |  max time  |%varavg| %total
---------------------------------------------------------------
Pair    | 0.44487    | 1.2173     | 1.5709     |  29.5 | 72.50
Neigh   | 0          | 0          | 0          |   0.0 |  0.00
Comm    | 0.037541   | 0.27128    | 0.81977    |  44.1 | 16.16
Output  | 0          | 0          | 0          |   0.0 |  0.00
Modify  | 1.8026e-05 | 0.0023751  | 0.0050856  |   2.3 |  0.14
Other   |            | 0.1882     |            |       | 11.21

Nlocal:        2776.45 ave        3958 max           0 min
Histogram: 8 4 4 0 4 12 8 2 28 34
Nghost:        3879.09 ave        5424 max         232 min
Histogram: 8 0 8 0 16 0 8 8 16 40
Neighs:        79213.4 ave      115369 max           0 min
Histogram: 8 4 4 0 10 6 8 8 24 32

Total # of neighbors = 8238193
Ave neighs/atom = 28.530440
Neighbor list builds = 0
Dangerous builds = 0
The dot product: 2.0604686200361e-06
The angle: 87.6193074425437
Setting atom values ...
  1 settings made for x
  1 settings made for y
  1 settings made for z
Setting up cg style minimization ...
  Unit style    : metal
  Current step  : 1326
Per MPI rank memory allocation (min/avg/max) = 5.441 | 5.816 | 6.074 Mbytes
Step PotEng KinEng TotEng v_fx v_fy v_fz 
    1326   -1152449.3            0   -1152449.3 -0.010657285  0.027670449 0.00031080234 
    1512   -1152449.3            0   -1152449.3 -2.9486354e-06 2.0477284e-06 -1.0333493e-05 
Loop time of 2.18658 on 104 procs for 186 steps with 288751 atoms

99.9% CPU use with 104 MPI tasks x 1 OpenMP threads

Minimization stats:
  Stopping criterion = force tolerance
  Energy initial, next-to-last, final = 
     -1152449.33866233  -1152449.34130144  -1152449.34130144
  Force two-norm initial, final = 0.23101441 9.4346893e-05
  Force max component initial, final = 0.17168509 1.1254853e-05
  Final line search alpha, max atom move = 1.0000000 1.1254853e-05
  Iterations, force evaluations = 186 372

MPI task timing breakdown:
Section |  min time  |  avg time  |  max time  |%varavg| %total
---------------------------------------------------------------
Pair    | 0.57253    | 1.5663     | 2.0299     |  33.7 | 71.63
Neigh   | 0          | 0          | 0          |   0.0 |  0.00
Comm    | 0.040786   | 0.35542    | 1.0595     |  49.3 | 16.25
Output  | 0          | 0          | 0          |   0.0 |  0.00
Modify  | 2.3582e-05 | 0.0030747  | 0.0065949  |   2.6 |  0.14
Other   |            | 0.2618     |            |       | 11.97

Nlocal:        2776.45 ave        3958 max           0 min
Histogram: 8 4 4 0 4 12 8 2 28 34
Nghost:        3879.14 ave        5424 max         232 min
Histogram: 8 0 8 0 16 0 8 8 16 40
Neighs:        79213.4 ave      115369 max           0 min
Histogram: 8 4 4 0 10 6 8 8 24 32

Total # of neighbors = 8238192
Ave neighs/atom = 28.530436
Neighbor list builds = 0
Dangerous builds = 0
The dot product: 1.23691743694108e-07
The angle: 89.3521383327354
Setting atom values ...
  1 settings made for x
  1 settings made for y
  1 settings made for z
Setting up cg style minimization ...
  Unit style    : metal
  Current step  : 1512
Per MPI rank memory allocation (min/avg/max) = 5.441 | 5.816 | 6.074 Mbytes
Step PotEng KinEng TotEng v_fx v_fy v_fz 
    1512   -1152449.3            0   -1152449.3 -0.0065227791   0.01949358 0.0015789886 
    1697   -1152449.3            0   -1152449.3 2.5142155e-06 -4.8724525e-06 3.9620638e-06 
Loop time of 2.20197 on 104 procs for 185 steps with 288751 atoms

99.9% CPU use with 104 MPI tasks x 1 OpenMP threads

Minimization stats:
  Stopping criterion = force tolerance
  Energy initial, next-to-last, final = 
     -1152449.31128658  -1152449.31389029  -1152449.31389029
  Force two-norm initial, final = 0.23349201 9.4694428e-05
  Force max component initial, final = 0.17391249 9.7695510e-06
  Final line search alpha, max atom move = 1.0000000 9.7695510e-06
  Iterations, force evaluations = 185 370

MPI task timing breakdown:
Section |  min time  |  avg time  |  max time  |%varavg| %total
---------------------------------------------------------------
Pair    | 0.57316    | 1.5674     | 2.015      |  33.5 | 71.18
Neigh   | 0          | 0          | 0          |   0.0 |  0.00
Comm    | 0.045792   | 0.35272    | 1.063      |  49.9 | 16.02
Output  | 0          | 0          | 0          |   0.0 |  0.00
Modify  | 2.2826e-05 | 0.0030536  | 0.0065295  |   2.6 |  0.14
Other   |            | 0.2788     |            |       | 12.66

Nlocal:        2776.45 ave        3958 max           0 min
Histogram: 8 4 4 0 4 12 8 2 28 34
Nghost:        3879.16 ave        5424 max         232 min
Histogram: 8 0 8 0 16 0 8 8 16 40
Neighs:        79213.3 ave      115369 max           0 min
Histogram: 8 4 4 0 10 6 8 8 24 32

Total # of neighbors = 8238187
Ave neighs/atom = 28.530419
Neighbor list builds = 0
Dangerous builds = 0
The dot product: -1.30221912720972e-07
The angle: 91.1030378455094
Setting atom values ...
  1 settings made for x
  1 settings made for y
  1 settings made for z
Setting up cg style minimization ...
  Unit style    : metal
  Current step  : 1697
Per MPI rank memory allocation (min/avg/max) = 5.441 | 5.816 | 6.074 Mbytes
Step PotEng KinEng TotEng v_fx v_fy v_fz 
    1697   -1152449.3            0   -1152449.3 -0.0029338991  0.010304471 0.0021431597 
    1826   -1152449.3            0   -1152449.3 8.6911848e-07 4.1531001e-06 1.1200158e-05 
Loop time of 1.5094 on 104 procs for 129 steps with 288751 atoms

99.9% CPU use with 104 MPI tasks x 1 OpenMP threads

Minimization stats:
  Stopping criterion = energy tolerance
  Energy initial, next-to-last, final = 
     -1152449.28066488  -1152449.28325386  -1152449.28325386
  Force two-norm initial, final = 0.23678249 0.00021804266
  Force max component initial, final = 0.1762845 2.7921736e-05
  Final line search alpha, max atom move = 1.0000000 2.7921736e-05
  Iterations, force evaluations = 129 258

MPI task timing breakdown:
Section |  min time  |  avg time  |  max time  |%varavg| %total
---------------------------------------------------------------
Pair    | 0.39829    | 1.0892     | 1.409      |  28.1 | 72.16
Neigh   | 0          | 0          | 0          |   0.0 |  0.00
Comm    | 0.027055   | 0.24663    | 0.74825    |  41.6 | 16.34
Output  | 0          | 0          | 0          |   0.0 |  0.00
Modify  | 1.7262e-05 | 0.0021386  | 0.0045762  |   2.2 |  0.14
Other   |            | 0.1714     |            |       | 11.36

Nlocal:        2776.45 ave        3958 max           0 min
Histogram: 8 4 4 0 4 12 8 2 28 34
Nghost:        3879.14 ave        5424 max         232 min
Histogram: 8 0 8 0 16 0 8 8 16 40
Neighs:        79213.3 ave      115369 max           0 min
Histogram: 8 4 4 0 10 6 8 8 24 32

Total # of neighbors = 8238186
Ave neighs/atom = 28.530415
Neighbor list builds = 0
Dangerous builds = 0
The dot product: 2.2223411859516e-08
The angle: 89.8936866819996
Setting atom values ...
  1 settings made for x
  1 settings made for y
  1 settings made for z
Setting up cg style minimization ...
  Unit style    : metal
  Current step  : 1826
Per MPI rank memory allocation (min/avg/max) = 5.441 | 5.816 | 6.074 Mbytes
Step PotEng KinEng TotEng v_fx v_fy v_fz 
    1826   -1152449.2            0   -1152449.2 0.00043620823 -0.00033078957   0.00171026 
    2000   -1152449.2            0   -1152449.2 -1.2413805e-05 9.3820253e-06 -4.8721907e-05 
    2011   -1152449.2            0   -1152449.2 5.7120997e-06 -4.3076772e-06 2.2433891e-05 
Loop time of 2.15802 on 104 procs for 185 steps with 288751 atoms

99.9% CPU use with 104 MPI tasks x 1 OpenMP threads

Minimization stats:
  Stopping criterion = force tolerance
  Energy initial, next-to-last, final = 
        -1152449.24676   -1152449.2493676   -1152449.2493676
  Force two-norm initial, final = 0.24121361 9.8412020e-05
  Force max component initial, final = 0.17903149 2.2433891e-05
  Final line search alpha, max atom move = 1.0000000 2.2433891e-05
  Iterations, force evaluations = 185 370

MPI task timing breakdown:
Section |  min time  |  avg time  |  max time  |%varavg| %total
---------------------------------------------------------------
Pair    | 0.57154    | 1.5626     | 2.0103     |  33.5 | 72.41
Neigh   | 0          | 0          | 0          |   0.0 |  0.00
Comm    | 0.0445     | 0.34845    | 1.0513     |  49.8 | 16.15
Output  | 0.00028884 | 0.00029534 | 0.00045885 |   0.0 |  0.01
Modify  | 2.338e-05  | 0.0030523  | 0.0065527  |   2.6 |  0.14
Other   |            | 0.2436     |            |       | 11.29

Nlocal:        2776.45 ave        3958 max           0 min
Histogram: 8 4 4 0 4 12 8 2 28 34
Nghost:        3879.14 ave        5424 max         232 min
Histogram: 8 0 8 0 16 0 8 8 16 40
Neighs:        79213.3 ave      115369 max           0 min
Histogram: 8 4 4 0 10 6 8 8 24 32

Total # of neighbors = 8238183
Ave neighs/atom = 28.530405
Neighbor list builds = 0
Dangerous builds = 0
The dot product: -8.77394950964405e-08
The angle: 90.213492306362
Setting atom values ...
  1 settings made for x
  1 settings made for y
  1 settings made for z
Setting up cg style minimization ...
  Unit style    : metal
  Current step  : 2011
Per MPI rank memory allocation (min/avg/max) = 5.441 | 5.816 | 6.074 Mbytes
Step PotEng KinEng TotEng v_fx v_fy v_fz 
    2011   -1152449.2            0   -1152449.2 0.0041200554 -0.013220633 0.00045058986 
    2194   -1152449.2            0   -1152449.2 3.9884974e-06 -3.334214e-06 1.5485017e-05 
Loop time of 2.12723 on 104 procs for 183 steps with 288751 atoms

99.9% CPU use with 104 MPI tasks x 1 OpenMP threads

Minimization stats:
  Stopping criterion = force tolerance
  Energy initial, next-to-last, final = 
     -1152449.20957509  -1152449.21225879  -1152449.21225879
  Force two-norm initial, final = 0.24736542 9.5384657e-05
  Force max component initial, final = 0.18247711 1.5485017e-05
  Final line search alpha, max atom move = 1.0000000 1.5485017e-05
  Iterations, force evaluations = 183 366

MPI task timing breakdown:
Section |  min time  |  avg time  |  max time  |%varavg| %total
---------------------------------------------------------------
Pair    | 0.56333    | 1.5371     | 1.9902     |  33.3 | 72.26
Neigh   | 0          | 0          | 0          |   0.0 |  0.00
Comm    | 0.03434    | 0.34591    | 1.0419     |  49.4 | 16.26
Output  | 0          | 0          | 0          |   0.0 |  0.00
Modify  | 2.3205e-05 | 0.0030284  | 0.0064716  |   2.6 |  0.14
Other   |            | 0.2412     |            |       | 11.34

Nlocal:        2776.45 ave        3957 max           0 min
Histogram: 8 4 4 0 4 12 8 2 28 34
Nghost:        3879.14 ave        5424 max         232 min
Histogram: 8 0 8 0 16 0 8 8 16 40
Neighs:        79213.3 ave      115339 max           0 min
Histogram: 8 4 4 0 10 6 8 8 24 32

Total # of neighbors = 8238186
Ave neighs/atom = 28.530415
Neighbor list builds = 0
Dangerous builds = 0
The dot product: -3.64339002599357e-08
The angle: 90.1277988418337
Setting atom values ...
  1 settings made for x
  1 settings made for y
  1 settings made for z
Setting up cg style minimization ...
  Unit style    : metal
  Current step  : 2194
Per MPI rank memory allocation (min/avg/max) = 5.441 | 5.816 | 6.074 Mbytes
Step PotEng KinEng TotEng v_fx v_fy v_fz 
    2194   -1152449.2            0   -1152449.2 0.0088880431 -0.030225817 -0.002629653 
    2342   -1152449.2            0   -1152449.2 1.4408388e-06 -5.7681719e-06 -1.8582767e-06 
Loop time of 1.72901 on 104 procs for 148 steps with 288751 atoms

99.9% CPU use with 104 MPI tasks x 1 OpenMP threads

Minimization stats:
  Stopping criterion = energy tolerance
  Energy initial, next-to-last, final = 
     -1152449.16920519  -1152449.17209474  -1152449.17209474
  Force two-norm initial, final = 0.25596679 0.00015517206
  Force max component initial, final = 0.18704964 3.2042202e-05
  Final line search alpha, max atom move = 1.0000000 3.2042202e-05
  Iterations, force evaluations = 148 296

MPI task timing breakdown:
Section |  min time  |  avg time  |  max time  |%varavg| %total
---------------------------------------------------------------
Pair    | 0.45546    | 1.2496     | 1.6097     |  30.0 | 72.27
Neigh   | 0          | 0          | 0          |   0.0 |  0.00
Comm    | 0.032289   | 0.2783     | 0.84086    |  44.6 | 16.10
Output  | 0          | 0          | 0          |   0.0 |  0.00
Modify  | 1.849e-05  | 0.0024425  | 0.0052372  |   2.3 |  0.14
Other   |            | 0.1986     |            |       | 11.49

Nlocal:        2776.45 ave        3957 max           0 min
Histogram: 8 4 4 0 4 12 8 2 28 34
Nghost:        3879.14 ave        5424 max         232 min
Histogram: 8 0 8 0 16 0 8 8 16 40
Neighs:        79213.3 ave      115339 max           0 min
Histogram: 8 4 4 0 10 6 8 8 24 32

Total # of neighbors = 8238183
Ave neighs/atom = 28.530405
Neighbor list builds = 0
Dangerous builds = 0
The dot product: 1.27343784507431e-07
The angle: 88.8285895547832
Setting atom values ...
  1 settings made for x
  1 settings made for y
  1 settings made for z
Setting up cg style minimization ...
  Unit style    : metal
  Current step  : 2342
Per MPI rank memory allocation (min/avg/max) = 5.441 | 5.816 | 6.074 Mbytes
Step PotEng KinEng TotEng v_fx v_fy v_fz 
    2342   -1152449.1            0   -1152449.1  0.012897619 -0.049093624 -0.018695233 
    2528   -1152449.1            0   -1152449.1 1.4888319e-06 7.0869034e-06 2.1091293e-05 
Loop time of 2.17769 on 104 procs for 186 steps with 288751 atoms

99.9% CPU use with 104 MPI tasks x 1 OpenMP threads

Minimization stats:
  Stopping criterion = force tolerance
  Energy initial, next-to-last, final = 
     -1152449.12572038  -1152449.12901926  -1152449.12901926
  Force two-norm initial, final = 0.26686098 9.4509681e-05
  Force max component initial, final = 0.19378131 2.1091293e-05
  Final line search alpha, max atom move = 1.0000000 2.1091293e-05
  Iterations, force evaluations = 186 372

MPI task timing breakdown:
Section |  min time  |  avg time  |  max time  |%varavg| %total
---------------------------------------------------------------
Pair    | 0.57302    | 1.5654     | 2.0249     |  33.6 | 71.88
Neigh   | 0          | 0          | 0          |   0.0 |  0.00
Comm    | 0.039959   | 0.35184    | 1.0566     |  49.9 | 16.16
Output  | 0          | 0          | 0          |   0.0 |  0.00
Modify  | 2.4023e-05 | 0.003077   | 0.0066374  |   2.6 |  0.14
Other   |            | 0.2574     |            |       | 11.82

Nlocal:        2776.45 ave        3956 max           0 min
Histogram: 8 4 4 0 4 12 8 2 28 34
Nghost:        3879.13 ave        5424 max         232 min
Histogram: 8 0 8 0 16 0 8 8 16 40
Neighs:        79213.3 ave      115306 max           0 min
Histogram: 8 4 4 0 10 6 8 8 24 32

Total # of neighbors = 8238183
Ave neighs/atom = 28.530405
Neighbor list builds = 0
Dangerous builds = 0
The dot product: -4.66875512398021e-07
The angle: 91.1996469454253
Setting atom values ...
  1 settings made for x
  1 settings made for y
  1 settings made for z
Setting up cg style minimization ...
  Unit style    : metal
  Current step  : 2528
Per MPI rank memory allocation (min/avg/max) = 5.441 | 5.816 | 6.074 Mbytes
Step PotEng KinEng TotEng v_fx v_fy v_fz 
    2528   -1152449.1            0   -1152449.1  0.017405253 -0.064187399 -0.036235428 
    2666   -1152449.1            0   -1152449.1 2.8503931e-06 2.4553625e-06 2.2059015e-05 
Loop time of 1.65413 on 104 procs for 138 steps with 288751 atoms

99.8% CPU use with 104 MPI tasks x 1 OpenMP threads

Minimization stats:
  Stopping criterion = force tolerance
  Energy initial, next-to-last, final = 
     -1152449.07889404  -1152449.08272211  -1152449.08272212
  Force two-norm initial, final = 0.28055585 9.9980086e-05
  Force max component initial, final = 0.20247552 2.2059015e-05
  Final line search alpha, max atom move = 1.0000000 2.2059015e-05
  Iterations, force evaluations = 138 276

MPI task timing breakdown:
Section |  min time  |  avg time  |  max time  |%varavg| %total
---------------------------------------------------------------
Pair    | 0.42617    | 1.17       | 1.5071     |  29.0 | 70.73
Neigh   | 0          | 0          | 0          |   0.0 |  0.00
Comm    | 0.039451   | 0.2673     | 0.79762    |  42.9 | 16.16
Output  | 0          | 0          | 0          |   0.0 |  0.00
Modify  | 1.7779e-05 | 0.0022854  | 0.0048788  |   2.3 |  0.14
Other   |            | 0.2146     |            |       | 12.97

Nlocal:        2776.45 ave        3955 max           0 min
Histogram: 8 4 4 0 4 12 8 2 28 34
Nghost:        3879.11 ave        5424 max         232 min
Histogram: 8 0 8 0 16 0 8 8 16 40
Neighs:        79213.3 ave      115269 max           0 min
Histogram: 8 4 4 0 10 6 8 8 24 32

Total # of neighbors = 8238181
Ave neighs/atom = 28.530398
Neighbor list builds = 0
Dangerous builds = 0
The dot product: -4.60123790227772e-07
The angle: 91.1781914134142
Setting atom values ...
  1 settings made for x
  1 settings made for y
  1 settings made for z
Setting up cg style minimization ...
  Unit style    : metal
  Current step  : 2666
Per MPI rank memory allocation (min/avg/max) = 5.441 | 5.816 | 6.074 Mbytes
Step PotEng KinEng TotEng v_fx v_fy v_fz 
    2666     -1152449            0     -1152449  0.023446669 -0.075718631 -0.050011244 
    2796     -1152449            0     -1152449 -9.9947501e-06 1.8522395e-05 -1.5768924e-05 
Loop time of 1.52315 on 104 procs for 130 steps with 288751 atoms

99.9% CPU use with 104 MPI tasks x 1 OpenMP threads

Minimization stats:
  Stopping criterion = energy tolerance
  Energy initial, next-to-last, final = 
      -1152449.0289057  -1152449.03319288  -1152449.03319288
  Force two-norm initial, final = 0.29339605 0.0002097179
  Force max component initial, final = 0.21235412 3.9593086e-05
  Final line search alpha, max atom move = 1.0000000 3.9593086e-05
  Iterations, force evaluations = 130 260

MPI task timing breakdown:
Section |  min time  |  avg time  |  max time  |%varavg| %total
---------------------------------------------------------------
Pair    | 0.40499    | 1.0952     | 1.4169     |  28.0 | 71.90
Neigh   | 0          | 0          | 0          |   0.0 |  0.00
Comm    | 0.027447   | 0.24585    | 0.73525    |  41.4 | 16.14
Output  | 0          | 0          | 0          |   0.0 |  0.00
Modify  | 1.6392e-05 | 0.0021473  | 0.0046386  |   2.2 |  0.14
Other   |            | 0.1799     |            |       | 11.81

Nlocal:        2776.45 ave        3948 max           0 min
Histogram: 8 4 4 0 4 12 8 2 26 36
Nghost:        3879.11 ave        5424 max         232 min
Histogram: 8 0 8 0 16 0 8 8 16 40
Neighs:        79213.3 ave      115029 max           0 min
Histogram: 8 4 4 0 10 6 8 8 24 32

Total # of neighbors = 8238181
Ave neighs/atom = 28.530398
Neighbor list builds = 0
Dangerous builds = 0
The dot product: -4.30369726650008e-07
The angle: 90.9376609871016
Setting atom values ...
  1 settings made for x
  1 settings made for y
  1 settings made for z
Setting up cg style minimization ...
  Unit style    : metal
  Current step  : 2796
Per MPI rank memory allocation (min/avg/max) = 5.441 | 5.816 | 6.074 Mbytes
Step PotEng KinEng TotEng v_fx v_fy v_fz 
    2796     -1152449            0     -1152449  0.028631167 -0.083577518 -0.075486094 
    2996     -1152449            0     -1152449 2.4928324e-06 -4.6153408e-06 3.0130223e-06 
Loop time of 2.32426 on 104 procs for 200 steps with 288751 atoms

99.9% CPU use with 104 MPI tasks x 1 OpenMP threads

Minimization stats:
  Stopping criterion = force tolerance
  Energy initial, next-to-last, final = 
     -1152448.97611602  -1152448.98095912  -1152448.98095912
  Force two-norm initial, final = 0.30791451 9.9925780e-05
  Force max component initial, final = 0.22305932 1.5605279e-05
  Final line search alpha, max atom move = 1.0000000 1.5605279e-05
  Iterations, force evaluations = 200 400

MPI task timing breakdown:
Section |  min time  |  avg time  |  max time  |%varavg| %total
---------------------------------------------------------------
Pair    | 0.61647    | 1.6906     | 2.1697     |  34.9 | 72.74
Neigh   | 0          | 0          | 0          |   0.0 |  0.00
Comm    | 0.050235   | 0.37599    | 1.1469     |  52.0 | 16.18
Output  | 0          | 0          | 0          |   0.0 |  0.00
Modify  | 2.5569e-05 | 0.0032943  | 0.0070387  |   2.7 |  0.14
Other   |            | 0.2543     |            |       | 10.94

Nlocal:        2776.45 ave        3936 max           0 min
Histogram: 8 4 4 0 4 12 8 0 28 36
Nghost:        3879.11 ave        5424 max         232 min
Histogram: 8 0 8 0 16 0 8 8 16 40
Neighs:        79213.2 ave      114676 max           0 min
Histogram: 8 4 4 0 8 8 8 8 22 34

Total # of neighbors = 8238178
Ave neighs/atom = 28.530388
Neighbor list builds = 0
Dangerous builds = 0
The dot product: 9.41008317306455e-08
The angle: 89.1086888468322
Setting atom values ...
  1 settings made for x
  1 settings made for y
  1 settings made for z
Setting up cg style minimization ...
  Unit style    : metal
  Current step  : 2996
Per MPI rank memory allocation (min/avg/max) = 5.441 | 5.816 | 6.074 Mbytes
Step PotEng KinEng TotEng v_fx v_fy v_fz 
    2996   -1152448.9            0   -1152448.9  0.033179468 -0.084248018   -0.1048032 
    3000   -1152448.9            0   -1152448.9 -0.0052687262  0.012142196 0.0096479274 
    3248     -1152449            0     -1152449 1.0520069e-05 -1.7307473e-05 1.9991842e-05 
Loop time of 2.95145 on 104 procs for 252 steps with 288751 atoms

99.9% CPU use with 104 MPI tasks x 1 OpenMP threads

Minimization stats:
  Stopping criterion = energy tolerance
  Energy initial, next-to-last, final = 
     -1152448.92159585  -1152448.96768232  -1152448.96768232
  Force two-norm initial, final = 0.32492761 0.00011022312
  Force max component initial, final = 0.23431847 2.6156918e-05
  Final line search alpha, max atom move = 1.0000000 2.6156918e-05
  Iterations, force evaluations = 252 503

MPI task timing breakdown:
Section |  min time  |  avg time  |  max time  |%varavg| %total
---------------------------------------------------------------
Pair    | 0.78481    | 2.1195     | 2.7363     |  39.0 | 71.81
Neigh   | 2.0535e-05 | 0.005902   | 0.0085316  |   3.2 |  0.20
Comm    | 0.05572    | 0.48088    | 1.4452     |  57.7 | 16.29
Output  | 0.00020485 | 0.00021788 | 0.000279   |   0.0 |  0.01
Modify  | 3.3467e-05 | 0.0041482  | 0.0089128  |   3.0 |  0.14
Other   |            | 0.3408     |            |       | 11.55

Nlocal:        2776.45 ave        3934 max           0 min
Histogram: 8 4 4 0 4 12 8 0 28 36
Nghost:        3879.09 ave        5424 max         232 min
Histogram: 8 0 8 0 16 0 8 8 16 40
Neighs:        79213.3 ave      114617 max           0 min
Histogram: 8 4 4 0 8 8 8 8 20 36

Total # of neighbors = 8238187
Ave neighs/atom = 28.530419
Neighbor list builds = 2
Dangerous builds = 0
The dot product: -1.61174783727068e-06
The angle: 93.2466690438904
Setting atom values ...
  1 settings made for x
  1 settings made for y
  1 settings made for z
Setting up cg style minimization ...
  Unit style    : metal
  Current step  : 3248
Per MPI rank memory allocation (min/avg/max) = 5.441 | 5.816 | 6.074 Mbytes
Step PotEng KinEng TotEng v_fx v_fy v_fz 
    3248   -1152448.9            0   -1152448.9  0.040114066 -0.053288971  -0.16760079 
    3463   -1152448.9            0   -1152448.9 1.0671964e-06 -3.4236786e-06 1.4981122e-05 
Loop time of 2.5169 on 104 procs for 215 steps with 288751 atoms

99.9% CPU use with 104 MPI tasks x 1 OpenMP threads

Minimization stats:
  Stopping criterion = energy tolerance
  Energy initial, next-to-last, final = 
     -1152448.93172794  -1152448.93900309  -1152448.93900309
  Force two-norm initial, final = 0.36588624 0.00010644708
  Force max component initial, final = 0.25423562 3.3211382e-05
  Final line search alpha, max atom move = 1.0000000 3.3211382e-05
  Iterations, force evaluations = 215 430

MPI task timing breakdown:
Section |  min time  |  avg time  |  max time  |%varavg| %total
---------------------------------------------------------------
Pair    | 0.66488    | 1.8202     | 2.3431     |  36.2 | 72.32
Neigh   | 0          | 0          | 0          |   0.0 |  0.00
Comm    | 0.046352   | 0.40602    | 1.2318     |  54.0 | 16.13
Output  | 0          | 0          | 0          |   0.0 |  0.00
Modify  | 2.7608e-05 | 0.0035431  | 0.00759    |   2.8 |  0.14
Other   |            | 0.2871     |            |       | 11.41

Nlocal:        2776.45 ave        3955 max           0 min
Histogram: 8 4 4 0 4 12 8 2 28 34
Nghost:        3879.16 ave        5424 max         232 min
Histogram: 8 0 8 0 16 0 8 8 16 40
Neighs:        79213.3 ave      115272 max           0 min
Histogram: 8 4 4 0 10 6 8 8 24 32

Total # of neighbors = 8238183
Ave neighs/atom = 28.530405
Neighbor list builds = 0
Dangerous builds = 0
The dot product: -7.99587999097232e-07
The angle: 92.9753651560016
Setting atom values ...
  1 settings made for x
  1 settings made for y
  1 settings made for z
Setting up cg style minimization ...
  Unit style    : metal
  Current step  : 3463
Per MPI rank memory allocation (min/avg/max) = 5.441 | 5.816 | 6.074 Mbytes
Step PotEng KinEng TotEng v_fx v_fy v_fz 
    3463   -1152448.9            0   -1152448.9  0.023185763 -0.019886234 -0.089144161 
    3634   -1152448.9            0   -1152448.9 -4.6908383e-06 6.2689892e-06 7.5331019e-06 
Loop time of 1.99633 on 104 procs for 171 steps with 288751 atoms

99.9% CPU use with 104 MPI tasks x 1 OpenMP threads

Minimization stats:
  Stopping criterion = energy tolerance
  Energy initial, next-to-last, final = 
     -1152448.90341533   -1152448.9090047   -1152448.9090047
  Force two-norm initial, final = 0.34325759 0.00016350161
  Force max component initial, final = 0.26088244 3.1137201e-05
  Final line search alpha, max atom move = 1.0000000 3.1137201e-05
  Iterations, force evaluations = 171 342

MPI task timing breakdown:
Section |  min time  |  avg time  |  max time  |%varavg| %total
---------------------------------------------------------------
Pair    | 0.52446    | 1.4438     | 1.8668     |  32.5 | 72.32
Neigh   | 0          | 0          | 0          |   0.0 |  0.00
Comm    | 0.033756   | 0.32513    | 0.985      |  48.2 | 16.29
Output  | 0          | 0          | 0          |   0.0 |  0.00
Modify  | 2.1854e-05 | 0.0028185  | 0.0060313  |   2.5 |  0.14
Other   |            | 0.2245     |            |       | 11.25

Nlocal:        2776.45 ave        3950 max           0 min
Histogram: 8 4 4 0 4 12 8 2 26 36
Nghost:        3879.16 ave        5424 max         232 min
Histogram: 8 0 8 0 16 0 8 8 16 40
Neighs:        79213.3 ave      115091 max           0 min
Histogram: 8 4 4 0 10 6 8 8 24 32

Total # of neighbors = 8238182
Ave neighs/atom = 28.530402
Neighbor list builds = 0
Dangerous builds = 0
The dot product: -2.77478691380822e-07
The angle: 91.463400361597
Setting atom values ...
  1 settings made for x
  1 settings made for y
  1 settings made for z
Setting up cg style minimization ...
  Unit style    : metal
  Current step  : 3634
Per MPI rank memory allocation (min/avg/max) = 5.441 | 5.816 | 6.074 Mbytes
Step PotEng KinEng TotEng v_fx v_fy v_fz 
    3634   -1152448.9            0   -1152448.9  0.012913765 -0.008219165 -0.049105189 
    3833   -1152448.9            0   -1152448.9 -8.2712869e-06 1.1749531e-05 7.0930659e-06 
Loop time of 2.31702 on 104 procs for 199 steps with 288751 atoms

99.9% CPU use with 104 MPI tasks x 1 OpenMP threads

Minimization stats:
  Stopping criterion = energy tolerance
  Energy initial, next-to-last, final = 
     -1152448.87278686   -1152448.8769715   -1152448.8769715
  Force two-norm initial, final = 0.3341594 0.00012395997
  Force max component initial, final = 0.26640568 2.6737430e-05
  Final line search alpha, max atom move = 1.0000000 2.6737430e-05
  Iterations, force evaluations = 199 398

MPI task timing breakdown:
Section |  min time  |  avg time  |  max time  |%varavg| %total
---------------------------------------------------------------
Pair    | 0.61326    | 1.6761     | 2.1649     |  34.7 | 72.34
Neigh   | 0          | 0          | 0          |   0.0 |  0.00
Comm    | 0.050164   | 0.3737     | 1.126      |  51.6 | 16.13
Output  | 0          | 0          | 0          |   0.0 |  0.00
Modify  | 2.4317e-05 | 0.0032845  | 0.0070358  |   2.7 |  0.14
Other   |            | 0.2639     |            |       | 11.39

Nlocal:        2776.45 ave        3950 max           0 min
Histogram: 8 4 4 0 4 12 8 2 26 36
Nghost:        3879.12 ave        5424 max         232 min
Histogram: 8 0 8 0 16 0 8 8 16 40
Neighs:        79213.3 ave      115091 max           0 min
Histogram: 8 4 4 0 10 6 8 8 24 32

Total # of neighbors = 8238180
Ave neighs/atom = 28.530395
Neighbor list builds = 0
Dangerous builds = 0
The dot product: -1.02019034029245e-07
The angle: 90.3647778847131
Setting atom values ...
  1 settings made for x
  1 settings made for y
  1 settings made for z
Setting up cg style minimization ...
  Unit style    : metal
  Current step  : 3833
Per MPI rank memory allocation (min/avg/max) = 5.441 | 5.816 | 6.074 Mbytes
Step PotEng KinEng TotEng v_fx v_fy v_fz 
    3833   -1152448.8            0   -1152448.8 0.0071989818 -0.0044421985 -0.025783132 
    4000   -1152448.8            0   -1152448.8 3.5909392e-05 -5.1355546e-05 -2.6578396e-05 
    4034   -1152448.8            0   -1152448.8 -2.8484749e-06 5.1165535e-06 -1.5358944e-06 
Loop time of 2.3739 on 104 procs for 201 steps with 288751 atoms

99.9% CPU use with 104 MPI tasks x 1 OpenMP threads

Minimization stats:
  Stopping criterion = energy tolerance
  Energy initial, next-to-last, final = 
     -1152448.83614325  -1152448.84059998  -1152448.84059998
  Force two-norm initial, final = 0.34096072 0.00013150168
  Force max component initial, final = 0.27146921 4.7271716e-05
  Final line search alpha, max atom move = 1.0000000 4.7271716e-05
  Iterations, force evaluations = 201 402

MPI task timing breakdown:
Section |  min time  |  avg time  |  max time  |%varavg| %total
---------------------------------------------------------------
Pair    | 0.6194     | 1.6934     | 2.1917     |  35.0 | 71.33
Neigh   | 0          | 0          | 0          |   0.0 |  0.00
Comm    | 0.041155   | 0.38328    | 1.1421     |  51.3 | 16.15
Output  | 0.00028756 | 0.00029843 | 0.00045967 |   0.0 |  0.01
Modify  | 2.6519e-05 | 0.0033275  | 0.0070895  |   2.7 |  0.14
Other   |            | 0.2936     |            |       | 12.37

Nlocal:        2776.45 ave        3945 max           0 min
Histogram: 8 4 4 0 4 12 8 2 26 36
Nghost:        3879.12 ave        5424 max         232 min
Histogram: 8 0 8 0 16 0 8 8 16 40
Neighs:        79213.3 ave      114920 max           0 min
Histogram: 8 4 4 0 10 6 8 8 22 34

Total # of neighbors = 8238179
Ave neighs/atom = 28.530391
Neighbor list builds = 0
Dangerous builds = 0
The dot product: 9.37881051015208e-09
The angle: 89.9112389737113
Setting atom values ...
  1 settings made for x
  1 settings made for y
  1 settings made for z
Setting up cg style minimization ...
  Unit style    : metal
  Current step  : 4034
Per MPI rank memory allocation (min/avg/max) = 5.441 | 5.816 | 6.074 Mbytes
Step PotEng KinEng TotEng v_fx v_fy v_fz 
    4034   -1152448.8            0   -1152448.8  0.004694936 -0.0031139606 -0.015734243 
    4224   -1152448.8            0   -1152448.8 5.0645337e-07 8.2444589e-06 -3.0995401e-05 
Loop time of 2.21567 on 104 procs for 190 steps with 288751 atoms

99.9% CPU use with 104 MPI tasks x 1 OpenMP threads

Minimization stats:
  Stopping criterion = energy tolerance
  Energy initial, next-to-last, final = 
     -1152448.79446056  -1152448.79926066  -1152448.79926066
  Force two-norm initial, final = 0.3509181 0.00018231714
  Force max component initial, final = 0.2765336 6.5133965e-05
  Final line search alpha, max atom move = 1.0000000 6.5133965e-05
  Iterations, force evaluations = 190 380

MPI task timing breakdown:
Section |  min time  |  avg time  |  max time  |%varavg| %total
---------------------------------------------------------------
Pair    | 0.58274    | 1.6039     | 2.06       |  34.1 | 72.39
Neigh   | 0          | 0          | 0          |   0.0 |  0.00
Comm    | 0.043971   | 0.35867    | 1.0828     |  50.5 | 16.19
Output  | 0          | 0          | 0          |   0.0 |  0.00
Modify  | 2.4694e-05 | 0.003138   | 0.0067132  |   2.6 |  0.14
Other   |            | 0.25       |            |       | 11.28

Nlocal:        2776.45 ave        3934 max           0 min
Histogram: 8 4 4 0 4 12 8 0 28 36
Nghost:        3879.12 ave        5424 max         232 min
Histogram: 8 0 8 0 16 0 8 8 16 40
Neighs:        79213.2 ave      114586 max           0 min
Histogram: 8 4 4 0 8 8 8 8 20 36

Total # of neighbors = 8238175
Ave neighs/atom = 28.530377
Neighbor list builds = 0
Dangerous builds = 0
The dot product: 2.39502617334831e-08
The angle: 89.957220333707
Setting atom values ...
  1 settings made for x
  1 settings made for y
  1 settings made for z
Setting up cg style minimization ...
  Unit style    : metal
  Current step  : 4224
Per MPI rank memory allocation (min/avg/max) = 5.441 | 5.816 | 6.074 Mbytes
Step PotEng KinEng TotEng v_fx v_fy v_fz 
    4224   -1152448.7            0   -1152448.7 0.0040054339 -0.0032428465 -0.011439589 
    4439   -1152448.8            0   -1152448.8 4.8567667e-06 -7.1629642e-06 -2.8991557e-06 
Loop time of 2.50505 on 104 procs for 215 steps with 288751 atoms

99.9% CPU use with 104 MPI tasks x 1 OpenMP threads

Minimization stats:
  Stopping criterion = force tolerance
  Energy initial, next-to-last, final = 
     -1152448.74761493  -1152448.75265598  -1152448.75265598
  Force two-norm initial, final = 0.35934729 9.9109208e-05
  Force max component initial, final = 0.28184048 3.2802756e-05
  Final line search alpha, max atom move = 1.0000000 3.2802756e-05
  Iterations, force evaluations = 215 430

MPI task timing breakdown:
Section |  min time  |  avg time  |  max time  |%varavg| %total
---------------------------------------------------------------
Pair    | 0.65916    | 1.8069     | 2.3425     |  36.2 | 72.13
Neigh   | 0          | 0          | 0          |   0.0 |  0.00
Comm    | 0.043718   | 0.4062     | 1.2173     |  53.3 | 16.22
Output  | 0          | 0          | 0          |   0.0 |  0.00
Modify  | 2.6548e-05 | 0.0035547  | 0.0076252  |   2.8 |  0.14
Other   |            | 0.2884     |            |       | 11.51

Nlocal:        2776.45 ave        3931 max           0 min
Histogram: 8 4 4 0 4 12 8 0 26 38
Nghost:        3879.11 ave        5424 max         232 min
Histogram: 8 0 8 0 16 0 8 8 16 40
Neighs:        79213.2 ave      114502 max           0 min
Histogram: 8 4 4 0 8 8 8 8 20 36

Total # of neighbors = 8238169
Ave neighs/atom = 28.530357
Neighbor list builds = 0
Dangerous builds = 0
The dot product: -1.63867002988724e-08
The angle: 90.1028699139467
Setting atom values ...
  1 settings made for x
  1 settings made for y
  1 settings made for z
Setting up cg style minimization ...
  Unit style    : metal
  Current step  : 4439
Per MPI rank memory allocation (min/avg/max) = 5.441 | 5.816 | 6.074 Mbytes
Step PotEng KinEng TotEng v_fx v_fy v_fz 
    4439   -1152448.7            0   -1152448.7 0.0042822608 -0.0041197257 -0.010123769 
    4655   -1152448.7            0   -1152448.7 -2.0622766e-07 1.4056427e-06 -3.6199124e-06 
Loop time of 2.54419 on 104 procs for 216 steps with 288751 atoms

99.9% CPU use with 104 MPI tasks x 1 OpenMP threads

Minimization stats:
  Stopping criterion = force tolerance
  Energy initial, next-to-last, final = 
     -1152448.69547091  -1152448.70063532  -1152448.70063532
  Force two-norm initial, final = 0.36521922 9.6676930e-05
  Force max component initial, final = 0.28705949 3.1193807e-05
  Final line search alpha, max atom move = 1.0000000 3.1193807e-05
  Iterations, force evaluations = 216 432

MPI task timing breakdown:
Section |  min time  |  avg time  |  max time  |%varavg| %total
---------------------------------------------------------------
Pair    | 0.67537    | 1.8365     | 2.3549     |  36.3 | 72.19
Neigh   | 0          | 0          | 0          |   0.0 |  0.00
Comm    | 0.044373   | 0.40953    | 1.2471     |  54.0 | 16.10
Output  | 0          | 0          | 0          |   0.0 |  0.00
Modify  | 2.7154e-05 | 0.0035716  | 0.007659   |   2.8 |  0.14
Other   |            | 0.2945     |            |       | 11.58

Nlocal:        2776.45 ave        3930 max           0 min
Histogram: 8 4 4 0 4 12 8 0 26 38
Nghost:        3879.09 ave        5424 max         232 min
Histogram: 8 0 8 0 16 0 8 8 16 40
Neighs:        79213.1 ave      114461 max           0 min
Histogram: 8 4 4 0 8 8 8 8 20 36

Total # of neighbors = 8238166
Ave neighs/atom = 28.530346
Neighbor list builds = 0
Dangerous builds = 0
The dot product: -2.37272517028382e-09
The angle: 90.0349593744244
Setting atom values ...
  1 settings made for x
  1 settings made for y
  1 settings made for z
Setting up cg style minimization ...
  Unit style    : metal
  Current step  : 4655
Per MPI rank memory allocation (min/avg/max) = 5.441 | 5.816 | 6.074 Mbytes
Step PotEng KinEng TotEng v_fx v_fy v_fz 
    4655   -1152448.6            0   -1152448.6 0.0051368455 -0.0054123598 -0.010699274 
    4867   -1152448.6            0   -1152448.6 -7.4532354e-07 2.6219448e-06 -4.7307998e-06 
Loop time of 2.47284 on 104 procs for 212 steps with 288751 atoms

99.9% CPU use with 104 MPI tasks x 1 OpenMP threads

Minimization stats:
  Stopping criterion = energy tolerance
  Energy initial, next-to-last, final = 
     -1152448.63797294  -1152448.64317331  -1152448.64317331
  Force two-norm initial, final = 0.36950548 0.00010839299
  Force max component initial, final = 0.29258554 4.0151083e-05
  Final line search alpha, max atom move = 1.0000000 4.0151083e-05
  Iterations, force evaluations = 212 424

MPI task timing breakdown:
Section |  min time  |  avg time  |  max time  |%varavg| %total
---------------------------------------------------------------
Pair    | 0.65323    | 1.7814     | 2.3007     |  35.9 | 72.04
Neigh   | 0          | 0          | 0          |   0.0 |  0.00
Comm    | 0.040909   | 0.40139    | 1.2034     |  52.9 | 16.23
Output  | 0          | 0          | 0          |   0.0 |  0.00
Modify  | 2.7279e-05 | 0.0034944  | 0.0074947  |   2.8 |  0.14
Other   |            | 0.2866     |            |       | 11.59

Nlocal:        2776.45 ave        3930 max           0 min
Histogram: 8 4 4 0 4 12 8 0 26 38
Nghost:        3879.07 ave        5424 max         232 min
Histogram: 8 0 8 0 16 0 8 8 16 40
Neighs:        79213.1 ave      114454 max           0 min
Histogram: 8 4 4 0 8 8 8 8 20 36

Total # of neighbors = 8238163
Ave neighs/atom = 28.530336
Neighbor list builds = 0
Dangerous builds = 0
The dot product: -3.57539093044456e-09
The angle: 90.0375198478124
Setting atom values ...
  1 settings made for x
  1 settings made for y
  1 settings made for z
Setting up cg style minimization ...
  Unit style    : metal
  Current step  : 4867
Per MPI rank memory allocation (min/avg/max) = 5.441 | 5.816 | 6.074 Mbytes
Step PotEng KinEng TotEng v_fx v_fy v_fz 
    4867   -1152448.6            0   -1152448.6  0.006480168 -0.007135942 -0.012635064 
    5000   -1152448.6            0   -1152448.6 -2.8918556e-06 9.5234358e-06 -1.6210094e-05 
    5084   -1152448.6            0   -1152448.6 -2.5151728e-07 1.6350569e-06 -4.1905614e-06 
Loop time of 2.55701 on 104 procs for 217 steps with 288751 atoms

99.9% CPU use with 104 MPI tasks x 1 OpenMP threads

Minimization stats:
  Stopping criterion = force tolerance
  Energy initial, next-to-last, final = 
     -1152448.57516538  -1152448.58033642  -1152448.58033642
  Force two-norm initial, final = 0.3729695 9.8055444e-05
  Force max component initial, final = 0.29818067 3.5122230e-05
  Final line search alpha, max atom move = 1.0000000 3.5122230e-05
  Iterations, force evaluations = 217 434

MPI task timing breakdown:
Section |  min time  |  avg time  |  max time  |%varavg| %total
---------------------------------------------------------------
Pair    | 0.67222    | 1.8365     | 2.3536     |  36.3 | 71.82
Neigh   | 0          | 0          | 0          |   0.0 |  0.00
Comm    | 0.051886   | 0.41117    | 1.2406     |  54.1 | 16.08
Output  | 0.00026682 | 0.00027683 | 0.0004352  |   0.0 |  0.01
Modify  | 2.9322e-05 | 0.0035781  | 0.0076715  |   2.8 |  0.14
Other   |            | 0.3055     |            |       | 11.95

Nlocal:        2776.45 ave        3930 max           0 min
Histogram: 8 4 4 0 4 12 8 0 26 38
Nghost:        3879.11 ave        5425 max         232 min
Histogram: 8 0 8 0 16 0 8 8 16 40
Neighs:        79213.1 ave      114452 max           0 min
Histogram: 8 4 4 0 8 8 8 8 20 36

Total # of neighbors = 8238161
Ave neighs/atom = 28.530329
Neighbor list builds = 0
Dangerous builds = 0
The dot product: -4.88662300288427e-09
The angle: 90.0621456196144
Setting atom values ...
  1 settings made for x
  1 settings made for y
  1 settings made for z
Setting up cg style minimization ...
  Unit style    : metal
  Current step  : 5084
Per MPI rank memory allocation (min/avg/max) = 5.441 | 5.816 | 6.074 Mbytes
Step PotEng KinEng TotEng v_fx v_fy v_fz 
    5084   -1152448.5            0   -1152448.5 0.0084027222 -0.0094869148 -0.015794147 
    5229   -1152448.5            0   -1152448.5 -5.0811082e-06 4.2026734e-06 1.4883442e-05 
Loop time of 1.69091 on 104 procs for 145 steps with 288751 atoms

99.9% CPU use with 104 MPI tasks x 1 OpenMP threads

Minimization stats:
  Stopping criterion = energy tolerance
  Energy initial, next-to-last, final = 
     -1152448.50714491  -1152448.51225702  -1152448.51225702
  Force two-norm initial, final = 0.37641287 0.00027138724
  Force max component initial, final = 0.30388416 0.00011256904
  Final line search alpha, max atom move = 1.0000000 0.00011256904
  Iterations, force evaluations = 145 290

MPI task timing breakdown:
Section |  min time  |  avg time  |  max time  |%varavg| %total
---------------------------------------------------------------
Pair    | 0.44568    | 1.2238     | 1.5808     |  29.9 | 72.37
Neigh   | 0          | 0          | 0          |   0.0 |  0.00
Comm    | 0.030815   | 0.275      | 0.82885    |  44.3 | 16.26
Output  | 0          | 0          | 0          |   0.0 |  0.00
Modify  | 1.8432e-05 | 0.0023945  | 0.0051221  |   2.3 |  0.14
Other   |            | 0.1898     |            |       | 11.22

Nlocal:        2776.45 ave        3930 max           0 min
Histogram: 8 4 4 0 4 12 8 0 27 37
Nghost:        3879.14 ave        5425 max         232 min
Histogram: 8 0 8 0 16 0 8 8 16 40
Neighs:        79213.1 ave      114453 max           0 min
Histogram: 8 4 4 0 8 8 8 8 20 36

Total # of neighbors = 8238161
Ave neighs/atom = 28.530329
Neighbor list builds = 0
Dangerous builds = 0
The dot product: 2.20190652352731e-08
The angle: 89.9225000921705
Setting atom values ...
  1 settings made for x
  1 settings made for y
  1 settings made for z
Setting up cg style minimization ...
  Unit style    : metal
  Current step  : 5229
Per MPI rank memory allocation (min/avg/max) = 5.441 | 5.816 | 6.074 Mbytes
Step PotEng KinEng TotEng v_fx v_fy v_fz 
    5229   -1152448.4            0   -1152448.4  0.011132351 -0.012874457 -0.020074344 
    5432   -1152448.4            0   -1152448.4 -3.5266857e-08 -3.721899e-06 1.3267774e-05 
Loop time of 2.40219 on 104 procs for 203 steps with 288751 atoms

99.9% CPU use with 104 MPI tasks x 1 OpenMP threads

Minimization stats:
  Stopping criterion = energy tolerance
  Energy initial, next-to-last, final = 
     -1152448.43407259  -1152448.43912314  -1152448.43912314
  Force two-norm initial, final = 0.38115694 0.00014413614
  Force max component initial, final = 0.3105087 5.6220398e-05
  Final line search alpha, max atom move = 1.0000000 5.6220398e-05
  Iterations, force evaluations = 203 406

MPI task timing breakdown:
Section |  min time  |  avg time  |  max time  |%varavg| %total
---------------------------------------------------------------
Pair    | 0.62788    | 1.7152     | 2.2044     |  35.1 | 71.40
Neigh   | 0          | 0          | 0          |   0.0 |  0.00
Comm    | 0.056589   | 0.38421    | 1.1551     |  51.9 | 15.99
Output  | 0          | 0          | 0          |   0.0 |  0.00
Modify  | 2.5222e-05 | 0.0033446  | 0.0071699  |   2.7 |  0.14
Other   |            | 0.2994     |            |       | 12.46

Nlocal:        2776.45 ave        3930 max           0 min
Histogram: 8 4 4 0 4 12 8 0 27 37
Nghost:        3879.12 ave        5425 max         232 min
Histogram: 8 0 8 0 16 0 8 8 16 40
Neighs:        79213.1 ave      114453 max           0 min
Histogram: 8 4 4 0 8 8 8 8 20 36

Total # of neighbors = 8238162
Ave neighs/atom = 28.530332
Neighbor list builds = 0
Dangerous builds = 0
The dot product: 1.72955453664337e-08
The angle: 89.9280867852279
Setting atom values ...
  1 settings made for x
  1 settings made for y
  1 settings made for z
Setting up cg style minimization ...
  Unit style    : metal
  Current step  : 5432
Per MPI rank memory allocation (min/avg/max) = 5.441 | 5.816 | 6.074 Mbytes
Step PotEng KinEng TotEng v_fx v_fy v_fz 
    5432   -1152448.4            0   -1152448.4  0.015923617 -0.018955368 -0.026899652 
    5645   -1152448.4            0   -1152448.4 -2.3730769e-07 2.1687557e-06 -6.2787015e-06 
Loop time of 2.48221 on 104 procs for 213 steps with 288751 atoms

99.9% CPU use with 104 MPI tasks x 1 OpenMP threads

Minimization stats:
  Stopping criterion = force tolerance
  Energy initial, next-to-last, final = 
      -1152448.3561283  -1152448.36116495  -1152448.36116495
  Force two-norm initial, final = 0.39132112 9.7957772e-05
  Force max component initial, final = 0.32153778 2.8567769e-05
  Final line search alpha, max atom move = 1.0000000 2.8567769e-05
  Iterations, force evaluations = 213 426

MPI task timing breakdown:
Section |  min time  |  avg time  |  max time  |%varavg| %total
---------------------------------------------------------------
Pair    | 0.65649    | 1.7944     | 2.3154     |  36.0 | 72.29
Neigh   | 0          | 0          | 0          |   0.0 |  0.00
Comm    | 0.039076   | 0.40234    | 1.2158     |  53.7 | 16.21
Output  | 0          | 0          | 0          |   0.0 |  0.00
Modify  | 2.7547e-05 | 0.0035102  | 0.0075428  |   2.8 |  0.14
Other   |            | 0.282      |            |       | 11.36

Nlocal:        2776.45 ave        3930 max           0 min
Histogram: 8 4 4 0 4 12 8 0 27 37
Nghost:        3879.09 ave        5425 max         232 min
Histogram: 8 0 8 0 16 0 8 8 16 40
Neighs:        79213.1 ave      114452 max           0 min
Histogram: 8 4 4 0 8 8 8 8 20 36

Total # of neighbors = 8238166
Ave neighs/atom = 28.530346
Neighbor list builds = 0
Dangerous builds = 0
The dot product: -9.5982567535221e-09
The angle: 90.0827356930787
Setting atom values ...
  1 settings made for x
  1 settings made for y
  1 settings made for z
Setting up cg style minimization ...
  Unit style    : metal
  Current step  : 5645
Per MPI rank memory allocation (min/avg/max) = 5.441 | 5.816 | 6.074 Mbytes
Step PotEng KinEng TotEng v_fx v_fy v_fz 
    5645   -1152448.3            0   -1152448.3  0.026717481 -0.033797146 -0.037447101 
    5810   -1152448.3            0   -1152448.3 -5.6231563e-07 -3.7818345e-06 1.6847018e-05 
Loop time of 1.92511 on 104 procs for 165 steps with 288751 atoms

99.9% CPU use with 104 MPI tasks x 1 OpenMP threads

Minimization stats:
  Stopping criterion = force tolerance
  Energy initial, next-to-last, final = 
     -1152448.27359717  -1152448.27916013  -1152448.27916013
  Force two-norm initial, final = 0.40827726 9.8245546e-05
  Force max component initial, final = 0.33727167 1.9237531e-05
  Final line search alpha, max atom move = 1.0000000 1.9237531e-05
  Iterations, force evaluations = 165 330

MPI task timing breakdown:
Section |  min time  |  avg time  |  max time  |%varavg| %total
---------------------------------------------------------------
Pair    | 0.50854    | 1.3939     | 1.7943     |  31.7 | 72.40
Neigh   | 0          | 0          | 0          |   0.0 |  0.00
Comm    | 0.042519   | 0.31115    | 0.93674    |  47.0 | 16.16
Output  | 0          | 0          | 0          |   0.0 |  0.00
Modify  | 2.0996e-05 | 0.0027189  | 0.005823   |   2.5 |  0.14
Other   |            | 0.2174     |            |       | 11.29

Nlocal:        2776.45 ave        3930 max           0 min
Histogram: 8 4 4 0 4 12 8 0 28 36
Nghost:        3879.00 ave        5425 max         232 min
Histogram: 8 0 8 0 16 0 8 8 16 40
Neighs:        79213.1 ave      114452 max           0 min
Histogram: 8 4 4 0 8 8 8 8 20 36

Total # of neighbors = 8238162
Ave neighs/atom = 28.530332
Neighbor list builds = 0
Dangerous builds = 0
The dot product: 9.50110152822214e-08
The angle: 89.6848843964878
Setting atom values ...
  1 settings made for x
  1 settings made for y
  1 settings made for z
Setting up cg style minimization ...
  Unit style    : metal
  Current step  : 5810
Per MPI rank memory allocation (min/avg/max) = 5.441 | 5.816 | 6.074 Mbytes
Step PotEng KinEng TotEng v_fx v_fy v_fz 
    5810   -1152448.2            0   -1152448.2   0.19165957  -0.24951365 -0.083013645 
    6000   -1152448.3            0   -1152448.3 4.0949111e-05 -2.8273928e-05 -0.00011335369 
    6076   -1152448.3            0   -1152448.3 5.8436137e-06 -4.0260604e-06 -1.6209477e-05 
Loop time of 3.09707 on 104 procs for 266 steps with 288751 atoms

99.9% CPU use with 104 MPI tasks x 1 OpenMP threads

Minimization stats:
  Stopping criterion = force tolerance
  Energy initial, next-to-last, final = 
     -1152448.19233616  -1152448.33416587  -1152448.33416587
  Force two-norm initial, final = 0.52830093 9.5160229e-05
  Force max component initial, final = 0.36140771 3.5658564e-05
  Final line search alpha, max atom move = 1.0000000 3.5658564e-05
  Iterations, force evaluations = 266 531

MPI task timing breakdown:
Section |  min time  |  avg time  |  max time  |%varavg| %total
---------------------------------------------------------------
Pair    | 0.82552    | 2.2295     | 2.8795     |  39.9 | 71.99
Neigh   | 2.02e-05   | 0.0059239  | 0.0085554  |   3.2 |  0.19
Comm    | 0.057825   | 0.49861    | 1.495      |  59.4 | 16.10
Output  | 0.0011197  | 0.001128   | 0.0012929  |   0.0 |  0.04
Modify  | 3.3272e-05 | 0.0043772  | 0.0093552  |   3.1 |  0.14
Other   |            | 0.3576     |            |       | 11.54

Nlocal:        2776.45 ave        3930 max           0 min
Histogram: 8 4 4 0 4 12 8 0 28 36
Nghost:        3879.00 ave        5425 max         232 min
Histogram: 8 0 8 0 16 0 8 8 16 40
Neighs:        79213.2 ave      114452 max           0 min
Histogram: 8 4 4 0 8 8 8 8 20 36

Total # of neighbors = 8238172
Ave neighs/atom = 28.530367
Neighbor list builds = 2
Dangerous builds = 0
The dot product: 3.11216088333822e-06
The angle: 79.8700991610097
Setting atom values ...
  1 settings made for x
  1 settings made for y
  1 settings made for z
Setting up cg style minimization ...
  Unit style    : metal
  Current step  : 6076
Per MPI rank memory allocation (min/avg/max) = 5.441 | 5.816 | 6.074 Mbytes
Step PotEng KinEng TotEng v_fx v_fy v_fz 
    6076   -1152448.3            0   -1152448.3   0.67366642  -0.40433237 -0.036947052 
    6360   -1152448.7            0   -1152448.7 3.8418181e-05 -1.6135921e-05 -3.6679468e-05 
Loop time of 3.32557 on 104 procs for 284 steps with 288751 atoms

99.9% CPU use with 104 MPI tasks x 1 OpenMP threads

Minimization stats:
  Stopping criterion = energy tolerance
  Energy initial, next-to-last, final = 
      -1152448.2877871  -1152448.71671472  -1152448.71671472
  Force two-norm initial, final = 0.82709992 0.00012573258
  Force max component initial, final = 0.67366642 3.9348759e-05
  Final line search alpha, max atom move = 1.0000000 3.9348759e-05
  Iterations, force evaluations = 284 567

MPI task timing breakdown:
Section |  min time  |  avg time  |  max time  |%varavg| %total
---------------------------------------------------------------
Pair    | 0.89802    | 2.4038     | 3.081      |  41.0 | 72.28
Neigh   | 6.0317e-05 | 0.01763    | 0.025532   |   5.5 |  0.53
Comm    | 0.070326   | 0.53563    | 1.6186     |  61.7 | 16.11
Output  | 0          | 0          | 0          |   0.0 |  0.00
Modify  | 3.6106e-05 | 0.0046792  | 0.010871   |   3.3 |  0.14
Other   |            | 0.3638     |            |       | 10.94

Nlocal:        2776.45 ave        3939 max           0 min
Histogram: 8 4 4 0 4 12 8 2 26 36
Nghost:        3879.07 ave        5424 max         232 min
Histogram: 8 0 8 0 16 0 8 8 16 40
Neighs:        79213.6 ave      114735 max           0 min
Histogram: 8 4 4 0 9 7 8 8 22 34

Total # of neighbors = 8238216
Ave neighs/atom = 28.530519
Neighbor list builds = 6
Dangerous builds = 0
The dot product: 2.09794373787549e-05
The angle: 67.7951935674309
Setting atom values ...
  1 settings made for x
  1 settings made for y
  1 settings made for z
Setting up cg style minimization ...
  Unit style    : metal
  Current step  : 6360
Per MPI rank memory allocation (min/avg/max) = 5.441 | 5.816 | 6.074 Mbytes
Step PotEng KinEng TotEng v_fx v_fy v_fz 
    6360   -1152448.7            0   -1152448.7  -0.14719028  -0.12996714   0.22268153 
    6609   -1152448.7            0   -1152448.7 2.291016e-05 3.4381173e-06 -1.6361553e-05 
Loop time of 2.91652 on 104 procs for 249 steps with 288751 atoms

99.9% CPU use with 104 MPI tasks x 1 OpenMP threads

Minimization stats:
  Stopping criterion = force tolerance
  Energy initial, next-to-last, final = 
      -1152448.7290101  -1152448.74047682  -1152448.74047683
  Force two-norm initial, final = 0.35715909 9.4633258e-05
  Force max component initial, final = 0.22268153 2.2910160e-05
  Final line search alpha, max atom move = 1.0000000 2.2910160e-05
  Iterations, force evaluations = 249 498

MPI task timing breakdown:
Section |  min time  |  avg time  |  max time  |%varavg| %total
---------------------------------------------------------------
Pair    | 0.77105    | 2.0954     | 2.722      |  38.9 | 71.85
Neigh   | 0          | 0          | 0          |   0.0 |  0.00
Comm    | 0.048852   | 0.47318    | 1.4145     |  57.3 | 16.22
Output  | 0          | 0          | 0          |   0.0 |  0.00
Modify  | 3.2441e-05 | 0.0041005  | 0.0088031  |   3.0 |  0.14
Other   |            | 0.3439     |            |       | 11.79

Nlocal:        2776.45 ave        3957 max           0 min
Histogram: 8 4 4 0 4 12 8 4 26 34
Nghost:        3878.99 ave        5425 max         232 min
Histogram: 8 0 8 0 16 0 8 8 16 40
Neighs:        79213.4 ave      115374 max           0 min
Histogram: 8 4 4 0 10 6 8 8 24 32

Total # of neighbors = 8238194
Ave neighs/atom = 28.530443
Neighbor list builds = 0
Dangerous builds = 0
The dot product: -1.08827015948587e-06
The angle: 92.1990286931029
Setting atom values ...
  1 settings made for x
  1 settings made for y
  1 settings made for z
Setting up cg style minimization ...
  Unit style    : metal
  Current step  : 6609
Per MPI rank memory allocation (min/avg/max) = 5.441 | 5.816 | 6.074 Mbytes
Step PotEng KinEng TotEng v_fx v_fy v_fz 
    6609   -1152448.7            0   -1152448.7 5.1457274e-05   0.03112813 -0.037727538 
    6789   -1152448.8            0   -1152448.8 5.1675095e-05 1.0330089e-06 -3.2902101e-05 
Loop time of 2.10815 on 104 procs for 180 steps with 288751 atoms

99.9% CPU use with 104 MPI tasks x 1 OpenMP threads

Minimization stats:
  Stopping criterion = energy tolerance
  Energy initial, next-to-last, final = 
      -1152448.7485474  -1152448.75148021  -1152448.75148021
  Force two-norm initial, final = 0.20661959 0.00020185415
  Force max component initial, final = 0.10666687 6.1072514e-05
  Final line search alpha, max atom move = 1.0000000 6.1072514e-05
  Iterations, force evaluations = 180 360

MPI task timing breakdown:
Section |  min time  |  avg time  |  max time  |%varavg| %total
---------------------------------------------------------------
Pair    | 0.55694    | 1.5286     | 1.9658     |  33.2 | 72.51
Neigh   | 0          | 0          | 0          |   0.0 |  0.00
Comm    | 0.037261   | 0.33933    | 1.031      |  49.7 | 16.10
Output  | 0          | 0          | 0          |   0.0 |  0.00
Modify  | 2.3906e-05 | 0.0029746  | 0.0063811  |   2.6 |  0.14
Other   |            | 0.2373     |            |       | 11.25

Nlocal:        2776.45 ave        3956 max           0 min
Histogram: 8 4 4 0 4 12 8 0 30 34
Nghost:        3879.04 ave        5424 max         232 min
Histogram: 8 0 8 0 16 0 8 8 16 40
Neighs:        79213.4 ave      115298 max           0 min
Histogram: 8 4 4 0 10 6 8 8 24 32

Total # of neighbors = 8238196
Ave neighs/atom = 28.530450
Neighbor list builds = 0
Dangerous builds = 0
The dot product: 1.96281191317595e-07
The angle: 89.8164480809019
Setting atom values ...
  1 settings made for x
  1 settings made for y
  1 settings made for z
Setting up cg style minimization ...
  Unit style    : metal
  Current step  : 6789
Per MPI rank memory allocation (min/avg/max) = 5.441 | 5.816 | 6.074 Mbytes
Step PotEng KinEng TotEng v_fx v_fy v_fz 
    6789   -1152448.8            0   -1152448.8 -0.0029707883   0.01667994 -0.017849269 
    6962   -1152448.8            0   -1152448.8 0.0001043334 1.1082637e-05 -7.6372388e-05 
Loop time of 2.02257 on 104 procs for 173 steps with 288751 atoms

99.9% CPU use with 104 MPI tasks x 1 OpenMP threads

Minimization stats:
  Stopping criterion = energy tolerance
  Energy initial, next-to-last, final = 
     -1152448.75794333  -1152448.76053357  -1152448.76053357
  Force two-norm initial, final = 0.20310858 0.00026859716
  Force max component initial, final = 0.10576824 0.0001043334
  Final line search alpha, max atom move = 1.0000000 0.0001043334
  Iterations, force evaluations = 173 346

MPI task timing breakdown:
Section |  min time  |  avg time  |  max time  |%varavg| %total
---------------------------------------------------------------
Pair    | 0.53344    | 1.4582     | 1.8928     |  32.5 | 72.09
Neigh   | 0          | 0          | 0          |   0.0 |  0.00
Comm    | 0.035157   | 0.32775    | 0.98671    |  48.2 | 16.20
Output  | 0          | 0          | 0          |   0.0 |  0.00
Modify  | 2.283e-05  | 0.0028557  | 0.0060842  |   2.5 |  0.14
Other   |            | 0.2338     |            |       | 11.56

Nlocal:        2776.45 ave        3956 max           0 min
Histogram: 8 4 4 0 4 12 8 0 30 34
Nghost:        3879.01 ave        5424 max         232 min
Histogram: 8 0 8 0 16 0 8 8 16 40
Neighs:        79213.4 ave      115299 max           0 min
Histogram: 8 4 4 0 10 6 8 8 24 32

Total # of neighbors = 8238195
Ave neighs/atom = 28.530447
Neighbor list builds = 0
Dangerous builds = 0
The dot product: 2.18296794279173e-07
The angle: 89.903620219697
Setting atom values ...
  1 settings made for x
  1 settings made for y
  1 settings made for z
Setting up cg style minimization ...
  Unit style    : metal
  Current step  : 6962
Per MPI rank memory allocation (min/avg/max) = 5.441 | 5.816 | 6.074 Mbytes
Step PotEng KinEng TotEng v_fx v_fy v_fz 
    6962   -1152448.8            0   -1152448.8 -0.0012189455  0.017747528 -0.019888744 
    7000   -1152448.8            0   -1152448.8 0.0004383848 4.5230276e-05 -0.00031783405 
    7159   -1152448.8            0   -1152448.8 3.001996e-06 1.1181092e-06 -3.1159865e-06 
Loop time of 2.30806 on 104 procs for 197 steps with 288751 atoms

99.9% CPU use with 104 MPI tasks x 1 OpenMP threads

Minimization stats:
  Stopping criterion = force tolerance
  Energy initial, next-to-last, final = 
     -1152448.76511046  -1152448.76768687  -1152448.76768687
  Force two-norm initial, final = 0.20456858 9.7997648e-05
  Force max component initial, final = 0.10655198 8.4426051e-06
  Final line search alpha, max atom move = 1.0000000 8.4426051e-06
  Iterations, force evaluations = 197 394

MPI task timing breakdown:
Section |  min time  |  avg time  |  max time  |%varavg| %total
---------------------------------------------------------------
Pair    | 0.60581    | 1.6636     | 2.156      |  34.7 | 72.08
Neigh   | 0          | 0          | 0          |   0.0 |  0.00
Comm    | 0.05127    | 0.37194    | 1.1219     |  51.3 | 16.11
Output  | 0.00018769 | 0.0001958  | 0.00029877 |   0.0 |  0.01
Modify  | 2.4941e-05 | 0.0032479  | 0.0069717  |   2.7 |  0.14
Other   |            | 0.2691     |            |       | 11.66

Nlocal:        2776.45 ave        3956 max           0 min
Histogram: 8 4 4 0 4 12 8 0 30 34
Nghost:        3879.01 ave        5424 max         232 min
Histogram: 8 0 8 0 16 0 8 8 16 40
Neighs:        79213.4 ave      115300 max           0 min
Histogram: 8 4 4 0 10 6 8 8 24 32

Total # of neighbors = 8238197
Ave neighs/atom = 28.530454
Neighbor list builds = 0
Dangerous builds = 0
The dot product: 1.40169250667145e-08
The angle: 89.8202907059798
Setting atom values ...
  1 settings made for x
  1 settings made for y
  1 settings made for z
Setting up cg style minimization ...
  Unit style    : metal
  Current step  : 7159
Per MPI rank memory allocation (min/avg/max) = 5.441 | 5.816 | 6.074 Mbytes
Step PotEng KinEng TotEng v_fx v_fy v_fz 
    7159   -1152448.8            0   -1152448.8 0.00042279445  0.017471852 -0.020297761 
    7357   -1152448.8            0   -1152448.8 2.5774833e-05 2.2981777e-06 -1.8180307e-05 
Loop time of 2.31654 on 104 procs for 198 steps with 288751 atoms

99.9% CPU use with 104 MPI tasks x 1 OpenMP threads

Minimization stats:
  Stopping criterion = energy tolerance
  Energy initial, next-to-last, final = 
     -1152448.77044258  -1152448.77302515  -1152448.77302515
  Force two-norm initial, final = 0.20593975 0.00010017047
  Force max component initial, final = 0.10719041 2.5774833e-05
  Final line search alpha, max atom move = 1.0000000 2.5774833e-05
  Iterations, force evaluations = 198 396

MPI task timing breakdown:
Section |  min time  |  avg time  |  max time  |%varavg| %total
---------------------------------------------------------------
Pair    | 0.61246    | 1.6682     | 2.1692     |  34.7 | 72.01
Neigh   | 0          | 0          | 0          |   0.0 |  0.00
Comm    | 0.043575   | 0.3756     | 1.1269     |  51.5 | 16.21
Output  | 0          | 0          | 0          |   0.0 |  0.00
Modify  | 2.4914e-05 | 0.0032613  | 0.0070049  |   2.7 |  0.14
Other   |            | 0.2694     |            |       | 11.63

Nlocal:        2776.45 ave        3955 max           0 min
Histogram: 8 4 4 0 4 12 8 0 30 34
Nghost:        3878.99 ave        5424 max         232 min
Histogram: 8 0 8 0 16 0 8 8 16 40
Neighs:        79213.4 ave      115257 max           0 min
Histogram: 8 4 4 0 10 6 8 8 24 32

Total # of neighbors = 8238192
Ave neighs/atom = 28.530436
Neighbor list builds = 0
Dangerous builds = 0
The dot product: 5.61681966562276e-08
The angle: 89.898238997677
Setting atom values ...
  1 settings made for x
  1 settings made for y
  1 settings made for z
Setting up cg style minimization ...
  Unit style    : metal
  Current step  : 7357
Per MPI rank memory allocation (min/avg/max) = 5.441 | 5.816 | 6.074 Mbytes
Step PotEng KinEng TotEng v_fx v_fy v_fz 
    7357   -1152448.8            0   -1152448.8 0.0021915794   0.01713456 -0.020732236 
    7538   -1152448.8            0   -1152448.8 6.8958436e-06 1.4425955e-06 -5.7774809e-06 
Loop time of 2.12761 on 104 procs for 181 steps with 288751 atoms

99.9% CPU use with 104 MPI tasks x 1 OpenMP threads

Minimization stats:
  Stopping criterion = energy tolerance
  Energy initial, next-to-last, final = 
     -1152448.77410141  -1152448.77673244  -1152448.77673244
  Force two-norm initial, final = 0.20758265 0.00017153518
  Force max component initial, final = 0.10770608 6.8958436e-06
  Final line search alpha, max atom move = 1.0000000 6.8958436e-06
  Iterations, force evaluations = 181 362

MPI task timing breakdown:
Section |  min time  |  avg time  |  max time  |%varavg| %total
---------------------------------------------------------------
Pair    | 0.56499    | 1.5338     | 1.9803     |  33.1 | 72.09
Neigh   | 0          | 0          | 0          |   0.0 |  0.00
Comm    | 0.048191   | 0.34362    | 1.0299     |  48.9 | 16.15
Output  | 0          | 0          | 0          |   0.0 |  0.00
Modify  | 2.3143e-05 | 0.002985   | 0.0064037  |   2.6 |  0.14
[...]
Setting atom values ...
  1 settings made for x
  1 settings made for y
  1 settings made for z
Setting up cg style minimization ...
  Unit style    : metal
  Current step  : 13701
Per MPI rank memory allocation (min/avg/max) = 5.441 | 5.816 | 6.074 Mbytes
Step PotEng KinEng TotEng v_fx v_fy v_fz 
   13701   -1152448.8            0   -1152448.8 -0.026873026 0.0078994378 -0.053477219 
   13912   -1152448.8            0   -1152448.8 -1.805985e-05 2.9538899e-05 -3.4208123e-05 
Loop time of 2.44749 on 104 procs for 211 steps with 288751 atoms

99.9% CPU use with 104 MPI tasks x 1 OpenMP threads

Minimization stats:
  Stopping criterion = energy tolerance
  Energy initial, next-to-last, final = 
     -1152448.76526884  -1152448.76809819  -1152448.76809819
  Force two-norm initial, final = 0.21382866 0.00013976783
  Force max component initial, final = 0.084666819 3.4208123e-05
  Final line search alpha, max atom move = 1.0000000 3.4208123e-05
  Iterations, force evaluations = 211 422

MPI task timing breakdown:
Section |  min time  |  avg time  |  max time  |%varavg| %total
---------------------------------------------------------------
Pair    | 0.65092    | 1.7767     | 2.2826     |  35.5 | 72.59
Neigh   | 0          | 0          | 0          |   0.0 |  0.00
Comm    | 0.034933   | 0.39771    | 1.2221     |  53.6 | 16.25
Output  | 0          | 0          | 0          |   0.0 |  0.00
Modify  | 2.7573e-05 | 0.0034841  | 0.0074268  |   2.8 |  0.14
Other   |            | 0.2696     |            |       | 11.02

Nlocal:        2776.45 ave        3955 max           0 min
Histogram: 8 4 4 0 4 12 8 2 28 34
Nghost:        3879.17 ave        5425 max         232 min
Histogram: 8 0 8 0 16 0 8 8 16 40
Neighs:        79213.4 ave      115284 max           0 min
Histogram: 8 4 4 0 10 6 8 8 24 32

Total # of neighbors = 8238194
Ave neighs/atom = 28.530443
Neighbor list builds = 0
Dangerous builds = 0
The dot product: 2.43649297406041e-07
The angle: 89.7131755242802
Setting atom values ...
  1 settings made for x
  1 settings made for y
  1 settings made for z
Setting up cg style minimization ...
  Unit style    : metal
  Current step  : 13912
Per MPI rank memory allocation (min/avg/max) = 5.441 | 5.816 | 6.074 Mbytes
Step PotEng KinEng TotEng v_fx v_fy v_fz 
   13912   -1152448.8            0   -1152448.8 -0.0046458323 0.00081697862 -0.0091372221 
   14000   -1152448.8            0   -1152448.8 -0.00013581189 0.00024306167 -0.00025171375 
   14102   -1152448.8            0   -1152448.8 -3.0105472e-05 4.7833121e-05 -5.6222186e-05 
Loop time of 2.19428 on 104 procs for 190 steps with 288751 atoms

99.9% CPU use with 104 MPI tasks x 1 OpenMP threads

Minimization stats:
  Stopping criterion = energy tolerance
  Energy initial, next-to-last, final = 
     -1152448.79965541  -1152448.80224681  -1152448.80224681
  Force two-norm initial, final = 0.2095424 0.00017706288
  Force max component initial, final = 0.085330274 5.6222186e-05
  Final line search alpha, max atom move = 1.0000000 5.6222186e-05
  Iterations, force evaluations = 190 380

MPI task timing breakdown:
Section |  min time  |  avg time  |  max time  |%varavg| %total
---------------------------------------------------------------
Pair    | 0.58411    | 1.6005     | 2.0527     |  33.8 | 72.94
Neigh   | 0          | 0          | 0          |   0.0 |  0.00
Comm    | 0.031487   | 0.35854    | 1.1018     |  51.4 | 16.34
Output  | 0.00027653 | 0.00028656 | 0.00048558 |   0.0 |  0.01
Modify  | 2.4335e-05 | 0.0031425  | 0.0067359  |   2.7 |  0.14
Other   |            | 0.2318     |            |       | 10.56

Nlocal:        2776.45 ave        3954 max           0 min
Histogram: 8 4 4 0 4 12 8 2 28 34
Nghost:        3879.15 ave        5425 max         232 min
Histogram: 8 0 8 0 16 0 8 8 16 40
Neighs:        79213.4 ave      115249 max           0 min
Histogram: 8 4 4 0 10 6 8 8 24 32

Total # of neighbors = 8238196
Ave neighs/atom = 28.530450
Neighbor list builds = 0
Dangerous builds = 0
The dot product: 8.2522376389378e-08
The angle: 89.9406901188344
Setting atom values ...
  1 settings made for x
  1 settings made for y
  1 settings made for z
Setting up cg style minimization ...
  Unit style    : metal
  Current step  : 14102
Per MPI rank memory allocation (min/avg/max) = 5.441 | 5.816 | 6.074 Mbytes
Step PotEng KinEng TotEng v_fx v_fy v_fz 
   14102   -1152448.8            0   -1152448.8 -0.0049557552 -0.0041609992 -0.010073793 
   14285   -1152448.8            0   -1152448.8 1.8447582e-05 -3.9023527e-05 3.3653895e-05 
Loop time of 2.12388 on 104 procs for 183 steps with 288751 atoms

99.9% CPU use with 104 MPI tasks x 1 OpenMP threads

Minimization stats:
  Stopping criterion = energy tolerance
  Energy initial, next-to-last, final = 
      -1152448.8302163  -1152448.83284867  -1152448.83284867
  Force two-norm initial, final = 0.21086488 0.00024057631
  Force max component initial, final = 0.08528429 6.9185809e-05
  Final line search alpha, max atom move = 1.0000000 6.9185809e-05
  Iterations, force evaluations = 183 366

MPI task timing breakdown:
Section |  min time  |  avg time  |  max time  |%varavg| %total
---------------------------------------------------------------
Pair    | 0.56389    | 1.539      | 1.9787     |  33.0 | 72.46
Neigh   | 0          | 0          | 0          |   0.0 |  0.00
Comm    | 0.031099   | 0.34407    | 1.051      |  49.8 | 16.20
Output  | 0          | 0          | 0          |   0.0 |  0.00
Modify  | 2.4085e-05 | 0.0030272  | 0.0064654  |   2.6 |  0.14
Other   |            | 0.2378     |            |       | 11.20

Nlocal:        2776.45 ave        3954 max           0 min
Histogram: 8 4 4 0 4 12 8 2 28 34
Nghost:        3879.12 ave        5424 max         232 min
Histogram: 8 0 8 0 16 0 8 8 16 40
Neighs:        79213.4 ave      115245 max           0 min
Histogram: 8 4 4 0 10 6 8 8 24 32

Total # of neighbors = 8238193
Ave neighs/atom = 28.530440
Neighbor list builds = 0
Dangerous builds = 0
The dot product: -5.45191283729791e-08
The angle: 90.0570715950349
Setting atom values ...
  1 settings made for x
  1 settings made for y
  1 settings made for z
Setting up cg style minimization ...
  Unit style    : metal
  Current step  : 14285
Per MPI rank memory allocation (min/avg/max) = 5.441 | 5.816 | 6.074 Mbytes
Step PotEng KinEng TotEng v_fx v_fy v_fz 
   14285   -1152448.9            0   -1152448.9 -0.0032343245 -0.0064165327 -0.006804341 
   14495   -1152448.9            0   -1152448.9 -3.7146916e-06 5.7396585e-06 -6.9002826e-06 
Loop time of 2.43848 on 104 procs for 210 steps with 288751 atoms

99.9% CPU use with 104 MPI tasks x 1 OpenMP threads

Minimization stats:
  Stopping criterion = force tolerance
  Energy initial, next-to-last, final = 
     -1152448.85717702  -1152448.85979396  -1152448.85979397
  Force two-norm initial, final = 0.2104834 9.6201851e-05
  Force max component initial, final = 0.085287826 1.0813098e-05
  Final line search alpha, max atom move = 1.0000000 1.0813098e-05
  Iterations, force evaluations = 210 420

MPI task timing breakdown:
Section |  min time  |  avg time  |  max time  |%varavg| %total
---------------------------------------------------------------
Pair    | 0.64821    | 1.77       | 2.2742     |  35.5 | 72.59
Neigh   | 0          | 0          | 0          |   0.0 |  0.00
Comm    | 0.035881   | 0.39657    | 1.207      |  53.8 | 16.26
Output  | 0          | 0          | 0          |   0.0 |  0.00
Modify  | 2.7836e-05 | 0.0034711  | 0.0074281  |   2.8 |  0.14
Other   |            | 0.2684     |            |       | 11.01

Nlocal:        2776.45 ave        3954 max           0 min
Histogram: 8 4 4 0 4 12 8 2 28 34
Nghost:        3879.11 ave        5424 max         232 min
Histogram: 8 0 8 0 16 0 8 8 16 40
Neighs:        79213.4 ave      115239 max           0 min
Histogram: 8 4 4 0 10 6 8 8 24 32

Total # of neighbors = 8238194
Ave neighs/atom = 28.530443
Neighbor list builds = 0
Dangerous builds = 0
The dot product: 9.596855606609e-09
The angle: 89.9433935757492
Setting atom values ...
  1 settings made for x
  1 settings made for y
  1 settings made for z
Setting up cg style minimization ...
  Unit style    : metal
  Current step  : 14495
Per MPI rank memory allocation (min/avg/max) = 5.441 | 5.816 | 6.074 Mbytes
Step PotEng KinEng TotEng v_fx v_fy v_fz 
   14495   -1152448.9            0   -1152448.9 -0.0028253892 -0.0071443655 -0.0060223656 
   14700   -1152448.9            0   -1152448.9 -6.7096994e-06 1.0616338e-05 -1.2408483e-05 
Loop time of 2.3795 on 104 procs for 205 steps with 288751 atoms

99.9% CPU use with 104 MPI tasks x 1 OpenMP threads

Minimization stats:
  Stopping criterion = energy tolerance
  Energy initial, next-to-last, final = 
     -1152448.88048006  -1152448.88306198  -1152448.88306198
  Force two-norm initial, final = 0.20915853 0.00012382107
  Force max component initial, final = 0.085172123 1.2408483e-05
  Final line search alpha, max atom move = 1.0000000 1.2408483e-05
  Iterations, force evaluations = 205 410

MPI task timing breakdown:
Section |  min time  |  avg time  |  max time  |%varavg| %total
---------------------------------------------------------------
Pair    | 0.63121    | 1.7247     | 2.2249     |  35.0 | 72.48
Neigh   | 0          | 0          | 0          |   0.0 |  0.00
Comm    | 0.034119   | 0.38919    | 1.1781     |  52.3 | 16.36
Output  | 0          | 0          | 0          |   0.0 |  0.00
Modify  | 2.6245e-05 | 0.0033873  | 0.0072239  |   2.8 |  0.14
Other   |            | 0.2622     |            |       | 11.02

Nlocal:        2776.45 ave        3953 max           0 min
Histogram: 8 4 4 0 4 12 8 2 28 34
Nghost:        3879.11 ave        5424 max         232 min
Histogram: 8 0 8 0 16 0 8 8 16 40
Neighs:        79213.4 ave      115207 max           0 min
Histogram: 8 4 4 0 10 6 8 8 24 32

Total # of neighbors = 8238195
Ave neighs/atom = 28.530447
Neighbor list builds = 0
Dangerous builds = 0
The dot product: 1.67777128600815e-08
The angle: 89.9455511085177
Setting atom values ...
  1 settings made for x
  1 settings made for y
  1 settings made for z
Setting up cg style minimization ...
  Unit style    : metal
  Current step  : 14700
Per MPI rank memory allocation (min/avg/max) = 5.441 | 5.816 | 6.074 Mbytes
Step PotEng KinEng TotEng v_fx v_fy v_fz 
   14700   -1152448.9            0   -1152448.9 -0.0030205965 -0.0066592052 -0.0063378405 
   14911   -1152448.9            0   -1152448.9 5.4743758e-06 -1.103901e-05 9.9342658e-06 
Loop time of 2.46384 on 104 procs for 211 steps with 288751 atoms

99.9% CPU use with 104 MPI tasks x 1 OpenMP threads

Minimization stats:
  Stopping criterion = energy tolerance
  Energy initial, next-to-last, final = 
     -1152448.90017527  -1152448.90271883  -1152448.90271883
  Force two-norm initial, final = 0.20740195 0.00011065828
  Force max component initial, final = 0.085046804 1.6518463e-05
  Final line search alpha, max atom move = 1.0000000 1.6518463e-05
  Iterations, force evaluations = 211 422

MPI task timing breakdown:
Section |  min time  |  avg time  |  max time  |%varavg| %total
---------------------------------------------------------------
Pair    | 0.64925    | 1.78       | 2.289      |  35.7 | 72.24
Neigh   | 0          | 0          | 0          |   0.0 |  0.00
Comm    | 0.036387   | 0.39875    | 1.2047     |  53.8 | 16.18
Output  | 0          | 0          | 0          |   0.0 |  0.00
Modify  | 2.8055e-05 | 0.0034851  | 0.0074493  |   2.8 |  0.14
Other   |            | 0.2816     |            |       | 11.43

Nlocal:        2776.45 ave        3953 max           0 min
Histogram: 8 4 4 0 4 12 8 2 28 34
Nghost:        3879.11 ave        5424 max         232 min
Histogram: 8 0 8 0 16 0 8 8 16 40
Neighs:        79213.4 ave      115209 max           0 min
Histogram: 8 4 4 0 10 6 8 8 24 32

Total # of neighbors = 8238198
Ave neighs/atom = 28.530457
Neighbor list builds = 0
Dangerous builds = 0
The dot product: -1.29172327546862e-08
The angle: 90.0467597889499
Setting atom values ...
  1 settings made for x
  1 settings made for y
  1 settings made for z
Setting up cg style minimization ...
  Unit style    : metal
  Current step  : 14911
Per MPI rank memory allocation (min/avg/max) = 5.441 | 5.816 | 6.074 Mbytes
Step PotEng KinEng TotEng v_fx v_fy v_fz 
   14911   -1152448.9            0   -1152448.9 -0.0036130285 -0.0054364147 -0.0073696891 
   15000   -1152448.9            0   -1152448.9 5.9011961e-05 -0.00013993767 0.00010541471 
   15102   -1152448.9            0   -1152448.9 -4.9587722e-06 1.0156769e-05 -8.9627491e-06 
Loop time of 2.2253 on 104 procs for 191 steps with 288751 atoms

99.9% CPU use with 104 MPI tasks x 1 OpenMP threads

Minimization stats:
  Stopping criterion = energy tolerance
  Energy initial, next-to-last, final = 
     -1152448.91637939  -1152448.91887096  -1152448.91887096
  Force two-norm initial, final = 0.20579549 0.00015466985
  Force max component initial, final = 0.085894163 1.6974508e-05
  Final line search alpha, max atom move = 1.0000000 1.6974508e-05
  Iterations, force evaluations = 191 382

MPI task timing breakdown:
Section |  min time  |  avg time  |  max time  |%varavg| %total
---------------------------------------------------------------
Pair    | 0.58758    | 1.61       | 2.0758     |  34.0 | 72.35
Neigh   | 0          | 0          | 0          |   0.0 |  0.00
Comm    | 0.031985   | 0.3635     | 1.1054     |  50.7 | 16.33
Output  | 0.00027604 | 0.00028592 | 0.00048715 |   0.0 |  0.01
Modify  | 2.5302e-05 | 0.0031618  | 0.0067582  |   2.7 |  0.14
Other   |            | 0.2483     |            |       | 11.16

Nlocal:        2776.45 ave        3953 max           0 min
Histogram: 8 4 4 0 4 12 8 1 29 34
Nghost:        3879.01 ave        5424 max         232 min
Histogram: 8 0 8 0 16 0 8 8 16 40
Neighs:        79213.4 ave      115209 max           0 min
Histogram: 8 4 4 0 10 6 8 8 24 32

Total # of neighbors = 8238196
Ave neighs/atom = 28.530450
Neighbor list builds = 0
Dangerous builds = 0
The dot product: 1.01609849446046e-08
The angle: 89.9596407546105
Setting atom values ...
  1 settings made for x
  1 settings made for y
  1 settings made for z
Setting up cg style minimization ...
  Unit style    : metal
  Current step  : 15102
Per MPI rank memory allocation (min/avg/max) = 5.441 | 5.816 | 6.074 Mbytes
Step PotEng KinEng TotEng v_fx v_fy v_fz 
   15102   -1152448.9            0   -1152448.9 -0.0059024725 -0.0014411956 -0.011495346 
   15301   -1152448.9            0   -1152448.9 4.2883239e-06 -1.2799157e-05 7.4786034e-06 
Loop time of 2.34387 on 104 procs for 199 steps with 288751 atoms

99.9% CPU use with 104 MPI tasks x 1 OpenMP threads

Minimization stats:
  Stopping criterion = energy tolerance
  Energy initial, next-to-last, final = 
     -1152448.92925772  -1152448.93170151  -1152448.93170151
  Force two-norm initial, final = 0.20435076 0.00014231969
  Force max component initial, final = 0.088272091 4.0503717e-05
  Final line search alpha, max atom move = 1.0000000 4.0503717e-05
  Iterations, force evaluations = 199 398

MPI task timing breakdown:
Section |  min time  |  avg time  |  max time  |%varavg| %total
---------------------------------------------------------------
Pair    | 0.61591    | 1.6797     | 2.1508     |  34.5 | 71.66
Neigh   | 0          | 0          | 0          |   0.0 |  0.00
Comm    | 0.043976   | 0.38022    | 1.1696     |  52.0 | 16.22
Output  | 0          | 0          | 0          |   0.0 |  0.00
Modify  | 2.5647e-05 | 0.0032943  | 0.0070359  |   2.7 |  0.14
Other   |            | 0.2807     |            |       | 11.98

Nlocal:        2776.45 ave        3952 max           0 min
Histogram: 8 4 4 0 4 12 8 1 29 34
Nghost:        3878.99 ave        5424 max         232 min
Histogram: 8 0 8 0 16 0 8 8 16 40
Neighs:        79213.4 ave      115172 max           0 min
Histogram: 8 4 4 0 10 6 8 8 24 32

Total # of neighbors = 8238196
Ave neighs/atom = 28.530450
Neighbor list builds = 0
Dangerous builds = 0
The dot product: -7.26145646901852e-09
The angle: 90.0269607736933
Setting atom values ...
  1 settings made for x
  1 settings made for y
  1 settings made for z
Setting up cg style minimization ...
  Unit style    : metal
  Current step  : 15301
Per MPI rank memory allocation (min/avg/max) = 5.441 | 5.816 | 6.074 Mbytes
Step PotEng KinEng TotEng v_fx v_fy v_fz 
   15301   -1152448.9            0   -1152448.9 -0.010923532 0.0072055274 -0.020542468 
   15502   -1152448.9            0   -1152448.9 -6.7989439e-07 4.4398768e-06 -1.0377472e-06 
Loop time of 2.3195 on 104 procs for 201 steps with 288751 atoms

99.9% CPU use with 104 MPI tasks x 1 OpenMP threads

Minimization stats:
  Stopping criterion = force tolerance
  Energy initial, next-to-last, final = 
      -1152448.9394006  -1152448.94188639   -1152448.9418864
  Force two-norm initial, final = 0.20504062 9.6946237e-05
  Force max component initial, final = 0.090159347 2.2603963e-05
  Final line search alpha, max atom move = 1.0000000 2.2603963e-05
  Iterations, force evaluations = 201 402

MPI task timing breakdown:
Section |  min time  |  avg time  |  max time  |%varavg| %total
---------------------------------------------------------------
Pair    | 0.62069    | 1.6923     | 2.1699     |  34.6 | 72.96
Neigh   | 0          | 0          | 0          |   0.0 |  0.00
Comm    | 0.033592   | 0.37896    | 1.1703     |  52.5 | 16.34
Output  | 0          | 0          | 0          |   0.0 |  0.00
Modify  | 2.6701e-05 | 0.0033197  | 0.0070737  |   2.7 |  0.14
Other   |            | 0.2449     |            |       | 10.56

Nlocal:        2776.45 ave        3951 max           0 min
Histogram: 8 4 4 0 4 12 8 0 30 34
Nghost:        3878.98 ave        5424 max         232 min
Histogram: 8 0 8 0 16 0 8 8 16 40
Neighs:        79213.5 ave      115139 max           0 min
Histogram: 8 4 4 0 10 6 8 8 24 32

Total # of neighbors = 8238200
Ave neighs/atom = 28.530464
Neighbor list builds = 0
Dangerous builds = 0
The dot product: 1.43153823007093e-09
The angle: 89.9822078291158
Setting atom values ...
  1 settings made for x
  1 settings made for y
  1 settings made for z
Setting up cg style minimization ...
  Unit style    : metal
  Current step  : 15502
Per MPI rank memory allocation (min/avg/max) = 5.441 | 5.816 | 6.074 Mbytes
Step PotEng KinEng TotEng v_fx v_fy v_fz 
   15502   -1152448.9            0   -1152448.9 -0.010797098 0.0091045205 -0.019979236 
   15651     -1152449            0     -1152449 -4.0352562e-05 5.7359479e-05 -7.3321222e-05 
Loop time of 1.74282 on 104 procs for 149 steps with 288751 atoms

99.9% CPU use with 104 MPI tasks x 1 OpenMP threads

Minimization stats:
  Stopping criterion = energy tolerance
  Energy initial, next-to-last, final = 
     -1152448.94765447  -1152448.95019933  -1152448.95019933
  Force two-norm initial, final = 0.2052974 0.00026634032
  Force max component initial, final = 0.091188766 9.6625548e-05
  Final line search alpha, max atom move = 1.0000000 9.6625548e-05
  Iterations, force evaluations = 149 298

MPI task timing breakdown:
Section |  min time  |  avg time  |  max time  |%varavg| %total
---------------------------------------------------------------
Pair    | 0.46318    | 1.258      | 1.6116     |  29.8 | 72.18
Neigh   | 0          | 0          | 0          |   0.0 |  0.00
Comm    | 0.026823   | 0.2811     | 0.86616    |  45.4 | 16.13
Output  | 0          | 0          | 0          |   0.0 |  0.00
Modify  | 1.9131e-05 | 0.0025691  | 0.015964   |   3.4 |  0.15
Other   |            | 0.2012     |            |       | 11.54

Nlocal:        2776.45 ave        3951 max           0 min
Histogram: 8 4 4 0 4 12 8 0 30 34
Nghost:        3879.02 ave        5424 max         232 min
Histogram: 8 0 8 0 16 0 8 8 16 40
Neighs:        79213.5 ave      115140 max           0 min
Histogram: 8 4 4 0 10 6 8 8 24 32

Total # of neighbors = 8238201
Ave neighs/atom = 28.530467
Neighbor list builds = 0
Dangerous builds = 0
The dot product: 5.58829705179694e-07
The angle: 89.6844247513922
