LAMMPS (29 Oct 2020)
OMP_NUM_THREADS environment is not set. Defaulting to 1 thread. (../comm.cpp:94)
  using 1 OpenMP thread(s) per MPI task



units                   metal
atom_style              atomic
dimension                   3
boundary                p p p
atom_modify             map array sort 0 0.0

read_data               poslmp_carbon.dat
Reading data file ...
  orthogonal box = (-122.39241 -121.13707 -37.090501) to (122.39241 121.13707 37.090501)
  13 by 4 by 1 MPI processor grid
  reading atoms ...
  288751 atoms
  read_data CPU = 0.454 seconds

variable                zmax     equal    zhi
variable                zmin     equal    zlo

region                  inner   cylinder   z  1.16564  0.67298333  100.0  ${zmin}  ${zmax}  units  box
region                  inner   cylinder   z  1.16564  0.67298333  100.0  -37.0905005093422  ${zmax}  units  box
region                  inner   cylinder   z  1.16564  0.67298333  100.0  -37.0905005093422  37.0905005093422  units  box
group                   inner   region     inner
199981 atoms in group inner
group                   outer   subtract   all  inner
88770 atoms in group outer
group                   carbon  type       2
1 atoms in group carbon

pair_style              eam/alloy
pair_coeff              * * FeC-Becquart2013.eam.txt Fe C
neighbor                0.3 bin
neigh_modify            delay 0 check yes every 1

compute                 force     carbon   reduce  sum  fx fy fz
variable                fx    equal    c_force[1]
variable                fy    equal    c_force[2]
variable                fz    equal    c_force[3]
variable                i      equal    288751
variable                x1     equal    x[v_i]
variable                y1     equal    y[v_i]
variable                z1     equal    z[v_i]
variable                x0     equal    ${x1}
variable                x0     equal    0.76
variable                y0     equal    ${y1}
variable                y0     equal    2.25
variable                z0     equal    ${z1}
variable                z0     equal    -28.92

fix                     force    outer    setforce      0.0 0.0 0.0
thermo_style            custom   step     v_fx v_fy v_fz pe ke etotal
min_style               cg
minimize                1.0e-30 1.0e-30 10000 10000
Neighbor list info ...
  update every 1 steps, delay 0 steps, check yes
  max neighbors/atom: 2000, page size: 100000
  master list distance cutoff = 5.6
  ghost atom cutoff = 5.6
  binsize = 2.8, bins = 88 87 27
  1 neighbor lists, perpetual/occasional/extra = 1 0 0
  (1) pair eam/alloy, perpetual
      attributes: half, newton on
      pair build: half/bin/atomonly/newton
      stencil: half/bin/3d/newton
      bin: standard
Per MPI rank memory allocation (min/avg/max) = 5.465 | 6.344 | 6.728 Mbytes
Step v_fx v_fy v_fz PotEng KinEng TotEng 
       0   -26.152434    15.135287   -50.958299   -1152433.1            0   -1152433.1 
     172 -4.248831e-06 -1.2093197e-06 -3.9697057e-05   -1152449.5            0   -1152449.5 
Loop time of 3.83005 on 52 procs for 172 steps with 288751 atoms

99.8% CPU use with 52 MPI tasks x 1 OpenMP threads

Minimization stats:
  Stopping criterion = linesearch alpha is zero
  Energy initial, next-to-last, final = 
      -1152433.1288796  -1152449.45035284  -1152449.45035284
  Force two-norm initial, final = 88.712096 0.0001267247
  Force max component initial, final = 58.087906 3.9697057e-05
  Final line search alpha, max atom move = 0.5 1.9848529e-05
  Iterations, force evaluations = 172 337

MPI task timing breakdown:
Section |  min time  |  avg time  |  max time  |%varavg| %total
---------------------------------------------------------------
Pair    | 1.018      | 2.7173     | 3.5613     |  44.3 | 70.95
Neigh   | 9.6679e-05 | 0.031877   | 0.045202   |   7.6 |  0.83
Comm    | 0.06215    | 0.61502    | 1.9123     |  68.2 | 16.06
Output  | 0          | 0          | 0          |   0.0 |  0.00
Modify  | 5.3049e-05 | 0.003711   | 0.0093288  |   3.8 |  0.10
Other   |            | 0.4622     |            |       | 12.07

Nlocal:        5552.90 ave        7913 max           0 min
Histogram: 4 2 2 0 2 6 4 1 14 17
Nghost:        6213.54 ave        8769 max         412 min
Histogram: 4 0 4 0 8 0 4 5 7 20
Neighs:       158427.0 ave      230676 max           0 min
Histogram: 4 2 2 0 5 3 4 4 12 16

Total # of neighbors = 8238211
Ave neighs/atom = 28.530502
Neighbor list builds = 5
Dangerous builds = 0
print                   "${x0} ${y0} ${z0} ${x1} ${y1} ${z1}" append info.dat
0.76 2.25 -28.92 -0.011575929726928 2.01217774710455 -29.4332008275638



Total wall time: 0:00:04
