LAMMPS (29 Oct 2020)
OMP_NUM_THREADS environment is not set. Defaulting to 1 thread. (../comm.cpp:94)
  using 1 OpenMP thread(s) per MPI task
OMP_NUM_THREADS environment is not set. Defaulting to 1 thread. (../comm.cpp:94)
  using 1 OpenMP thread(s) per MPI task
Reading data file ...
  orthogonal box = (-122.39241 -121.13707 -37.090501) to (122.39241 121.13707 37.090501)
  13 by 8 by 2 MPI processor grid
  reading atoms ...
  288751 atoms
  read_data CPU = 0.471 seconds
199981 atoms in group inner
88770 atoms in group outer
1 atoms in group carbon
Neighbor list info ...
  update every 1 steps, delay 0 steps, check yes
  max neighbors/atom: 2000, page size: 100000
  master list distance cutoff = 5.6
  ghost atom cutoff = 5.6
  binsize = 2.8, bins = 88 87 27
  1 neighbor lists, perpetual/occasional/extra = 1 0 0
  (1) pair eam/alloy, perpetual
      attributes: half, newton on
      pair build: half/bin/atomonly/newton
      stencil: half/bin/3d/newton
      bin: standard
Setting up cg style minimization ...
  Unit style    : metal
  Current step  : 0
Per MPI rank memory allocation (min/avg/max) = 5.425 | 5.522 | 5.555 Mbytes
Step v_fx v_fy v_fz PotEng KinEng TotEng 
       0   0.47897653   -29.967199   -50.288905   -1152433.4            0   -1152433.4 
     182 -6.5974614e-06 1.2828854e-05 4.440729e-06   -1152449.5            0   -1152449.5 
Loop time of 1.21084 on 208 procs for 182 steps with 288751 atoms

99.8% CPU use with 208 MPI tasks x 1 OpenMP threads

Minimization stats:
  Stopping criterion = energy tolerance
  Energy initial, next-to-last, final = 
     -1152433.35111232  -1152449.45035275  -1152449.45035275
  Force two-norm initial, final = 87.726166 5.3175897e-05
  Force max component initial, final = 57.413837 1.2828854e-05
  Final line search alpha, max atom move = 1.0000000 1.2828854e-05
  Iterations, force evaluations = 182 356

MPI task timing breakdown:
Section |  min time  |  avg time  |  max time  |%varavg| %total
---------------------------------------------------------------
Pair    | 5.0104e-05 | 0.79981    | 1.0696     |  29.6 | 66.05
Neigh   | 2.6931e-05 | 0.009275   | 0.013895   |   4.5 |  0.77
Comm    | 0.001096   | 0.16355    | 0.66965    |  36.5 | 13.51
Output  | 0          | 0          | 0          |   0.0 |  0.00
Modify  | 1.4732e-05 | 0.00095616 | 0.0026104  |   0.0 |  0.08
Other   |            | 0.2372     |            |       | 19.59

Nlocal:        1388.23 ave        2041 max           0 min
Histogram: 28 4 0 16 8 0 8 12 96 36
Nghost:        2437.42 ave        3379 max           0 min
Histogram: 24 0 8 8 16 4 12 4 30 102
Neighs:        39606.8 ave       59805 max           0 min
Histogram: 28 4 4 14 6 2 10 8 106 26

Total # of neighbors = 8238207
Ave neighs/atom = 28.530488
Neighbor list builds = 6
Dangerous builds = 1
Setting atom values ...
  1 settings made for x
  1 settings made for y
  1 settings made for z
Setting up cg style minimization ...
  Unit style    : metal
  Current step  : 182
Per MPI rank memory allocation (min/avg/max) = 5.425 | 5.522 | 5.555 Mbytes
Step PotEng KinEng TotEng v_fx v_fy v_fz 
     182   -1152449.4            0   -1152449.4   0.01985111  0.010649426 -0.022128822 
     345   -1152449.5            0   -1152449.5 6.6136219e-06 9.1667503e-06 -2.5658702e-06 
Loop time of 1.11207 on 208 procs for 163 steps with 288751 atoms

99.8% CPU use with 208 MPI tasks x 1 OpenMP threads

Minimization stats:
  Stopping criterion = energy tolerance
  Energy initial, next-to-last, final = 
     -1152449.44954607  -1152449.45010978  -1152449.45010978
  Force two-norm initial, final = 0.11491454 0.00013532139
  Force max component initial, final = 0.051181389 9.1667503e-06
  Final line search alpha, max atom move = 1.0000000 9.1667503e-06
  Iterations, force evaluations = 163 326

MPI task timing breakdown:
Section |  min time  |  avg time  |  max time  |%varavg| %total
---------------------------------------------------------------
Pair    | 4.5575e-05 | 0.73607    | 1.0043     |  28.9 | 66.19
Neigh   | 0          | 0          | 0          |   0.0 |  0.00
Comm    | 5.036e-05  | 0.1514     | 0.62738    |  35.3 | 13.61
Output  | 0          | 0          | 0          |   0.0 |  0.00
Modify  | 1.5195e-05 | 0.0013474  | 0.0030472  |   2.1 |  0.12
Other   |            | 0.2233     |            |       | 20.08

Nlocal:        1388.23 ave        2041 max           0 min
Histogram: 28 4 0 16 8 0 8 12 96 36
Nghost:        2437.42 ave        3379 max           0 min
Histogram: 24 0 8 8 16 4 12 4 30 102
Neighs:        39606.7 ave       59807 max           0 min
Histogram: 28 4 4 14 6 2 10 8 106 26

Total # of neighbors = 8238197
Ave neighs/atom = 28.530454
Neighbor list builds = 0
Dangerous builds = 0
Setting atom values ...
  1 settings made for x
  1 settings made for y
  1 settings made for z
Setting up cg style minimization ...
  Unit style    : metal
  Current step  : 345
Per MPI rank memory allocation (min/avg/max) = 5.425 | 5.522 | 5.555 Mbytes
Step PotEng KinEng TotEng v_fx v_fy v_fz 
     345   -1152449.4            0   -1152449.4  0.032206812  0.026215073 -0.046577493 
     508   -1152449.4            0   -1152449.4 -8.0111388e-06 1.4805903e-05 3.4860136e-05 
Loop time of 1.07951 on 208 procs for 163 steps with 288751 atoms

99.9% CPU use with 208 MPI tasks x 1 OpenMP threads

Minimization stats:
  Stopping criterion = energy tolerance
  Energy initial, next-to-last, final = 
     -1152449.44678317   -1152449.4485356   -1152449.4485356
  Force two-norm initial, final = 0.20365579 0.00021171892
  Force max component initial, final = 0.088276011 3.4860136e-05
  Final line search alpha, max atom move = 1.0000000 3.4860136e-05
  Iterations, force evaluations = 163 326

MPI task timing breakdown:
Section |  min time  |  avg time  |  max time  |%varavg| %total
---------------------------------------------------------------
Pair    | 4.5942e-05 | 0.72713    | 0.97773    |  28.6 | 67.36
Neigh   | 0          | 0          | 0          |   0.0 |  0.00
Comm    | 5.1846e-05 | 0.14437    | 0.61075    |  35.6 | 13.37
Output  | 0          | 0          | 0          |   0.0 |  0.00
Modify  | 1.6763e-05 | 0.0013462  | 0.0030319  |   2.1 |  0.12
Other   |            | 0.2067     |            |       | 19.14

Nlocal:        1388.23 ave        2041 max           0 min
Histogram: 28 4 0 16 8 0 8 12 96 36
Nghost:        2437.42 ave        3379 max           0 min
Histogram: 24 0 8 8 16 4 12 4 30 102
Neighs:        39606.7 ave       59807 max           0 min
Histogram: 28 4 4 14 6 2 10 8 106 26

Total # of neighbors = 8238200
Ave neighs/atom = 28.530464
Neighbor list builds = 0
Dangerous builds = 0
The dot product: -3.68676732685291e-06
Setting atom values ...
  1 settings made for x
  1 settings made for y
  1 settings made for z
Setting up cg style minimization ...
  Unit style    : metal
  Current step  : 508
Per MPI rank memory allocation (min/avg/max) = 5.425 | 5.522 | 5.555 Mbytes
Step PotEng KinEng TotEng v_fx v_fy v_fz 
     508   -1152449.4            0   -1152449.4   0.02696634  0.031529333 -0.048572853 
     633   -1152449.4            0   -1152449.4 4.0104424e-06 2.0093885e-05 1.4962305e-05 
Loop time of 0.84939 on 208 procs for 125 steps with 288751 atoms

99.9% CPU use with 208 MPI tasks x 1 OpenMP threads

Minimization stats:
  Stopping criterion = energy tolerance
  Energy initial, next-to-last, final = 
     -1152449.44385212  -1152449.44552386  -1152449.44552386
  Force two-norm initial, final = 0.19829497 0.00013482337
  Force max component initial, final = 0.082508219 2.5803475e-05
  Final line search alpha, max atom move = 1.0000000 2.5803475e-05
  Iterations, force evaluations = 125 250

MPI task timing breakdown:
Section |  min time  |  avg time  |  max time  |%varavg| %total
---------------------------------------------------------------
Pair    | 3.3829e-05 | 0.56292    | 0.76262    |  25.3 | 66.27
Neigh   | 0          | 0          | 0          |   0.0 |  0.00
Comm    | 3.7694e-05 | 0.11497    | 0.48155    |  31.0 | 13.54
Output  | 0          | 0          | 0          |   0.0 |  0.00
Modify  | 1.1612e-05 | 0.0010334  | 0.0023137  |   1.9 |  0.12
Other   |            | 0.1705     |            |       | 20.07

Nlocal:        1388.23 ave        2041 max           0 min
Histogram: 28 4 0 16 8 0 8 12 96 36
Nghost:        2437.42 ave        3379 max           0 min
Histogram: 24 0 8 8 16 4 12 4 30 102
Neighs:        39606.7 ave       59807 max           0 min
Histogram: 28 4 4 14 6 2 10 8 106 26

Total # of neighbors = 8238201
Ave neighs/atom = 28.530467
Neighbor list builds = 0
Dangerous builds = 0
The dot product: -5.37226626539508e-07
Setting atom values ...
  1 settings made for x
  1 settings made for y
  1 settings made for z
Setting up cg style minimization ...
  Unit style    : metal
  Current step  : 633
Per MPI rank memory allocation (min/avg/max) = 5.425 | 5.522 | 5.555 Mbytes
Step PotEng KinEng TotEng v_fx v_fy v_fz 
     633   -1152449.4            0   -1152449.4  0.022027611  0.034508487 -0.045840433 
     750   -1152449.4            0   -1152449.4 -1.5058106e-05 -2.4380922e-05 2.9832771e-05 
Loop time of 0.776787 on 208 procs for 117 steps with 288751 atoms

99.8% CPU use with 208 MPI tasks x 1 OpenMP threads

Minimization stats:
  Stopping criterion = energy tolerance
  Energy initial, next-to-last, final = 
     -1152449.43942606  -1152449.44103337  -1152449.44103337
  Force two-norm initial, final = 0.19320033 0.00016353973
  Force max component initial, final = 0.077637068 2.9832771e-05
  Final line search alpha, max atom move = 1.0000000 2.9832771e-05
  Iterations, force evaluations = 117 234

MPI task timing breakdown:
Section |  min time  |  avg time  |  max time  |%varavg| %total
---------------------------------------------------------------
Pair    | 3.3505e-05 | 0.52209    | 0.70327    |  24.2 | 67.21
Neigh   | 0          | 0          | 0          |   0.0 |  0.00
Comm    | 3.7278e-05 | 0.10361    | 0.43842    |  30.2 | 13.34
Output  | 0          | 0          | 0          |   0.0 |  0.00
Modify  | 1.1334e-05 | 0.00096722 | 0.0022082  |   0.0 |  0.12
Other   |            | 0.1501     |            |       | 19.32

Nlocal:        1388.23 ave        2041 max           0 min
Histogram: 28 4 0 16 8 0 8 12 96 36
Nghost:        2437.42 ave        3379 max           0 min
Histogram: 24 0 8 8 16 4 12 4 30 102
Neighs:        39606.7 ave       59807 max           0 min
Histogram: 28 4 4 14 6 2 10 8 106 26

Total # of neighbors = 8238202
Ave neighs/atom = 28.530471
Neighbor list builds = 0
Dangerous builds = 0
The dot product: -2.24228958753246e-06
Setting atom values ...
  1 settings made for x
  1 settings made for y
  1 settings made for z
Setting up cg style minimization ...
  Unit style    : metal
  Current step  : 750
Per MPI rank memory allocation (min/avg/max) = 5.425 | 5.522 | 5.555 Mbytes
Step PotEng KinEng TotEng v_fx v_fy v_fz 
     750   -1152449.4            0   -1152449.4   0.01857897  0.036434484 -0.042120636 
     934   -1152449.4            0   -1152449.4 8.2298697e-07 -6.3607185e-07 -7.4533639e-06 
Loop time of 1.21996 on 208 procs for 184 steps with 288751 atoms

99.9% CPU use with 208 MPI tasks x 1 OpenMP threads

Minimization stats:
  Stopping criterion = energy tolerance
  Energy initial, next-to-last, final = 
     -1152449.43346314  -1152449.43502115  -1152449.43502115
  Force two-norm initial, final = 0.18903604 2.5222913e-05
  Force max component initial, final = 0.073754683 7.4533639e-06
  Final line search alpha, max atom move = 1.0000000 7.4533639e-06
  Iterations, force evaluations = 184 368

MPI task timing breakdown:
Section |  min time  |  avg time  |  max time  |%varavg| %total
---------------------------------------------------------------
Pair    | 4.9523e-05 | 0.8231     | 1.1112     |  30.4 | 67.47
Neigh   | 0          | 0          | 0          |   0.0 |  0.00
Comm    | 5.735e-05  | 0.16495    | 0.70364    |  38.1 | 13.52
Output  | 0          | 0          | 0          |   0.0 |  0.00
Modify  | 1.8832e-05 | 0.0015166  | 0.0034178  |   2.2 |  0.12
Other   |            | 0.2304     |            |       | 18.89

Nlocal:        1388.23 ave        2040 max           0 min
Histogram: 28 4 0 16 8 0 8 12 96 36
Nghost:        2437.42 ave        3379 max           0 min
Histogram: 24 0 8 8 16 4 12 4 30 102
Neighs:        39606.7 ave       59784 max           0 min
Histogram: 28 4 4 14 6 2 10 8 106 26

Total # of neighbors = 8238202
Ave neighs/atom = 28.530471
Neighbor list builds = 0
Dangerous builds = 0
The dot product: 2.58339886735588e-07
Setting atom values ...
  1 settings made for x
  1 settings made for y
  1 settings made for z
Setting up cg style minimization ...
  Unit style    : metal
  Current step  : 934
Per MPI rank memory allocation (min/avg/max) = 5.425 | 5.522 | 5.555 Mbytes
Step PotEng KinEng TotEng v_fx v_fy v_fz 
     934   -1152449.4            0   -1152449.4  0.016491066  0.038435363 -0.039284681 
    1000   -1152449.4            0   -1152449.4 6.6430772e-05 0.00012887515 -0.00024137103 
    1074   -1152449.4            0   -1152449.4 4.0478617e-06 7.2254201e-06 -1.6716945e-05 
Loop time of 0.914544 on 208 procs for 140 steps with 288751 atoms

99.9% CPU use with 208 MPI tasks x 1 OpenMP threads

Minimization stats:
  Stopping criterion = energy tolerance
  Energy initial, next-to-last, final = 
     -1152449.42593414  -1152449.42745629  -1152449.42745629
  Force two-norm initial, final = 0.18598858 7.0431185e-05
  Force max component initial, final = 0.070684819 1.6716945e-05
  Final line search alpha, max atom move = 1.0000000 1.6716945e-05
  Iterations, force evaluations = 140 280

MPI task timing breakdown:
Section |  min time  |  avg time  |  max time  |%varavg| %total
---------------------------------------------------------------
Pair    | 3.7517e-05 | 0.62347    | 0.84162    |  26.5 | 68.17
Neigh   | 0          | 0          | 0          |   0.0 |  0.00
Comm    | 4.448e-05  | 0.12318    | 0.52634    |  33.2 | 13.47
Output  | 9.733e-05  | 9.9509e-05 | 0.00016684 |   0.0 |  0.01
Modify  | 1.2862e-05 | 0.0011565  | 0.0026133  |   2.0 |  0.13
Other   |            | 0.1666     |            |       | 18.22

Nlocal:        1388.23 ave        2040 max           0 min
Histogram: 28 4 0 16 8 0 8 12 96 36
Nghost:        2437.42 ave        3379 max           0 min
Histogram: 24 0 8 8 16 4 12 4 30 102
Neighs:        39606.7 ave       59784 max           0 min
Histogram: 28 4 4 14 6 2 10 8 106 26

Total # of neighbors = 8238201
Ave neighs/atom = 28.530467
Neighbor list builds = 0
Dangerous builds = 0
The dot product: 5.79775489405275e-07
Setting atom values ...
  1 settings made for x
  1 settings made for y
  1 settings made for z
Setting up cg style minimization ...
  Unit style    : metal
  Current step  : 1074
Per MPI rank memory allocation (min/avg/max) = 5.425 | 5.522 | 5.555 Mbytes
Step PotEng KinEng TotEng v_fx v_fy v_fz 
    1074   -1152449.4            0   -1152449.4  0.015320442  0.041052197 -0.037908818 
    1210   -1152449.4            0   -1152449.4 -2.892216e-06 -1.4569382e-05 -2.0917988e-05 
Loop time of 0.892062 on 208 procs for 136 steps with 288751 atoms

99.9% CPU use with 208 MPI tasks x 1 OpenMP threads

Minimization stats:
  Stopping criterion = energy tolerance
  Energy initial, next-to-last, final = 
     -1152449.41682468   -1152449.4183216   -1152449.4183216
  Force two-norm initial, final = 0.18381499 9.6963790e-05
  Force max component initial, final = 0.068006661 2.0917988e-05
  Final line search alpha, max atom move = 1.0000000 2.0917988e-05
  Iterations, force evaluations = 136 272

MPI task timing breakdown:
Section |  min time  |  avg time  |  max time  |%varavg| %total
---------------------------------------------------------------
Pair    | 3.6803e-05 | 0.60867    | 0.8222     |  26.2 | 68.23
Neigh   | 0          | 0          | 0          |   0.0 |  0.00
Comm    | 4.2228e-05 | 0.12138    | 0.51685    |  32.8 | 13.61
Output  | 0          | 0          | 0          |   0.0 |  0.00
Modify  | 1.3072e-05 | 0.0011218  | 0.0025279  |   1.9 |  0.13
Other   |            | 0.1609     |            |       | 18.03

Nlocal:        1388.23 ave        2040 max           0 min
Histogram: 28 4 0 16 8 0 8 12 96 36
Nghost:        2437.42 ave        3379 max           0 min
Histogram: 24 0 8 8 16 4 12 4 30 102
Neighs:        39606.8 ave       59784 max           0 min
Histogram: 28 4 4 14 6 2 10 8 106 26

Total # of neighbors = 8238204
Ave neighs/atom = 28.530478
Neighbor list builds = 0
Dangerous builds = 0
The dot product: 1.48493092994114e-07
Setting atom values ...
  1 settings made for x
  1 settings made for y
  1 settings made for z
Setting up cg style minimization ...
  Unit style    : metal
  Current step  : 1210
Per MPI rank memory allocation (min/avg/max) = 5.425 | 5.522 | 5.555 Mbytes
Step PotEng KinEng TotEng v_fx v_fy v_fz 
    1210   -1152449.4            0   -1152449.4  0.014690096  0.044584432 -0.038211392 
    1358   -1152449.4            0   -1152449.4 5.7020268e-06 1.5867841e-05 -2.2623777e-05 
Loop time of 0.985957 on 208 procs for 148 steps with 288751 atoms

99.9% CPU use with 208 MPI tasks x 1 OpenMP threads

Minimization stats:
  Stopping criterion = energy tolerance
  Energy initial, next-to-last, final = 
      -1152449.4061353  -1152449.40761586  -1152449.40761586
  Force two-norm initial, final = 0.18238386 9.5207333e-05
  Force max component initial, final = 0.065380252 2.2623777e-05
  Final line search alpha, max atom move = 1.0000000 2.2623777e-05
  Iterations, force evaluations = 148 296

MPI task timing breakdown:
Section |  min time  |  avg time  |  max time  |%varavg| %total
---------------------------------------------------------------
Pair    | 3.9894e-05 | 0.66014    | 0.89069    |  27.3 | 66.95
Neigh   | 0          | 0          | 0          |   0.0 |  0.00
Comm    | 4.5308e-05 | 0.13255    | 0.55151    |  33.7 | 13.44
Output  | 0          | 0          | 0          |   0.0 |  0.00
Modify  | 1.3652e-05 | 0.0012219  | 0.0027321  |   2.0 |  0.12
Other   |            | 0.1921     |            |       | 19.48

Nlocal:        1388.23 ave        2040 max           0 min
Histogram: 28 4 0 16 8 0 8 12 96 36
Nghost:        2437.42 ave        3379 max           0 min
Histogram: 24 0 8 8 16 4 12 4 30 102
Neighs:        39606.7 ave       59784 max           0 min
Histogram: 28 4 4 14 6 2 10 8 106 26

Total # of neighbors = 8238200
Ave neighs/atom = 28.530464
Neighbor list builds = 0
Dangerous builds = 0
The dot product: 7.54613345617076e-07
Setting atom values ...
  1 settings made for x
  1 settings made for y
  1 settings made for z
Setting up cg style minimization ...
  Unit style    : metal
  Current step  : 1358
Per MPI rank memory allocation (min/avg/max) = 5.425 | 5.522 | 5.555 Mbytes
Step PotEng KinEng TotEng v_fx v_fy v_fz 
    1358   -1152449.4            0   -1152449.4  0.014347887  0.049531396 -0.040293675 
    1484   -1152449.4            0   -1152449.4 9.0434516e-06 2.9743315e-05 -3.6980605e-05 
Loop time of 0.844759 on 208 procs for 126 steps with 288751 atoms

99.9% CPU use with 208 MPI tasks x 1 OpenMP threads

Minimization stats:
  Stopping criterion = energy tolerance
  Energy initial, next-to-last, final = 
     -1152449.39388337  -1152449.39536092  -1152449.39536092
  Force two-norm initial, final = 0.1818006 0.00016426495
  Force max component initial, final = 0.062523332 3.6980605e-05
  Final line search alpha, max atom move = 1.0000000 3.6980605e-05
  Iterations, force evaluations = 126 252

MPI task timing breakdown:
Section |  min time  |  avg time  |  max time  |%varavg| %total
---------------------------------------------------------------
Pair    | 3.5365e-05 | 0.56713    | 0.76585    |  25.3 | 67.13
Neigh   | 0          | 0          | 0          |   0.0 |  0.00
Comm    | 4.1558e-05 | 0.11489    | 0.48736    |  31.4 | 13.60
Output  | 0          | 0          | 0          |   0.0 |  0.00
Modify  | 1.2284e-05 | 0.0010392  | 0.0023221  |   1.9 |  0.12
Other   |            | 0.1617     |            |       | 19.14

Nlocal:        1388.23 ave        2040 max           0 min
Histogram: 28 4 0 16 8 0 8 12 96 36
Nghost:        2437.42 ave        3379 max           0 min
Histogram: 24 0 8 8 16 4 12 4 30 102
Neighs:        39606.7 ave       59784 max           0 min
Histogram: 28 4 4 14 6 2 10 8 106 26

Total # of neighbors = 8238198
Ave neighs/atom = 28.530457
Neighbor list builds = 0
Dangerous builds = 0
The dot product: 1.4423907812585e-06
Setting atom values ...
  1 settings made for x
  1 settings made for y
  1 settings made for z
Setting up cg style minimization ...
  Unit style    : metal
  Current step  : 1484
Per MPI rank memory allocation (min/avg/max) = 5.425 | 5.522 | 5.555 Mbytes
Step PotEng KinEng TotEng v_fx v_fy v_fz 
    1484   -1152449.4            0   -1152449.4  0.014198556  0.057285205 -0.045496105 
    1632   -1152449.4            0   -1152449.4 -6.4639164e-06 -2.94737e-05 -3.6060374e-05 
Loop time of 1.00138 on 208 procs for 148 steps with 288751 atoms

99.9% CPU use with 208 MPI tasks x 1 OpenMP threads

Minimization stats:
  Stopping criterion = energy tolerance
  Energy initial, next-to-last, final = 
     -1152449.38012191  -1152449.38163655  -1152449.38163655
  Force two-norm initial, final = 0.18280744 0.00018234565
  Force max component initial, final = 0.059344346 3.6060374e-05
  Final line search alpha, max atom move = 1.0000000 3.6060374e-05
  Iterations, force evaluations = 148 296

MPI task timing breakdown:
Section |  min time  |  avg time  |  max time  |%varavg| %total
---------------------------------------------------------------
Pair    | 3.9929e-05 | 0.66307    | 0.89099    |  27.2 | 66.22
Neigh   | 0          | 0          | 0          |   0.0 |  0.00
Comm    | 4.5648e-05 | 0.1348     | 0.5544     |  33.6 | 13.46
Output  | 0          | 0          | 0          |   0.0 |  0.00
Modify  | 1.353e-05  | 0.0012234  | 0.0027742  |   2.0 |  0.12
Other   |            | 0.2023     |            |       | 20.20

Nlocal:        1388.23 ave        2040 max           0 min
Histogram: 28 4 0 16 8 0 8 12 96 36
Nghost:        2437.42 ave        3379 max           0 min
Histogram: 24 0 8 8 16 4 12 4 30 102
Neighs:        39606.7 ave       59774 max           0 min
Histogram: 28 4 4 14 6 2 10 8 104 28

Total # of neighbors = 8238197
Ave neighs/atom = 28.530454
Neighbor list builds = 0
Dangerous builds = 0
The dot product: -1.17656789198206e-07
Setting atom values ...
  1 settings made for x
  1 settings made for y
  1 settings made for z
Setting up cg style minimization ...
  Unit style    : metal
  Current step  : 1632
Per MPI rank memory allocation (min/avg/max) = 5.425 | 5.522 | 5.555 Mbytes
Step PotEng KinEng TotEng v_fx v_fy v_fz 
    1632   -1152449.4            0   -1152449.4  0.013926807  0.072605429  -0.05887032 
    1826   -1152449.4            0   -1152449.4 1.4420311e-06 6.7229492e-06 7.7901778e-06 
Loop time of 1.27743 on 208 procs for 194 steps with 288751 atoms

99.9% CPU use with 208 MPI tasks x 1 OpenMP threads

Minimization stats:
  Stopping criterion = energy tolerance
  Energy initial, next-to-last, final = 
     -1152449.36505685  -1152449.36702915  -1152449.36702915
  Force two-norm initial, final = 0.18914841 6.3419797e-05
  Force max component initial, final = 0.072605429 1.3768005e-05
  Final line search alpha, max atom move = 1.0000000 1.3768005e-05
  Iterations, force evaluations = 194 388

MPI task timing breakdown:
Section |  min time  |  avg time  |  max time  |%varavg| %total
---------------------------------------------------------------
Pair    | 5.1945e-05 | 0.8661     | 1.1752     |  31.3 | 67.80
Neigh   | 0          | 0          | 0          |   0.0 |  0.00
Comm    | 5.8323e-05 | 0.17338    | 0.7399     |  39.2 | 13.57
Output  | 0          | 0          | 0          |   0.0 |  0.00
Modify  | 1.7612e-05 | 0.0015969  | 0.0036053  |   2.3 |  0.13
Other   |            | 0.2364     |            |       | 18.50

Nlocal:        1388.23 ave        2040 max           0 min
Histogram: 28 4 0 16 8 0 8 12 96 36
Nghost:        2437.42 ave        3379 max           0 min
Histogram: 24 0 8 8 16 4 12 4 30 102
Neighs:        39606.7 ave       59772 max           0 min
Histogram: 28 4 4 14 6 2 10 8 104 28

Total # of neighbors = 8238193
Ave neighs/atom = 28.530440
Neighbor list builds = 0
Dangerous builds = 0
The dot product: 6.10161268586254e-09
Setting atom values ...
  1 settings made for x
  1 settings made for y
  1 settings made for z
Setting up cg style minimization ...
  Unit style    : metal
  Current step  : 1826
Per MPI rank memory allocation (min/avg/max) = 5.425 | 5.522 | 5.555 Mbytes
Step PotEng KinEng TotEng v_fx v_fy v_fz 
    1826   -1152449.4            0   -1152449.4  0.002494117   0.13046467  -0.11073928 
    2000   -1152449.4            0   -1152449.4 1.4084916e-06 4.5513929e-06 9.7793439e-06 
    2027   -1152449.4            0   -1152449.4 3.2689883e-06 -1.4314214e-06 3.5245597e-05 
Loop time of 1.33288 on 208 procs for 201 steps with 288751 atoms

99.9% CPU use with 208 MPI tasks x 1 OpenMP threads

Minimization stats:
  Stopping criterion = energy tolerance
  Energy initial, next-to-last, final = 
     -1152449.35063947  -1152449.35794886  -1152449.35794886
  Force two-norm initial, final = 0.23265965 0.00014482676
  Force max component initial, final = 0.13046467 3.5245597e-05
  Final line search alpha, max atom move = 1.0000000 3.5245597e-05
  Iterations, force evaluations = 201 402

MPI task timing breakdown:
Section |  min time  |  avg time  |  max time  |%varavg| %total
---------------------------------------------------------------
Pair    | 5.5276e-05 | 0.89402    | 1.2035     |  31.7 | 67.07
Neigh   | 4.5253e-06 | 0.0015662  | 0.0023519  |   1.9 |  0.12
Comm    | 0.00019046 | 0.17817    | 0.75272    |  39.4 | 13.37
Output  | 0.00010393 | 0.00010682 | 0.00019072 |   0.0 |  0.01
Modify  | 1.8597e-05 | 0.0016556  | 0.0037062  |   2.4 |  0.12
Other   |            | 0.2574     |            |       | 19.31

Nlocal:        1388.23 ave        2040 max           0 min
Histogram: 28 4 0 16 8 0 8 12 96 36
Nghost:        2437.42 ave        3379 max           0 min
Histogram: 24 0 8 8 16 4 12 4 30 102
Neighs:        39606.7 ave       59772 max           0 min
Histogram: 28 4 4 14 6 2 10 8 104 28

Total # of neighbors = 8238191
Ave neighs/atom = 28.530433
Neighbor list builds = 1
Dangerous builds = 0
The dot product: -6.34615338974708e-06
Setting atom values ...
  1 settings made for x
  1 settings made for y
  1 settings made for z
Setting up cg style minimization ...
  Unit style    : metal
  Current step  : 2027
Per MPI rank memory allocation (min/avg/max) = 5.425 | 5.522 | 5.555 Mbytes
Step PotEng KinEng TotEng v_fx v_fy v_fz 
    2027   -1152449.3            0   -1152449.3 -0.058479215   0.18299442  -0.11643028 
    2217   -1152449.4            0   -1152449.4 5.4496902e-06 -2.1188787e-05 8.6834613e-06 
Loop time of 1.28216 on 208 procs for 190 steps with 288751 atoms

99.9% CPU use with 208 MPI tasks x 1 OpenMP threads

Minimization stats:
  Stopping criterion = energy tolerance
  Energy initial, next-to-last, final = 
     -1152449.34487763  -1152449.35151491  -1152449.35151491
  Force two-norm initial, final = 0.26498484 0.00024845876
  Force max component initial, final = 0.18299442 4.9801770e-05
  Final line search alpha, max atom move = 1.0000000 4.9801770e-05
  Iterations, force evaluations = 190 380

MPI task timing breakdown:
Section |  min time  |  avg time  |  max time  |%varavg| %total
---------------------------------------------------------------
Pair    | 5.115e-05  | 0.84946    | 1.1478     |  31.0 | 66.25
Neigh   | 0          | 0          | 0          |   0.0 |  0.00
Comm    | 5.7866e-05 | 0.17143    | 0.72074    |  38.4 | 13.37
Output  | 0          | 0          | 0          |   0.0 |  0.00
Modify  | 1.7313e-05 | 0.0015633  | 0.0035114  |   2.3 |  0.12
Other   |            | 0.2597     |            |       | 20.26

Nlocal:        1388.23 ave        2041 max           0 min
Histogram: 28 4 0 16 8 0 8 12 96 36
Nghost:        2437.42 ave        3379 max           0 min
Histogram: 24 0 8 8 16 4 12 4 30 102
Neighs:        39606.7 ave       59795 max           0 min
Histogram: 28 4 4 14 6 2 10 8 106 26

Total # of neighbors = 8238196
Ave neighs/atom = 28.530450
Neighbor list builds = 0
Dangerous builds = 0
The dot product: -4.59527398019203e-06
Setting atom values ...
  1 settings made for x
  1 settings made for y
  1 settings made for z
Setting up cg style minimization ...
  Unit style    : metal
  Current step  : 2217
Per MPI rank memory allocation (min/avg/max) = 5.425 | 5.522 | 5.555 Mbytes
Step PotEng KinEng TotEng v_fx v_fy v_fz 
    2217   -1152449.3            0   -1152449.3 -0.058389312    0.1063405 -0.056158342 
    2359   -1152449.3            0   -1152449.3 -1.4810314e-05 3.3583179e-05 -8.6284729e-06 
Loop time of 0.962811 on 208 procs for 142 steps with 288751 atoms

99.9% CPU use with 208 MPI tasks x 1 OpenMP threads

Minimization stats:
  Stopping criterion = energy tolerance
  Energy initial, next-to-last, final = 
     -1152449.33983024  -1152449.34336948  -1152449.34336948
  Force two-norm initial, final = 0.19152923 0.00011299038
  Force max component initial, final = 0.1063405 3.3583179e-05
  Final line search alpha, max atom move = 1.0000000 3.3583179e-05
  Iterations, force evaluations = 142 284

MPI task timing breakdown:
Section |  min time  |  avg time  |  max time  |%varavg| %total
---------------------------------------------------------------
Pair    | 3.8132e-05 | 0.63592    | 0.8548     |  26.8 | 66.05
Neigh   | 0          | 0          | 0          |   0.0 |  0.00
Comm    | 4.3101e-05 | 0.12962    | 0.52934    |  32.5 | 13.46
Output  | 0          | 0          | 0          |   0.0 |  0.00
Modify  | 1.4126e-05 | 0.0011707  | 0.0026467  |   2.0 |  0.12
Other   |            | 0.1961     |            |       | 20.37

Nlocal:        1388.23 ave        2041 max           0 min
Histogram: 28 4 0 16 8 0 8 12 96 36
Nghost:        2437.46 ave        3379 max           0 min
Histogram: 24 0 8 8 16 4 12 4 30 102
Neighs:        39606.7 ave       59795 max           0 min
Histogram: 28 4 4 14 6 2 10 8 106 26

Total # of neighbors = 8238202
Ave neighs/atom = 28.530471
Neighbor list builds = 0
Dangerous builds = 0
The dot product: 4.03239442741196e-06
Setting atom values ...
  1 settings made for x
  1 settings made for y
  1 settings made for z
Setting up cg style minimization ...
  Unit style    : metal
  Current step  : 2359
Per MPI rank memory allocation (min/avg/max) = 5.425 | 5.522 | 5.555 Mbytes
Step PotEng KinEng TotEng v_fx v_fy v_fz 
    2359   -1152449.3            0   -1152449.3 -0.036890504  0.041464082 -0.035968183 
    2608   -1152449.3            0   -1152449.3 6.5840806e-06 -1.2113015e-06 1.2118743e-05 
Loop time of 1.66506 on 208 procs for 249 steps with 288751 atoms

99.9% CPU use with 208 MPI tasks x 1 OpenMP threads

Minimization stats:
  Stopping criterion = energy tolerance
  Energy initial, next-to-last, final = 
     -1152449.33424639  -1152449.34567832  -1152449.34567832
  Force two-norm initial, final = 0.1598923 8.7947357e-05
  Force max component initial, final = 0.062462189 1.2646936e-05
  Final line search alpha, max atom move = 1.0000000 1.2646936e-05
  Iterations, force evaluations = 249 498

MPI task timing breakdown:
Section |  min time  |  avg time  |  max time  |%varavg| %total
---------------------------------------------------------------
Pair    | 6.7884e-05 | 1.1135     | 1.5013     |  35.4 | 66.87
Neigh   | 4.5085e-06 | 0.0015516  | 0.0023809  |   1.9 |  0.09
Comm    | 0.00018616 | 0.22525    | 0.95203    |  43.9 | 13.53
Output  | 0          | 0          | 0          |   0.0 |  0.00
Modify  | 2.428e-05  | 0.0020521  | 0.0046207  |   2.6 |  0.12
Other   |            | 0.3228     |            |       | 19.38

Nlocal:        1388.23 ave        2041 max           0 min
Histogram: 28 4 0 16 8 0 8 12 96 36
Nghost:        2437.46 ave        3379 max           0 min
Histogram: 24 0 8 8 16 4 12 4 30 102
Neighs:        39606.7 ave       59795 max           0 min
Histogram: 28 4 4 14 6 2 10 8 106 26

Total # of neighbors = 8238202
Ave neighs/atom = 28.530471
Neighbor list builds = 1
Dangerous builds = 0
The dot product: -1.72419157070383e-06
Setting atom values ...
  1 settings made for x
  1 settings made for y
  1 settings made for z
Setting up cg style minimization ...
  Unit style    : metal
  Current step  : 2608
Per MPI rank memory allocation (min/avg/max) = 5.425 | 5.522 | 5.555 Mbytes
Step PotEng KinEng TotEng v_fx v_fy v_fz 
    2608   -1152449.3            0   -1152449.3  0.022749487 0.0038537253  0.036444568 
    2732   -1152449.3            0   -1152449.3 -7.5451854e-06 7.4278671e-06 -5.4768052e-06 
Loop time of 0.814905 on 208 procs for 124 steps with 288751 atoms

99.9% CPU use with 208 MPI tasks x 1 OpenMP threads

Minimization stats:
  Stopping criterion = energy tolerance
  Energy initial, next-to-last, final = 
     -1152449.34777696   -1152449.3487615   -1152449.3487615
  Force two-norm initial, final = 0.13145015 7.4478905e-05
  Force max component initial, final = 0.048260921 1.5363419e-05
  Final line search alpha, max atom move = 1.0000000 1.5363419e-05
  Iterations, force evaluations = 124 248

MPI task timing breakdown:
Section |  min time  |  avg time  |  max time  |%varavg| %total
---------------------------------------------------------------
Pair    | 3.3515e-05 | 0.55222    | 0.7442     |  24.9 | 67.77
Neigh   | 0          | 0          | 0          |   0.0 |  0.00
Comm    | 3.834e-05  | 0.10946    | 0.46493    |  31.2 | 13.43
Output  | 0          | 0          | 0          |   0.0 |  0.00
Modify  | 1.1543e-05 | 0.0010254  | 0.002299   |   1.8 |  0.13
Other   |            | 0.1522     |            |       | 18.68

Nlocal:        1388.23 ave        2041 max           0 min
Histogram: 28 4 0 16 8 0 8 12 96 36
Nghost:        2437.42 ave        3379 max           0 min
Histogram: 24 0 8 8 16 4 12 4 30 102
Neighs:        39606.7 ave       59815 max           0 min
Histogram: 28 4 4 14 6 2 10 8 106 26

Total # of neighbors = 8238191
Ave neighs/atom = 28.530433
Neighbor list builds = 0
Dangerous builds = 0
The dot product: -1.13200529016894e-07
Setting atom values ...
  1 settings made for x
  1 settings made for y
  1 settings made for z
Setting up cg style minimization ...
  Unit style    : metal
  Current step  : 2732
Per MPI rank memory allocation (min/avg/max) = 5.425 | 5.522 | 5.555 Mbytes
Step PotEng KinEng TotEng v_fx v_fy v_fz 
    2732   -1152449.3            0   -1152449.3 0.0090966359 0.0064990229  0.018799254 
    2910   -1152449.4            0   -1152449.4 -1.5716313e-05 -1.2354466e-05 -3.3348646e-05 
Loop time of 1.17508 on 208 procs for 178 steps with 288751 atoms

99.9% CPU use with 208 MPI tasks x 1 OpenMP threads

Minimization stats:
  Stopping criterion = energy tolerance
  Energy initial, next-to-last, final = 
     -1152449.34988203  -1152449.35078605  -1152449.35078605
  Force two-norm initial, final = 0.125131 0.00013760798
  Force max component initial, final = 0.047536169 3.3348646e-05
  Final line search alpha, max atom move = 1.0000000 3.3348646e-05
  Iterations, force evaluations = 178 356

MPI task timing breakdown:
Section |  min time  |  avg time  |  max time  |%varavg| %total
---------------------------------------------------------------
Pair    | 4.7601e-05 | 0.7982     | 1.0812     |  30.0 | 67.93
Neigh   | 0          | 0          | 0          |   0.0 |  0.00
Comm    | 5.518e-05  | 0.16003    | 0.68422    |  37.6 | 13.62
Output  | 0          | 0          | 0          |   0.0 |  0.00
Modify  | 1.625e-05  | 0.0014673  | 0.0033057  |   2.2 |  0.12
Other   |            | 0.2154     |            |       | 18.33

Nlocal:        1388.23 ave        2040 max           0 min
Histogram: 28 4 0 16 8 0 8 12 96 36
Nghost:        2437.42 ave        3379 max           0 min
Histogram: 24 0 8 8 16 4 12 4 30 102
Neighs:        39606.7 ave       59784 max           0 min
Histogram: 28 4 4 14 6 2 10 8 106 26

Total # of neighbors = 8238193
Ave neighs/atom = 28.530440
Neighbor list builds = 0
Dangerous builds = 0
The dot product: -2.09112797451214e-08
Setting atom values ...
  1 settings made for x
  1 settings made for y
  1 settings made for z
Setting up cg style minimization ...
  Unit style    : metal
  Current step  : 2910
Per MPI rank memory allocation (min/avg/max) = 5.425 | 5.522 | 5.555 Mbytes
Step PotEng KinEng TotEng v_fx v_fy v_fz 
    2910   -1152449.4            0   -1152449.4  0.010022571  0.006493259  0.020221502 
    3000   -1152449.4            0   -1152449.4 2.4088418e-05 -6.01265e-05 -9.9914738e-06 
    3100   -1152449.4            0   -1152449.4 -1.3938954e-05 1.7051451e-06 -1.9817274e-05 
Loop time of 1.26098 on 208 procs for 190 steps with 288751 atoms

99.9% CPU use with 208 MPI tasks x 1 OpenMP threads

Minimization stats:
  Stopping criterion = energy tolerance
  Energy initial, next-to-last, final = 
     -1152449.35066627  -1152449.35156742  -1152449.35156742
  Force two-norm initial, final = 0.12553508 9.9052919e-05
  Force max component initial, final = 0.046946979 3.1196290e-05
  Final line search alpha, max atom move = 1.0000000 3.1196290e-05
  Iterations, force evaluations = 190 380

MPI task timing breakdown:
Section |  min time  |  avg time  |  max time  |%varavg| %total
---------------------------------------------------------------
Pair    | 5.0955e-05 | 0.84532    | 1.1423     |  30.9 | 67.04
Neigh   | 0          | 0          | 0          |   0.0 |  0.00
Comm    | 5.7996e-05 | 0.1686     | 0.71432    |  38.5 | 13.37
Output  | 0.00010454 | 0.00010705 | 0.00018087 |   0.0 |  0.01
Modify  | 1.7279e-05 | 0.0015651  | 0.0035036  |   2.3 |  0.12
Other   |            | 0.2454     |            |       | 19.46

Nlocal:        1388.23 ave        2041 max           0 min
Histogram: 28 4 0 16 8 0 8 12 96 36
Nghost:        2437.42 ave        3379 max           0 min
Histogram: 24 0 8 8 16 4 12 4 30 102
Neighs:        39606.7 ave       59815 max           0 min
Histogram: 28 4 4 14 6 2 10 8 106 26

Total # of neighbors = 8238189
Ave neighs/atom = 28.530426
Neighbor list builds = 0
Dangerous builds = 0
The dot product: -2.78662355359362e-08
Setting atom values ...
  1 settings made for x
  1 settings made for y
  1 settings made for z
Setting up cg style minimization ...
  Unit style    : metal
  Current step  : 3100
Per MPI rank memory allocation (min/avg/max) = 5.425 | 5.522 | 5.555 Mbytes
Step PotEng KinEng TotEng v_fx v_fy v_fz 
    3100   -1152449.4            0   -1152449.4 0.0092903892 0.0065589843  0.019224723 
    3317   -1152449.4            0   -1152449.4 6.9371401e-06 -2.8833721e-06 8.3090344e-06 
Loop time of 1.43277 on 208 procs for 217 steps with 288751 atoms

99.9% CPU use with 208 MPI tasks x 1 OpenMP threads

Minimization stats:
  Stopping criterion = energy tolerance
  Energy initial, next-to-last, final = 
     -1152449.35012993  -1152449.35102299  -1152449.35102299
  Force two-norm initial, final = 0.12497872 3.8606852e-05
  Force max component initial, final = 0.046326935 8.3090344e-06
  Final line search alpha, max atom move = 1.0000000 8.3090344e-06
  Iterations, force evaluations = 217 434

MPI task timing breakdown:
Section |  min time  |  avg time  |  max time  |%varavg| %total
---------------------------------------------------------------
Pair    | 5.7845e-05 | 0.97263    | 1.3201     |  33.2 | 67.88
Neigh   | 0          | 0          | 0          |   0.0 |  0.00
Comm    | 6.4312e-05 | 0.19501    | 0.83229    |  41.5 | 13.61
Output  | 0          | 0          | 0          |   0.0 |  0.00
Modify  | 1.9516e-05 | 0.0017841  | 0.0039981  |   2.4 |  0.12
Other   |            | 0.2633     |            |       | 18.38

Nlocal:        1388.23 ave        2041 max           0 min
Histogram: 28 4 0 16 8 0 8 12 96 36
Nghost:        2437.42 ave        3379 max           0 min
Histogram: 24 0 8 8 16 4 12 4 30 102
Neighs:        39606.7 ave       59815 max           0 min
Histogram: 28 4 4 14 6 2 10 8 106 26

Total # of neighbors = 8238191
Ave neighs/atom = 28.530433
Neighbor list builds = 0
Dangerous builds = 0
The dot product: 8.6761369984141e-09
Setting atom values ...
  1 settings made for x
  1 settings made for y
  1 settings made for z
Setting up cg style minimization ...
  Unit style    : metal
  Current step  : 3317
Per MPI rank memory allocation (min/avg/max) = 5.425 | 5.522 | 5.555 Mbytes
Step PotEng KinEng TotEng v_fx v_fy v_fz 
    3317   -1152449.3            0   -1152449.3 0.0083688981 0.0063989898  0.017753544 
    3493   -1152449.3            0   -1152449.3 3.3412236e-05 -1.2221666e-05 4.1402886e-05 
Loop time of 1.17069 on 208 procs for 176 steps with 288751 atoms

99.9% CPU use with 208 MPI tasks x 1 OpenMP threads

Minimization stats:
  Stopping criterion = energy tolerance
  Energy initial, next-to-last, final = 
     -1152449.34824659  -1152449.34912707  -1152449.34912707
  Force two-norm initial, final = 0.12404916 0.00017033456
  Force max component initial, final = 0.045691751 4.1402886e-05
  Final line search alpha, max atom move = 1.0000000 4.1402886e-05
  Iterations, force evaluations = 176 352

MPI task timing breakdown:
Section |  min time  |  avg time  |  max time  |%varavg| %total
---------------------------------------------------------------
Pair    | 4.8109e-05 | 0.78424    | 1.0605     |  29.8 | 66.99
Neigh   | 0          | 0          | 0          |   0.0 |  0.00
Comm    | 5.1906e-05 | 0.15711    | 0.65593    |  36.9 | 13.42
Output  | 0          | 0          | 0          |   0.0 |  0.00
Modify  | 1.6491e-05 | 0.0014506  | 0.0033059  |   2.2 |  0.12
Other   |            | 0.2279     |            |       | 19.47

Nlocal:        1388.23 ave        2041 max           0 min
Histogram: 28 4 0 16 8 0 8 12 96 36
Nghost:        2437.46 ave        3379 max           0 min
Histogram: 24 0 8 8 16 4 12 4 30 102
Neighs:        39606.7 ave       59805 max           0 min
Histogram: 28 4 4 14 6 2 10 8 106 26

Total # of neighbors = 8238191
Ave neighs/atom = 28.530433
Neighbor list builds = 0
Dangerous builds = 0
The dot product: 3.72088616844408e-08
Setting atom values ...
  1 settings made for x
  1 settings made for y
  1 settings made for z
Setting up cg style minimization ...
  Unit style    : metal
  Current step  : 3493
Per MPI rank memory allocation (min/avg/max) = 5.425 | 5.522 | 5.555 Mbytes
Step PotEng KinEng TotEng v_fx v_fy v_fz 
    3493   -1152449.3            0   -1152449.3 0.0074531803 0.0059697324  0.016067404 
    3683   -1152449.3            0   -1152449.3 -2.8471774e-06 1.6532453e-06 -3.0549121e-06 
Loop time of 1.2478 on 208 procs for 190 steps with 288751 atoms

99.9% CPU use with 208 MPI tasks x 1 OpenMP threads

Minimization stats:
  Stopping criterion = energy tolerance
  Energy initial, next-to-last, final = 
     -1152449.34500715  -1152449.34587366  -1152449.34587366
  Force two-norm initial, final = 0.12308462 9.3710015e-05
  Force max component initial, final = 0.045003619 3.0549121e-06
  Final line search alpha, max atom move = 1.0000000 3.0549121e-06
  Iterations, force evaluations = 190 380

MPI task timing breakdown:
Section |  min time  |  avg time  |  max time  |%varavg| %total
---------------------------------------------------------------
Pair    | 5.0862e-05 | 0.84726    | 1.1424     |  31.0 | 67.90
Neigh   | 0          | 0          | 0          |   0.0 |  0.00
Comm    | 5.8533e-05 | 0.16802    | 0.7202     |  38.8 | 13.47
Output  | 0          | 0          | 0          |   0.0 |  0.00
Modify  | 1.7371e-05 | 0.0015615  | 0.0035182  |   2.3 |  0.13
Other   |            | 0.231      |            |       | 18.51

Nlocal:        1388.23 ave        2041 max           0 min
Histogram: 28 4 0 16 8 0 8 12 96 36
Nghost:        2437.46 ave        3379 max           0 min
Histogram: 24 0 8 8 16 4 12 4 30 102
Neighs:        39606.7 ave       59797 max           0 min
Histogram: 28 4 4 14 6 2 10 8 106 26

Total # of neighbors = 8238190
Ave neighs/atom = 28.530429
Neighbor list builds = 0
Dangerous builds = 0
The dot product: -1.58968468762301e-09
Setting atom values ...
  1 settings made for x
  1 settings made for y
  1 settings made for z
Setting up cg style minimization ...
  Unit style    : metal
  Current step  : 3683
Per MPI rank memory allocation (min/avg/max) = 5.425 | 5.522 | 5.555 Mbytes
Step PotEng KinEng TotEng v_fx v_fy v_fz 
    3683   -1152449.3            0   -1152449.3 0.0066325319   0.00527665  0.014303363 
    3923   -1152449.3            0   -1152449.3 1.7785921e-06 -3.1944164e-07 2.4713968e-06 
Loop time of 1.56403 on 208 procs for 240 steps with 288751 atoms

99.9% CPU use with 208 MPI tasks x 1 OpenMP threads

Minimization stats:
  Stopping criterion = energy tolerance
  Energy initial, next-to-last, final = 
      -1152449.3404021  -1152449.34125649  -1152449.34125649
  Force two-norm initial, final = 0.12230684 1.3380531e-05
  Force max component initial, final = 0.044293897 2.6308032e-06
  Final line search alpha, max atom move = 1.0000000 2.6308032e-06
  Iterations, force evaluations = 240 480

MPI task timing breakdown:
Section |  min time  |  avg time  |  max time  |%varavg| %total
---------------------------------------------------------------
Pair    | 6.4424e-05 | 1.0655     | 1.439      |  34.7 | 68.12
Neigh   | 0          | 0          | 0          |   0.0 |  0.00
Comm    | 7.4341e-05 | 0.21031    | 0.89641    |  43.4 | 13.45
Output  | 0          | 0          | 0          |   0.0 |  0.00
Modify  | 2.1817e-05 | 0.0019769  | 0.0044433  |   2.6 |  0.13
Other   |            | 0.2863     |            |       | 18.30

Nlocal:        1388.23 ave        2041 max           0 min
Histogram: 28 4 0 16 8 0 8 12 96 36
Nghost:        2437.45 ave        3379 max           0 min
Histogram: 24 0 8 8 16 4 12 4 30 102
Neighs:        39606.7 ave       59795 max           0 min
Histogram: 28 4 4 14 6 2 10 8 106 26

Total # of neighbors = 8238190
Ave neighs/atom = 28.530429
Neighbor list builds = 0
Dangerous builds = 0
The dot product: 1.69052834273036e-09
Setting atom values ...
  1 settings made for x
  1 settings made for y
  1 settings made for z
Setting up cg style minimization ...
  Unit style    : metal
  Current step  : 3923
Per MPI rank memory allocation (min/avg/max) = 5.425 | 5.522 | 5.555 Mbytes
Step PotEng KinEng TotEng v_fx v_fy v_fz 
    3923   -1152449.3            0   -1152449.3 0.0060778404 0.0042641648  0.012682012 
    4000   -1152449.3            0   -1152449.3 8.7428932e-05 -7.8980904e-05 7.1729655e-05 
    4118   -1152449.3            0   -1152449.3 -1.3619938e-05 4.5541402e-06 -1.7288065e-05 
Loop time of 1.27766 on 208 procs for 195 steps with 288751 atoms

99.9% CPU use with 208 MPI tasks x 1 OpenMP threads

Minimization stats:
  Stopping criterion = energy tolerance
  Energy initial, next-to-last, final = 
     -1152449.33441574  -1152449.33526361  -1152449.33526361
  Force two-norm initial, final = 0.12190901 8.6765493e-05
  Force max component initial, final = 0.044143903 1.7288065e-05
  Final line search alpha, max atom move = 1.0000000 1.7288065e-05
  Iterations, force evaluations = 195 390

MPI task timing breakdown:
Section |  min time  |  avg time  |  max time  |%varavg| %total
---------------------------------------------------------------
Pair    | 5.6523e-05 | 0.86948    | 1.1767     |  31.4 | 68.05
Neigh   | 0          | 0          | 0          |   0.0 |  0.00
Comm    | 5.8005e-05 | 0.17318    | 0.74239    |  39.4 | 13.55
Output  | 7.4605e-05 | 8.4008e-05 | 0.00015194 |   0.0 |  0.01
Modify  | 1.7717e-05 | 0.001603   | 0.0036259  |   2.3 |  0.13
Other   |            | 0.2333     |            |       | 18.26

Nlocal:        1388.23 ave        2041 max           0 min
Histogram: 28 4 0 16 8 0 8 12 96 36
Nghost:        2437.45 ave        3379 max           0 min
Histogram: 24 0 8 8 16 4 12 4 30 102
Neighs:        39606.7 ave       59795 max           0 min
Histogram: 28 4 4 14 6 2 10 8 106 26

Total # of neighbors = 8238192
Ave neighs/atom = 28.530436
Neighbor list builds = 0
Dangerous builds = 0
The dot product: -1.01487053397289e-08
Setting atom values ...
  1 settings made for x
  1 settings made for y
  1 settings made for z
Setting up cg style minimization ...
  Unit style    : metal
  Current step  : 4118
Per MPI rank memory allocation (min/avg/max) = 5.425 | 5.522 | 5.555 Mbytes
Step PotEng KinEng TotEng v_fx v_fy v_fz 
    4118   -1152449.3            0   -1152449.3 0.0057625005 0.0029530507  0.011181959 
    4295   -1152449.3            0   -1152449.3 3.8840383e-05 -1.4924708e-05 4.7826475e-05 
Loop time of 1.16635 on 208 procs for 177 steps with 288751 atoms

99.9% CPU use with 208 MPI tasks x 1 OpenMP threads

Minimization stats:
  Stopping criterion = energy tolerance
  Energy initial, next-to-last, final = 
     -1152449.32702746  -1152449.32787401  -1152449.32787401
  Force two-norm initial, final = 0.12188763 0.00015647433
  Force max component initial, final = 0.044006541 4.7826475e-05
  Final line search alpha, max atom move = 1.0000000 4.7826475e-05
  Iterations, force evaluations = 177 354

MPI task timing breakdown:
Section |  min time  |  avg time  |  max time  |%varavg| %total
---------------------------------------------------------------
Pair    | 4.7663e-05 | 0.78748    | 1.0612     |  29.8 | 67.52
Neigh   | 0          | 0          | 0          |   0.0 |  0.00
Comm    | 5.4409e-05 | 0.15636    | 0.65935    |  37.1 | 13.41
Output  | 0          | 0          | 0          |   0.0 |  0.00
Modify  | 1.6027e-05 | 0.0014639  | 0.0033051  |   2.2 |  0.13
Other   |            | 0.221      |            |       | 18.95

Nlocal:        1388.23 ave        2040 max           0 min
Histogram: 28 4 0 16 8 0 8 12 96 36
Nghost:        2437.46 ave        3379 max           0 min
Histogram: 24 0 8 8 16 4 12 4 30 102
Neighs:        39606.7 ave       59772 max           0 min
Histogram: 28 4 4 14 6 2 10 8 104 28

Total # of neighbors = 8238189
Ave neighs/atom = 28.530426
Neighbor list builds = 0
Dangerous builds = 0
The dot product: 2.75991130691543e-08
Setting atom values ...
  1 settings made for x
  1 settings made for y
  1 settings made for z
Setting up cg style minimization ...
  Unit style    : metal
  Current step  : 4295
Per MPI rank memory allocation (min/avg/max) = 5.425 | 5.522 | 5.555 Mbytes
Step PotEng KinEng TotEng v_fx v_fy v_fz 
    4295   -1152449.3            0   -1152449.3  0.005800352 0.0013368607 0.0099750789 
    4482   -1152449.3            0   -1152449.3 -1.0359234e-05 2.6630716e-05  5.17142e-06 
Loop time of 1.26051 on 208 procs for 187 steps with 288751 atoms

99.9% CPU use with 208 MPI tasks x 1 OpenMP threads

Minimization stats:
  Stopping criterion = energy tolerance
  Energy initial, next-to-last, final = 
     -1152449.31820643   -1152449.3190577   -1152449.3190577
  Force two-norm initial, final = 0.12224193 0.00010229075
  Force max component initial, final = 0.0438049 2.6630716e-05
  Final line search alpha, max atom move = 1.0000000 2.6630716e-05
  Iterations, force evaluations = 187 374

MPI task timing breakdown:
Section |  min time  |  avg time  |  max time  |%varavg| %total
---------------------------------------------------------------
Pair    | 5.0299e-05 | 0.84001    | 1.1385     |  30.8 | 66.64
Neigh   | 0          | 0          | 0          |   0.0 |  0.00
Comm    | 5.9461e-05 | 0.17153    | 0.72378    |  38.1 | 13.61
Output  | 0          | 0          | 0          |   0.0 |  0.00
Modify  | 1.7718e-05 | 0.0015423  | 0.0034718  |   2.3 |  0.12
Other   |            | 0.2474     |            |       | 19.63

Nlocal:        1388.23 ave        2040 max           0 min
Histogram: 28 4 0 16 8 0 8 12 96 36
Nghost:        2437.48 ave        3379 max           0 min
Histogram: 24 0 8 8 16 4 12 4 30 102
Neighs:        39606.7 ave       59772 max           0 min
Histogram: 28 4 4 14 6 2 10 8 104 28

Total # of neighbors = 8238188
Ave neighs/atom = 28.530422
Neighbor list builds = 0
Dangerous builds = 0
The dot product: 7.55242554400547e-10
Setting atom values ...
  1 settings made for x
  1 settings made for y
  1 settings made for z
Setting up cg style minimization ...
  Unit style    : metal
  Current step  : 4482
Per MPI rank memory allocation (min/avg/max) = 5.425 | 5.522 | 5.555 Mbytes
Step PotEng KinEng TotEng v_fx v_fy v_fz 
    4482   -1152449.3            0   -1152449.3 0.0060137157 -0.00047849426 0.0088760525 
    4661   -1152449.3            0   -1152449.3 2.4188881e-05 -1.338848e-05 2.6611945e-05 
Loop time of 1.17333 on 208 procs for 179 steps with 288751 atoms

99.9% CPU use with 208 MPI tasks x 1 OpenMP threads

Minimization stats:
  Stopping criterion = energy tolerance
  Energy initial, next-to-last, final = 
     -1152449.30792211  -1152449.30878024  -1152449.30878024
  Force two-norm initial, final = 0.12279178 0.00013674401
  Force max component initial, final = 0.043667756 2.6611945e-05
  Final line search alpha, max atom move = 1.0000000 2.6611945e-05
  Iterations, force evaluations = 179 358

MPI task timing breakdown:
Section |  min time  |  avg time  |  max time  |%varavg| %total
---------------------------------------------------------------
Pair    | 4.8336e-05 | 0.79635    | 1.072      |  29.9 | 67.87
Neigh   | 0          | 0          | 0          |   0.0 |  0.00
Comm    | 5.6873e-05 | 0.15809    | 0.66655    |  37.3 | 13.47
Output  | 0          | 0          | 0          |   0.0 |  0.00
Modify  | 1.6793e-05 | 0.001475   | 0.0033119  |   2.2 |  0.13
Other   |            | 0.2174     |            |       | 18.53

Nlocal:        1388.23 ave        2040 max           0 min
Histogram: 28 4 0 16 8 0 8 12 96 36
Nghost:        2437.45 ave        3379 max           0 min
Histogram: 24 0 8 8 16 4 12 4 30 102
Neighs:        39606.7 ave       59772 max           0 min
Histogram: 28 4 4 14 6 2 10 8 104 28

Total # of neighbors = 8238188
Ave neighs/atom = 28.530422
Neighbor list builds = 0
Dangerous builds = 0
The dot product: 2.21147989062861e-08
Setting atom values ...
  1 settings made for x
  1 settings made for y
  1 settings made for z
Setting up cg style minimization ...
  Unit style    : metal
  Current step  : 4661
Per MPI rank memory allocation (min/avg/max) = 5.425 | 5.522 | 5.555 Mbytes
Step PotEng KinEng TotEng v_fx v_fy v_fz 
    4661   -1152449.3            0   -1152449.3 0.0066391596 -0.0025536386 0.0082056771 
    4845   -1152449.3            0   -1152449.3 1.4275878e-05 -8.111314e-06 1.5565742e-05 
Loop time of 1.21504 on 208 procs for 184 steps with 288751 atoms

99.9% CPU use with 208 MPI tasks x 1 OpenMP threads

Minimization stats:
  Stopping criterion = energy tolerance
  Energy initial, next-to-last, final = 
     -1152449.29614669  -1152449.29701058  -1152449.29701058
  Force two-norm initial, final = 0.12347839 0.00010985247
  Force max component initial, final = 0.04347639 1.5565742e-05
  Final line search alpha, max atom move = 1.0000000 1.5565742e-05
  Iterations, force evaluations = 184 368

MPI task timing breakdown:
Section |  min time  |  avg time  |  max time  |%varavg| %total
---------------------------------------------------------------
Pair    | 5.0411e-05 | 0.82357    | 1.1166     |  30.6 | 67.78
Neigh   | 0          | 0          | 0          |   0.0 |  0.00
Comm    | 5.5425e-05 | 0.16536    | 0.70727    |  38.1 | 13.61
Output  | 0          | 0          | 0          |   0.0 |  0.00
Modify  | 1.6856e-05 | 0.0015114  | 0.0034044  |   2.2 |  0.12
Other   |            | 0.2246     |            |       | 18.48

Nlocal:        1388.23 ave        2040 max           0 min
Histogram: 28 4 0 16 8 0 8 12 96 36
Nghost:        2437.44 ave        3379 max           0 min
Histogram: 24 0 8 8 16 4 12 4 30 102
Neighs:        39606.7 ave       59772 max           0 min
Histogram: 28 4 4 14 6 2 10 8 104 28

Total # of neighbors = 8238189
Ave neighs/atom = 28.530426
Neighbor list builds = 0
Dangerous builds = 0
The dot product: 1.68738827585211e-08
Setting atom values ...
  1 settings made for x
  1 settings made for y
  1 settings made for z
Setting up cg style minimization ...
  Unit style    : metal
  Current step  : 4845
Per MPI rank memory allocation (min/avg/max) = 5.425 | 5.522 | 5.555 Mbytes
Step PotEng KinEng TotEng v_fx v_fy v_fz 
    4845   -1152449.3            0   -1152449.3 0.0076633311 -0.0046858964 0.0081107925 
    5000   -1152449.3            0   -1152449.3 8.7097269e-06 1.7425201e-05 2.7261672e-05 
    5030   -1152449.3            0   -1152449.3 8.1239767e-07 -8.276368e-07 5.9741812e-07 
Loop time of 1.25144 on 208 procs for 185 steps with 288751 atoms

99.9% CPU use with 208 MPI tasks x 1 OpenMP threads

Minimization stats:
  Stopping criterion = energy tolerance
  Energy initial, next-to-last, final = 
      -1152449.2828625  -1152449.28372744  -1152449.28372744
  Force two-norm initial, final = 0.12411975 0.0001020898
  Force max component initial, final = 0.043286513 1.0760530e-05
  Final line search alpha, max atom move = 1.0000000 1.0760530e-05
  Iterations, force evaluations = 185 370

MPI task timing breakdown:
Section |  min time  |  avg time  |  max time  |%varavg| %total
---------------------------------------------------------------
Pair    | 4.9843e-05 | 0.82387    | 1.1145     |  30.5 | 65.83
Neigh   | 0          | 0          | 0          |   0.0 |  0.00
Comm    | 5.5215e-05 | 0.16575    | 0.69224    |  37.5 | 13.24
Output  | 9.7543e-05 | 0.00010415 | 0.00018646 |   0.0 |  0.01
Modify  | 1.6815e-05 | 0.001524   | 0.0034482  |   2.3 |  0.12
Other   |            | 0.2602     |            |       | 20.79

Nlocal:        1388.23 ave        2040 max           0 min
Histogram: 28 4 0 16 8 0 8 12 96 36
Nghost:        2437.44 ave        3379 max           0 min
Histogram: 24 0 8 8 16 4 12 4 30 102
Neighs:        39606.7 ave       59772 max           0 min
Histogram: 28 4 4 14 6 2 10 8 104 28

Total # of neighbors = 8238186
Ave neighs/atom = 28.530415
Neighbor list builds = 0
Dangerous builds = 0
The dot product: 1.38861638347902e-09
Setting atom values ...
  1 settings made for x
  1 settings made for y
  1 settings made for z
Setting up cg style minimization ...
  Unit style    : metal
  Current step  : 5030
Per MPI rank memory allocation (min/avg/max) = 5.425 | 5.522 | 5.555 Mbytes
Step PotEng KinEng TotEng v_fx v_fy v_fz 
    5030   -1152449.3            0   -1152449.3 0.0092432626 -0.0067275348 0.0089604366 
    5209   -1152449.3            0   -1152449.3 -1.0264145e-05 -2.5909195e-06 -1.7925157e-05 
Loop time of 1.18143 on 208 procs for 179 steps with 288751 atoms

99.9% CPU use with 208 MPI tasks x 1 OpenMP threads

Minimization stats:
  Stopping criterion = energy tolerance
  Energy initial, next-to-last, final = 
     -1152449.26807075  -1152449.26892934  -1152449.26892934
  Force two-norm initial, final = 0.12466257 0.00014148161
  Force max component initial, final = 0.043110368 3.6086047e-05
  Final line search alpha, max atom move = 1.0000000 3.6086047e-05
  Iterations, force evaluations = 179 358

MPI task timing breakdown:
Section |  min time  |  avg time  |  max time  |%varavg| %total
---------------------------------------------------------------
Pair    | 4.7877e-05 | 0.80022    | 1.0809     |  30.1 | 67.73
Neigh   | 0          | 0          | 0          |   0.0 |  0.00
Comm    | 5.5162e-05 | 0.15979    | 0.6818     |  37.7 | 13.53
Output  | 0          | 0          | 0          |   0.0 |  0.00
Modify  | 1.6218e-05 | 0.0014754  | 0.0033193  |   2.2 |  0.12
Other   |            | 0.2199     |            |       | 18.62

Nlocal:        1388.23 ave        2040 max           0 min
Histogram: 28 4 0 16 8 0 8 12 96 36
Nghost:        2437.46 ave        3379 max           0 min
Histogram: 24 0 8 8 16 4 12 4 30 102
Neighs:        39606.7 ave       59772 max           0 min
Histogram: 28 4 4 14 6 2 10 8 104 28

Total # of neighbors = 8238187
Ave neighs/atom = 28.530419
Neighbor list builds = 0
Dangerous builds = 0
The dot product: -2.20417044504949e-08
Setting atom values ...
  1 settings made for x
  1 settings made for y
  1 settings made for z
Setting up cg style minimization ...
  Unit style    : metal
  Current step  : 5209
Per MPI rank memory allocation (min/avg/max) = 5.425 | 5.522 | 5.555 Mbytes
Step PotEng KinEng TotEng v_fx v_fy v_fz 
    5209   -1152449.3            0   -1152449.3  0.011592076 -0.0084969071  0.011244326 
    5401   -1152449.3            0   -1152449.3 1.0668643e-05 -9.0123284e-06 9.4040022e-06 
Loop time of 1.25304 on 208 procs for 192 steps with 288751 atoms

99.9% CPU use with 208 MPI tasks x 1 OpenMP threads

Minimization stats:
  Stopping criterion = energy tolerance
  Energy initial, next-to-last, final = 
     -1152449.25180544  -1152449.25264981  -1152449.25264981
  Force two-norm initial, final = 0.12528455 9.0196100e-05
  Force max component initial, final = 0.044908119 1.0668643e-05
  Final line search alpha, max atom move = 1.0000000 1.0668643e-05
  Iterations, force evaluations = 192 384

MPI task timing breakdown:
Section |  min time  |  avg time  |  max time  |%varavg| %total
---------------------------------------------------------------
Pair    | 5.1228e-05 | 0.85391    | 1.1542     |  31.0 | 68.15
Neigh   | 0          | 0          | 0          |   0.0 |  0.00
Comm    | 5.8783e-05 | 0.1686     | 0.7149     |  38.9 | 13.46
Output  | 0          | 0          | 0          |   0.0 |  0.00
Modify  | 1.7495e-05 | 0.0015833  | 0.0035672  |   2.3 |  0.13
Other   |            | 0.2289     |            |       | 18.27

Nlocal:        1388.23 ave        2040 max           0 min
Histogram: 28 4 0 16 8 0 8 12 96 36
Nghost:        2437.48 ave        3379 max           0 min
Histogram: 24 0 8 8 16 4 12 4 30 102
Neighs:        39606.7 ave       59763 max           0 min
Histogram: 28 4 4 14 6 2 10 8 104 28

Total # of neighbors = 8238187
Ave neighs/atom = 28.530419
Neighbor list builds = 0
Dangerous builds = 0
The dot product: 3.66082989775709e-08
Setting atom values ...
  1 settings made for x
  1 settings made for y
  1 settings made for z
Setting up cg style minimization ...
  Unit style    : metal
  Current step  : 5401
Per MPI rank memory allocation (min/avg/max) = 5.425 | 5.522 | 5.555 Mbytes
Step PotEng KinEng TotEng v_fx v_fy v_fz 
    5401   -1152449.2            0   -1152449.2   0.01516648 -0.0098774108    0.0157993 
    5593   -1152449.2            0   -1152449.2 1.3252704e-05 -1.5832378e-06 1.9391681e-05 
Loop time of 1.25791 on 208 procs for 192 steps with 288751 atoms

99.9% CPU use with 208 MPI tasks x 1 OpenMP threads

Minimization stats:
  Stopping criterion = energy tolerance
  Energy initial, next-to-last, final = 
     -1152449.23416786  -1152449.23500611  -1152449.23500611
  Force two-norm initial, final = 0.12681886 8.2396814e-05
  Force max component initial, final = 0.048152468 2.0273978e-05
  Final line search alpha, max atom move = 1.0000000 2.0273978e-05
  Iterations, force evaluations = 192 384

MPI task timing breakdown:
Section |  min time  |  avg time  |  max time  |%varavg| %total
---------------------------------------------------------------
Pair    | 5.1784e-05 | 0.85709    | 1.1568     |  31.1 | 68.14
Neigh   | 0          | 0          | 0          |   0.0 |  0.00
Comm    | 5.888e-05  | 0.17082    | 0.72893    |  39.0 | 13.58
Output  | 0          | 0          | 0          |   0.0 |  0.00
Modify  | 1.7553e-05 | 0.0015804  | 0.003556   |   2.3 |  0.13
Other   |            | 0.2284     |            |       | 18.16

Nlocal:        1388.23 ave        2040 max           0 min
Histogram: 28 4 0 16 8 0 8 12 96 36
Nghost:        2437.48 ave        3379 max           0 min
Histogram: 24 0 8 8 16 4 12 4 30 102
Neighs:        39606.7 ave       59763 max           0 min
Histogram: 28 4 4 14 6 2 10 8 104 28

Total # of neighbors = 8238185
Ave neighs/atom = 28.530412
Neighbor list builds = 0
Dangerous builds = 0
The dot product: 8.9087658398554e-08
Setting atom values ...
  1 settings made for x
  1 settings made for y
  1 settings made for z
Setting up cg style minimization ...
  Unit style    : metal
  Current step  : 5593
Per MPI rank memory allocation (min/avg/max) = 5.425 | 5.522 | 5.555 Mbytes
Step PotEng KinEng TotEng v_fx v_fy v_fz 
    5593   -1152449.2            0   -1152449.2  0.020776521 -0.010398075  0.024385889 
    5849   -1152449.2            0   -1152449.2 -8.0815521e-06 1.670961e-06 -1.1373904e-05 
Loop time of 1.6675 on 208 procs for 256 steps with 288751 atoms

99.9% CPU use with 208 MPI tasks x 1 OpenMP threads

Minimization stats:
  Stopping criterion = energy tolerance
  Energy initial, next-to-last, final = 
     -1152449.21544925  -1152449.24937615  -1152449.24937615
  Force two-norm initial, final = 0.13204919 7.9871799e-05
  Force max component initial, final = 0.051371954 1.8365878e-05
  Final line search alpha, max atom move = 1.0000000 1.8365878e-05
  Iterations, force evaluations = 256 512

MPI task timing breakdown:
Section |  min time  |  avg time  |  max time  |%varavg| %total
---------------------------------------------------------------
Pair    | 6.8381e-05 | 1.1364     | 1.531      |  35.7 | 68.15
Neigh   | 4.526e-06  | 0.0015653  | 0.0023322  |   1.9 |  0.09
Comm    | 0.00019098 | 0.22469    | 0.94936    |  44.8 | 13.47
Output  | 0          | 0          | 0          |   0.0 |  0.00
Modify  | 2.3949e-05 | 0.0021091  | 0.0047763  |   2.6 |  0.13
Other   |            | 0.3028     |            |       | 18.16

Nlocal:        1388.23 ave        2040 max           0 min
Histogram: 28 4 0 16 8 0 8 12 96 36
Nghost:        2437.48 ave        3379 max           0 min
Histogram: 24 0 8 8 16 4 12 4 30 102
Neighs:        39606.7 ave       59763 max           0 min
Histogram: 28 4 4 14 6 2 10 8 104 28

Total # of neighbors = 8238187
Ave neighs/atom = 28.530419
Neighbor list builds = 1
Dangerous builds = 0
The dot product: -1.70075018772615e-06
Setting atom values ...
  1 settings made for x
  1 settings made for y
  1 settings made for z
Setting up cg style minimization ...
  Unit style    : metal
  Current step  : 5849
Per MPI rank memory allocation (min/avg/max) = 5.425 | 5.522 | 5.555 Mbytes
Step PotEng KinEng TotEng v_fx v_fy v_fz 
    5849   -1152449.2            0   -1152449.2   0.02950498 -0.037297339  0.023952982 
    6000   -1152449.2            0   -1152449.2 -0.00013574637 0.00012919884 -0.00015637057 
    6093   -1152449.2            0   -1152449.2 2.6558955e-06 4.6217672e-06 1.0844562e-05 
Loop time of 1.64716 on 208 procs for 244 steps with 288751 atoms

99.9% CPU use with 208 MPI tasks x 1 OpenMP threads

Minimization stats:
  Stopping criterion = energy tolerance
  Energy initial, next-to-last, final = 
     -1152449.24513928  -1152449.24978696  -1152449.24978696
  Force two-norm initial, final = 0.15312233 5.0825077e-05
  Force max component initial, final = 0.055837768 1.1277346e-05
  Final line search alpha, max atom move = 1.0000000 1.1277346e-05
  Iterations, force evaluations = 244 488

MPI task timing breakdown:
Section |  min time  |  avg time  |  max time  |%varavg| %total
---------------------------------------------------------------
Pair    | 6.5037e-05 | 1.094      | 1.4814     |  35.1 | 66.42
Neigh   | 0          | 0          | 0          |   0.0 |  0.00
Comm    | 7.5567e-05 | 0.22488    | 0.93035    |  43.4 | 13.65
Output  | 0.00010733 | 0.00010928 | 0.00019845 |   0.0 |  0.01
Modify  | 2.2005e-05 | 0.0020043  | 0.0045534  |   2.6 |  0.12
Other   |            | 0.3261     |            |       | 19.80

Nlocal:        1388.23 ave        2041 max           0 min
Histogram: 28 4 0 16 8 0 8 12 96 36
Nghost:        2437.45 ave        3379 max           0 min
Histogram: 24 0 8 8 16 4 12 4 30 102
Neighs:        39606.7 ave       59805 max           0 min
Histogram: 28 4 4 14 6 2 10 8 106 26

Total # of neighbors = 8238184
Ave neighs/atom = 28.530409
Neighbor list builds = 0
Dangerous builds = 0
The dot product: 1.96882571863727e-07
Setting atom values ...
  1 settings made for x
  1 settings made for y
  1 settings made for z
Setting up cg style minimization ...
  Unit style    : metal
  Current step  : 6093
Per MPI rank memory allocation (min/avg/max) = 5.425 | 5.522 | 5.555 Mbytes
Step PotEng KinEng TotEng v_fx v_fy v_fz 
    6093   -1152449.3            0   -1152449.3    0.0124117 -0.036098238 -0.0048260102 
    6219   -1152449.3            0   -1152449.3 -5.1320304e-06 -3.3927724e-06 -1.6478725e-05 
Loop time of 0.822504 on 208 procs for 126 steps with 288751 atoms

99.9% CPU use with 208 MPI tasks x 1 OpenMP threads

Minimization stats:
  Stopping criterion = energy tolerance
  Energy initial, next-to-last, final = 
     -1152449.25138647  -1152449.25295281  -1152449.25295281
  Force two-norm initial, final = 0.15212954 0.00012612899
  Force max component initial, final = 0.055038447 2.2958081e-05
  Final line search alpha, max atom move = 1.0000000 2.2958081e-05
  Iterations, force evaluations = 126 252

MPI task timing breakdown:
Section |  min time  |  avg time  |  max time  |%varavg| %total
---------------------------------------------------------------
Pair    | 3.4085e-05 | 0.56068    | 0.75706    |  25.1 | 68.17
Neigh   | 0          | 0          | 0          |   0.0 |  0.00
Comm    | 3.8146e-05 | 0.1108     | 0.4729     |  31.4 | 13.47
Output  | 0          | 0          | 0          |   0.0 |  0.00
Modify  | 1.1853e-05 | 0.0010381  | 0.00233    |   1.9 |  0.13
Other   |            | 0.15       |            |       | 18.23

Nlocal:        1388.23 ave        2040 max           0 min
Histogram: 28 4 0 16 8 0 8 12 96 36
Nghost:        2437.44 ave        3379 max           0 min
Histogram: 24 0 8 8 16 4 12 4 30 102
Neighs:        39606.7 ave       59784 max           0 min
Histogram: 28 4 4 14 6 2 10 8 106 26

Total # of neighbors = 8238185
Ave neighs/atom = 28.530412
Neighbor list builds = 0
Dangerous builds = 0
The dot product: -1.20269762199989e-07
Setting atom values ...
  1 settings made for x
  1 settings made for y
  1 settings made for z
Setting up cg style minimization ...
  Unit style    : metal
  Current step  : 6219
Per MPI rank memory allocation (min/avg/max) = 5.425 | 5.522 | 5.555 Mbytes
Step PotEng KinEng TotEng v_fx v_fy v_fz 
    6219   -1152449.3            0   -1152449.3  0.014053006 -0.051380611 -0.015019675 
    6326   -1152449.3            0   -1152449.3 2.627653e-06 6.7131369e-07 7.5467226e-06 
Loop time of 0.705062 on 208 procs for 107 steps with 288751 atoms

99.9% CPU use with 208 MPI tasks x 1 OpenMP threads

Minimization stats:
  Stopping criterion = energy tolerance
  Energy initial, next-to-last, final = 
     -1152449.25494968  -1152449.25614597  -1152449.25614597
  Force two-norm initial, final = 0.15292812 0.00011398386
  Force max component initial, final = 0.055619885 7.5467226e-06
  Final line search alpha, max atom move = 1.0000000 7.5467226e-06
  Iterations, force evaluations = 107 214

MPI task timing breakdown:
Section |  min time  |  avg time  |  max time  |%varavg| %total
---------------------------------------------------------------
Pair    | 2.886e-05  | 0.47902    | 0.64875    |  23.3 | 67.94
Neigh   | 0          | 0          | 0          |   0.0 |  0.00
Comm    | 3.2816e-05 | 0.095931   | 0.40949    |  29.2 | 13.61
Output  | 0          | 0          | 0          |   0.0 |  0.00
Modify  | 9.8122e-06 | 0.00088432 | 0.0019738  |   0.0 |  0.13
Other   |            | 0.1292     |            |       | 18.33

Nlocal:        1388.23 ave        2040 max           0 min
Histogram: 28 4 0 16 8 0 8 12 96 36
Nghost:        2437.44 ave        3379 max           0 min
Histogram: 24 0 8 8 16 4 12 4 30 102
Neighs:        39606.6 ave       59784 max           0 min
Histogram: 28 4 4 14 6 2 10 8 106 26

Total # of neighbors = 8238182
Ave neighs/atom = 28.530402
Neighbor list builds = 0
Dangerous builds = 0
The dot product: 2.64867136459127e-08
Setting atom values ...
  1 settings made for x
  1 settings made for y
  1 settings made for z
Setting up cg style minimization ...
  Unit style    : metal
  Current step  : 6326
Per MPI rank memory allocation (min/avg/max) = 5.425 | 5.522 | 5.555 Mbytes
Step PotEng KinEng TotEng v_fx v_fy v_fz 
    6326   -1152449.3            0   -1152449.3   0.01427207 -0.060411985 -0.021222611 
    6584   -1152449.3            0   -1152449.3 -1.5984705e-06 -1.1734121e-06 -5.3873292e-06 
Loop time of 1.68224 on 208 procs for 258 steps with 288751 atoms

99.9% CPU use with 208 MPI tasks x 1 OpenMP threads

Minimization stats:
  Stopping criterion = energy tolerance
  Energy initial, next-to-last, final = 
     -1152449.25745176  -1152449.30024676  -1152449.30024676
  Force two-norm initial, final = 0.15955475 4.7023270e-05
  Force max component initial, final = 0.060411985 5.3873292e-06
  Final line search alpha, max atom move = 1.0000000 5.3873292e-06
  Iterations, force evaluations = 258 515

MPI task timing breakdown:
Section |  min time  |  avg time  |  max time  |%varavg| %total
---------------------------------------------------------------
Pair    | 6.892e-05  | 1.1454     | 1.5451     |  35.9 | 68.09
Neigh   | 4.5754e-06 | 0.0015571  | 0.0023251  |   1.9 |  0.09
Comm    | 0.00019907 | 0.22584    | 0.95846    |  45.0 | 13.43
Output  | 0          | 0          | 0          |   0.0 |  0.00
Modify  | 2.315e-05  | 0.0021185  | 0.0047488  |   2.7 |  0.13
Other   |            | 0.3073     |            |       | 18.27

Nlocal:        1388.23 ave        2040 max           0 min
Histogram: 28 4 0 16 8 0 8 12 96 36
Nghost:        2437.44 ave        3379 max           0 min
Histogram: 24 0 8 8 16 4 12 4 30 102
Neighs:        39606.7 ave       59784 max           0 min
Histogram: 28 4 4 14 6 2 10 8 106 26

Total # of neighbors = 8238191
Ave neighs/atom = 28.530433
Neighbor list builds = 1
Dangerous builds = 0
The dot product: -1.13937527481324e-07
Setting atom values ...
  1 settings made for x
  1 settings made for y
  1 settings made for z
Setting up cg style minimization ...
  Unit style    : metal
  Current step  : 6584
Per MPI rank memory allocation (min/avg/max) = 5.425 | 5.522 | 5.555 Mbytes
Step PotEng KinEng TotEng v_fx v_fy v_fz 
    6584   -1152449.3            0   -1152449.3 -0.027406871  0.052876851 -0.057583011 
    6790   -1152449.3            0   -1152449.3 -9.3668854e-06 1.5111395e-06 -2.9077554e-05 
Loop time of 1.35318 on 208 procs for 206 steps with 288751 atoms

99.9% CPU use with 208 MPI tasks x 1 OpenMP threads

Minimization stats:
  Stopping criterion = energy tolerance
  Energy initial, next-to-last, final = 
     -1152449.31122744   -1152449.3133939   -1152449.3133939
  Force two-norm initial, final = 0.16041505 0.00010639881
  Force max component initial, final = 0.057583011 2.9077554e-05
  Final line search alpha, max atom move = 1.0000000 2.9077554e-05
  Iterations, force evaluations = 206 412

MPI task timing breakdown:
Section |  min time  |  avg time  |  max time  |%varavg| %total
---------------------------------------------------------------
Pair    | 5.5512e-05 | 0.92144    | 1.2431     |  32.3 | 68.09
Neigh   | 0          | 0          | 0          |   0.0 |  0.00
Comm    | 6.1024e-05 | 0.18405    | 0.78849    |  40.3 | 13.60
Output  | 0          | 0          | 0          |   0.0 |  0.00
Modify  | 1.8625e-05 | 0.0016963  | 0.0037921  |   2.4 |  0.13
Other   |            | 0.246      |            |       | 18.18

Nlocal:        1388.23 ave        2040 max           0 min
Histogram: 28 4 0 16 8 0 8 12 98 34
Nghost:        2437.48 ave        3379 max           0 min
Histogram: 24 0 8 8 16 4 12 4 30 102
Neighs:        39606.7 ave       59785 max           0 min
Histogram: 28 4 4 14 6 2 10 8 106 26

Total # of neighbors = 8238197
Ave neighs/atom = 28.530454
Neighbor list builds = 0
Dangerous builds = 0
The dot product: 3.39580116113388e-07
Setting atom values ...
  1 settings made for x
  1 settings made for y
  1 settings made for z
Setting up cg style minimization ...
  Unit style    : metal
  Current step  : 6790
Per MPI rank memory allocation (min/avg/max) = 5.425 | 5.522 | 5.555 Mbytes
Step PotEng KinEng TotEng v_fx v_fy v_fz 
    6790   -1152449.3            0   -1152449.3  0.005642699 -0.070369404 -0.027562122 
    6975   -1152449.3            0   -1152449.3 6.8477846e-06 -1.3630574e-06 2.0271228e-05 
Loop time of 1.22478 on 208 procs for 185 steps with 288751 atoms

99.9% CPU use with 208 MPI tasks x 1 OpenMP threads

Minimization stats:
  Stopping criterion = energy tolerance
  Energy initial, next-to-last, final = 
     -1152449.32241851  -1152449.32366269  -1152449.32366269
  Force two-norm initial, final = 0.16167767 8.9888641e-05
  Force max component initial, final = 0.070369404 2.0271228e-05
  Final line search alpha, max atom move = 1.0000000 2.0271228e-05
  Iterations, force evaluations = 185 370

MPI task timing breakdown:
Section |  min time  |  avg time  |  max time  |%varavg| %total
---------------------------------------------------------------
Pair    | 5.1708e-05 | 0.823      | 1.1125     |  30.5 | 67.20
Neigh   | 0          | 0          | 0          |   0.0 |  0.00
Comm    | 5.8569e-05 | 0.16399    | 0.68662    |  37.9 | 13.39
Output  | 0          | 0          | 0          |   0.0 |  0.00
Modify  | 1.7678e-05 | 0.001524   | 0.0034079  |   2.3 |  0.12
Other   |            | 0.2363     |            |       | 19.29

Nlocal:        1388.23 ave        2040 max           0 min
Histogram: 28 4 0 16 8 0 8 12 96 36
Nghost:        2437.44 ave        3379 max           0 min
Histogram: 24 0 8 8 16 4 12 4 30 102
Neighs:        39606.7 ave       59784 max           0 min
Histogram: 28 4 4 14 6 2 10 8 106 26

Total # of neighbors = 8238196
Ave neighs/atom = 28.530450
Neighbor list builds = 0
Dangerous builds = 0
The dot product: -8.91685939512678e-09
Setting atom values ...
  1 settings made for x
  1 settings made for y
  1 settings made for z
Setting up cg style minimization ...
  Unit style    : metal
  Current step  : 6975
Per MPI rank memory allocation (min/avg/max) = 5.425 | 5.522 | 5.555 Mbytes
Step PotEng KinEng TotEng v_fx v_fy v_fz 
    6975   -1152449.3            0   -1152449.3 0.00059590901 -0.054496696 -0.031353682 
    7000   -1152449.3            0   -1152449.3 0.00019446664 0.00017844773 0.00070708223 
    7148   -1152449.3            0   -1152449.3 6.3538978e-06 -1.0211212e-05 1.3333735e-05 
Loop time of 1.13824 on 208 procs for 173 steps with 288751 atoms

99.9% CPU use with 208 MPI tasks x 1 OpenMP threads

Minimization stats:
  Stopping criterion = energy tolerance
  Energy initial, next-to-last, final = 
     -1152449.33111404  -1152449.33230466  -1152449.33230466
  Force two-norm initial, final = 0.15696061 0.00017120631
  Force max component initial, final = 0.054496696 1.5507847e-05
  Final line search alpha, max atom move = 1.0000000 1.5507847e-05
  Iterations, force evaluations = 173 346

MPI task timing breakdown:
Section |  min time  |  avg time  |  max time  |%varavg| %total
---------------------------------------------------------------
Pair    | 4.6646e-05 | 0.77456    | 1.0481     |  29.6 | 68.05
Neigh   | 0          | 0          | 0          |   0.0 |  0.00
Comm    | 5.2293e-05 | 0.15492    | 0.66004    |  37.0 | 13.61
Output  | 9.4234e-05 | 0.00010308 | 0.00015578 |   0.0 |  0.01
Modify  | 1.5725e-05 | 0.0014237  | 0.0032667  |   2.2 |  0.13
Other   |            | 0.2072     |            |       | 18.21

Nlocal:        1388.23 ave        2040 max           0 min
Histogram: 28 4 0 16 8 0 8 12 96 36
Nghost:        2437.44 ave        3379 max           0 min
Histogram: 24 0 8 8 16 4 12 4 30 102
Neighs:        39606.7 ave       59784 max           0 min
Histogram: 28 4 4 14 6 2 10 8 106 26

Total # of neighbors = 8238197
Ave neighs/atom = 28.530454
Neighbor list builds = 0
Dangerous builds = 0
The dot product: 5.06622268459218e-09
Setting atom values ...
  1 settings made for x
  1 settings made for y
  1 settings made for z
Setting up cg style minimization ...
  Unit style    : metal
[...]

Nlocal:        1388.23 ave        2041 max           0 min
Histogram: 28 4 0 16 8 0 8 12 96 36
Nghost:        2437.45 ave        3379 max           0 min
Histogram: 24 0 8 8 16 4 12 4 30 102
Neighs:        39606.7 ave       59795 max           0 min
Histogram: 28 4 4 14 6 2 10 8 106 26

Total # of neighbors = 8238197
Ave neighs/atom = 28.530454
Neighbor list builds = 0
Dangerous builds = 0
The dot product: 4.34204262407942e-09
Setting atom values ...
  1 settings made for x
  1 settings made for y
  1 settings made for z
Setting up cg style minimization ...
  Unit style    : metal
  Current step  : 12300
Per MPI rank memory allocation (min/avg/max) = 5.425 | 5.522 | 5.555 Mbytes
Step PotEng KinEng TotEng v_fx v_fy v_fz 
   12300   -1152449.4            0   -1152449.4 0.0075754571 -0.020796858  0.018302895 
   12498   -1152449.4            0   -1152449.4 9.5063569e-06 5.0837954e-06 2.2991419e-05 
Loop time of 1.28919 on 208 procs for 198 steps with 288751 atoms

99.9% CPU use with 208 MPI tasks x 1 OpenMP threads

Minimization stats:
  Stopping criterion = energy tolerance
  Energy initial, next-to-last, final = 
     -1152449.41675833  -1152449.41799544  -1152449.41799544
  Force two-norm initial, final = 0.16044488 7.0690306e-05
  Force max component initial, final = 0.078286426 2.2991419e-05
  Final line search alpha, max atom move = 1.0000000 2.2991419e-05
  Iterations, force evaluations = 198 396

MPI task timing breakdown:
Section |  min time  |  avg time  |  max time  |%varavg| %total
---------------------------------------------------------------
Pair    | 5.2987e-05 | 0.88392    | 1.1858     |  31.6 | 68.56
Neigh   | 0          | 0          | 0          |   0.0 |  0.00
Comm    | 6.8487e-05 | 0.17711    | 0.74574    |  39.3 | 13.74
Output  | 0          | 0          | 0          |   0.0 |  0.00
Modify  | 1.8056e-05 | 0.0016332  | 0.0036835  |   2.3 |  0.13
Other   |            | 0.2265     |            |       | 17.57

Nlocal:        1388.23 ave        2041 max           0 min
Histogram: 28 4 0 16 8 0 8 12 96 36
Nghost:        2437.44 ave        3379 max           0 min
Histogram: 24 0 8 8 16 4 12 4 30 102
Neighs:        39606.7 ave       59795 max           0 min
Histogram: 28 4 4 14 6 2 10 8 106 26

Total # of neighbors = 8238198
Ave neighs/atom = 28.530457
Neighbor list builds = 0
Dangerous builds = 0
The dot product: 1.65743680657528e-08
Setting atom values ...
  1 settings made for x
  1 settings made for y
  1 settings made for z
Setting up cg style minimization ...
  Unit style    : metal
  Current step  : 12498
Per MPI rank memory allocation (min/avg/max) = 5.425 | 5.522 | 5.555 Mbytes
Step PotEng KinEng TotEng v_fx v_fy v_fz 
   12498   -1152449.4            0   -1152449.4 0.0070923599 -0.021860307  0.017160378 
   12680   -1152449.4            0   -1152449.4 -3.0272879e-06 1.3706594e-05 -7.320414e-06 
Loop time of 1.19336 on 208 procs for 182 steps with 288751 atoms

99.9% CPU use with 208 MPI tasks x 1 OpenMP threads

Minimization stats:
  Stopping criterion = energy tolerance
  Energy initial, next-to-last, final = 
     -1152449.40665503  -1152449.40787601  -1152449.40787601
  Force two-norm initial, final = 0.15971606 0.00010043851
  Force max component initial, final = 0.078988665 1.4544793e-05
  Final line search alpha, max atom move = 1.0000000 1.4544793e-05
  Iterations, force evaluations = 182 364

MPI task timing breakdown:
Section |  min time  |  avg time  |  max time  |%varavg| %total
---------------------------------------------------------------
Pair    | 5.0192e-05 | 0.81       | 1.093      |  30.2 | 67.88
Neigh   | 0          | 0          | 0          |   0.0 |  0.00
Comm    | 6.3309e-05 | 0.16175    | 0.67706    |  37.4 | 13.55
Output  | 0          | 0          | 0          |   0.0 |  0.00
Modify  | 1.6807e-05 | 0.0015033  | 0.0034129  |   2.2 |  0.13
Other   |            | 0.2201     |            |       | 18.44

Nlocal:        1388.23 ave        2041 max           0 min
Histogram: 28 4 0 16 8 0 8 12 96 36
Nghost:        2437.44 ave        3379 max           0 min
Histogram: 24 0 8 8 16 4 12 4 30 102
Neighs:        39606.7 ave       59795 max           0 min
Histogram: 28 4 4 14 6 2 10 8 106 26

Total # of neighbors = 8238199
Ave neighs/atom = 28.530461
Neighbor list builds = 0
Dangerous builds = 0
The dot product: -5.56156716862057e-09
Setting atom values ...
  1 settings made for x
  1 settings made for y
  1 settings made for z
Setting up cg style minimization ...
  Unit style    : metal
  Current step  : 12680
Per MPI rank memory allocation (min/avg/max) = 5.425 | 5.522 | 5.555 Mbytes
Step PotEng KinEng TotEng v_fx v_fy v_fz 
   12680   -1152449.4            0   -1152449.4 0.0066513099 -0.022732975  0.016121756 
   12880   -1152449.4            0   -1152449.4 5.8242734e-06 1.609328e-05 1.4145771e-05 
Loop time of 1.3094 on 208 procs for 200 steps with 288751 atoms

99.9% CPU use with 208 MPI tasks x 1 OpenMP threads

Minimization stats:
  Stopping criterion = energy tolerance
  Energy initial, next-to-last, final = 
     -1152449.39514163  -1152449.39635035  -1152449.39635035
  Force two-norm initial, final = 0.15920653 6.8853447e-05
  Force max component initial, final = 0.079696651 1.6093280e-05
  Final line search alpha, max atom move = 1.0000000 1.6093280e-05
  Iterations, force evaluations = 200 400

MPI task timing breakdown:
Section |  min time  |  avg time  |  max time  |%varavg| %total
---------------------------------------------------------------
Pair    | 5.4132e-05 | 0.89154    | 1.1979     |  31.7 | 68.09
Neigh   | 0          | 0          | 0          |   0.0 |  0.00
Comm    | 6.913e-05  | 0.17731    | 0.74702    |  39.4 | 13.54
Output  | 0          | 0          | 0          |   0.0 |  0.00
Modify  | 1.8203e-05 | 0.0016499  | 0.0037247  |   2.3 |  0.13
Other   |            | 0.2389     |            |       | 18.24

Nlocal:        1388.23 ave        2041 max           0 min
Histogram: 28 4 0 16 8 0 8 12 97 35
Nghost:        2437.45 ave        3379 max           0 min
Histogram: 24 0 8 8 16 4 12 4 30 102
Neighs:        39606.7 ave       59795 max           0 min
Histogram: 28 4 4 14 6 2 10 8 106 26

Total # of neighbors = 8238199
Ave neighs/atom = 28.530461
Neighbor list builds = 0
Dangerous builds = 0
The dot product: 4.29900207393209e-09
Setting atom values ...
  1 settings made for x
  1 settings made for y
  1 settings made for z
Setting up cg style minimization ...
  Unit style    : metal
  Current step  : 12880
Per MPI rank memory allocation (min/avg/max) = 5.425 | 5.522 | 5.555 Mbytes
Step PotEng KinEng TotEng v_fx v_fy v_fz 
   12880   -1152449.4            0   -1152449.4 0.0062876866  -0.02341277  0.015273626 
   13000   -1152449.4            0   -1152449.4 3.6599775e-05 -4.236514e-05 8.8928422e-05 
   13065   -1152449.4            0   -1152449.4 -6.8642775e-06 1.5875532e-05 -1.6676583e-05 
Loop time of 1.22516 on 208 procs for 185 steps with 288751 atoms

99.9% CPU use with 208 MPI tasks x 1 OpenMP threads

Minimization stats:
  Stopping criterion = energy tolerance
  Energy initial, next-to-last, final = 
      -1152449.3821979  -1152449.38339877  -1152449.38339877
  Force two-norm initial, final = 0.15890733 9.0958522e-05
  Force max component initial, final = 0.080356864 1.6676583e-05
  Final line search alpha, max atom move = 1.0000000 1.6676583e-05
  Iterations, force evaluations = 185 370

MPI task timing breakdown:
Section |  min time  |  avg time  |  max time  |%varavg| %total
---------------------------------------------------------------
Pair    | 4.9816e-05 | 0.82454    | 1.1113     |  30.4 | 67.30
Neigh   | 0          | 0          | 0          |   0.0 |  0.00
Comm    | 6.5348e-05 | 0.16549    | 0.69813    |  37.6 | 13.51
Output  | 9.0095e-05 | 9.2931e-05 | 0.0001898  |   0.0 |  0.01
Modify  | 1.7529e-05 | 0.001526   | 0.003438   |   2.3 |  0.12
Other   |            | 0.2335     |            |       | 19.06

Nlocal:        1388.23 ave        2041 max           0 min
Histogram: 28 4 0 16 8 0 8 12 97 35
Nghost:        2437.48 ave        3379 max           0 min
Histogram: 24 0 8 8 16 4 12 4 30 102
Neighs:        39606.7 ave       59795 max           0 min
Histogram: 28 4 4 14 6 2 10 8 106 26

Total # of neighbors = 8238198
Ave neighs/atom = 28.530457
Neighbor list builds = 0
Dangerous builds = 0
The dot product: -1.33110369202879e-08
Setting atom values ...
  1 settings made for x
  1 settings made for y
  1 settings made for z
Setting up cg style minimization ...
  Unit style    : metal
  Current step  : 13065
Per MPI rank memory allocation (min/avg/max) = 5.425 | 5.522 | 5.555 Mbytes
Step PotEng KinEng TotEng v_fx v_fy v_fz 
   13065   -1152449.4            0   -1152449.4 0.0059499592 -0.023918187  0.014491812 
   13271   -1152449.4            0   -1152449.4 8.4138287e-08 -2.7412138e-06 2.0639265e-07 
Loop time of 1.34374 on 208 procs for 206 steps with 288751 atoms

99.9% CPU use with 208 MPI tasks x 1 OpenMP threads

Minimization stats:
  Stopping criterion = energy tolerance
  Energy initial, next-to-last, final = 
     -1152449.36780938  -1152449.36900657  -1152449.36900657
  Force two-norm initial, final = 0.15876481 5.3383710e-05
  Force max component initial, final = 0.081016356 6.3343710e-06
  Final line search alpha, max atom move = 1.0000000 6.3343710e-06
  Iterations, force evaluations = 206 412

MPI task timing breakdown:
Section |  min time  |  avg time  |  max time  |%varavg| %total
---------------------------------------------------------------
Pair    | 5.5482e-05 | 0.91809    | 1.2355     |  32.2 | 68.32
Neigh   | 0          | 0          | 0          |   0.0 |  0.00
Comm    | 7.161e-05  | 0.18336    | 0.77248    |  39.9 | 13.65
Output  | 0          | 0          | 0          |   0.0 |  0.00
Modify  | 1.8802e-05 | 0.0017019  | 0.0038388  |   2.4 |  0.13
Other   |            | 0.2406     |            |       | 17.90

Nlocal:        1388.23 ave        2041 max           0 min
Histogram: 28 4 0 16 8 0 8 12 97 35
Nghost:        2437.44 ave        3379 max           0 min
Histogram: 24 0 8 8 16 4 12 4 30 102
Neighs:        39606.7 ave       59795 max           0 min
Histogram: 28 4 4 14 6 2 10 8 106 26

Total # of neighbors = 8238195
Ave neighs/atom = 28.530447
Neighbor list builds = 0
Dangerous builds = 0
The dot product: 1.24658194124423e-09
Setting atom values ...
  1 settings made for x
  1 settings made for y
  1 settings made for z
Setting up cg style minimization ...
  Unit style    : metal
  Current step  : 13271
Per MPI rank memory allocation (min/avg/max) = 5.425 | 5.522 | 5.555 Mbytes
Step PotEng KinEng TotEng v_fx v_fy v_fz 
   13271   -1152449.4            0   -1152449.4  0.005651756 -0.024334439  0.013809009 
   13449   -1152449.4            0   -1152449.4 5.6764946e-06 -1.0729421e-05 1.3845828e-05 
Loop time of 1.20546 on 208 procs for 178 steps with 288751 atoms

99.9% CPU use with 208 MPI tasks x 1 OpenMP threads

Minimization stats:
  Stopping criterion = energy tolerance
  Energy initial, next-to-last, final = 
     -1152449.35196402  -1152449.35316104  -1152449.35316104
  Force two-norm initial, final = 0.15880815 0.00012308998
  Force max component initial, final = 0.081636508 2.2157303e-05
  Final line search alpha, max atom move = 1.0000000 2.2157303e-05
  Iterations, force evaluations = 178 356

MPI task timing breakdown:
Section |  min time  |  avg time  |  max time  |%varavg| %total
---------------------------------------------------------------
Pair    | 4.8429e-05 | 0.79343    | 1.0718     |  29.9 | 65.82
Neigh   | 0          | 0          | 0          |   0.0 |  0.00
Comm    | 6.2766e-05 | 0.15947    | 0.66255    |  36.8 | 13.23
Output  | 0          | 0          | 0          |   0.0 |  0.00
Modify  | 1.6703e-05 | 0.0014675  | 0.0032991  |   2.2 |  0.12
Other   |            | 0.2511     |            |       | 20.83

Nlocal:        1388.23 ave        2041 max           0 min
Histogram: 28 4 0 16 8 0 8 12 97 35
Nghost:        2437.44 ave        3379 max           0 min
Histogram: 24 0 8 8 16 4 12 4 30 102
Neighs:        39606.7 ave       59795 max           0 min
Histogram: 28 4 4 14 6 2 10 8 106 26

Total # of neighbors = 8238193
Ave neighs/atom = 28.530440
Neighbor list builds = 0
Dangerous builds = 0
The dot product: 1.0754585193884e-08
Setting atom values ...
  1 settings made for x
  1 settings made for y
  1 settings made for z
Setting up cg style minimization ...
  Unit style    : metal
  Current step  : 13449
Per MPI rank memory allocation (min/avg/max) = 5.425 | 5.522 | 5.555 Mbytes
Step PotEng KinEng TotEng v_fx v_fy v_fz 
   13449   -1152449.3            0   -1152449.3 0.0053606688 -0.024710242  0.013147306 
   13620   -1152449.3            0   -1152449.3 -1.9776431e-05 -3.1828802e-05 -4.8122521e-05 
Loop time of 1.11667 on 208 procs for 171 steps with 288751 atoms

99.9% CPU use with 208 MPI tasks x 1 OpenMP threads

Minimization stats:
  Stopping criterion = energy tolerance
  Energy initial, next-to-last, final = 
      -1152449.3346502   -1152449.3358512   -1152449.3358512
  Force two-norm initial, final = 0.15902603 0.00018685018
  Force max component initial, final = 0.082244581 4.8633192e-05
  Final line search alpha, max atom move = 1.0000000 4.8633192e-05
  Iterations, force evaluations = 171 342

MPI task timing breakdown:
Section |  min time  |  avg time  |  max time  |%varavg| %total
---------------------------------------------------------------
Pair    | 4.6046e-05 | 0.76156    | 1.0268     |  29.3 | 68.20
Neigh   | 0          | 0          | 0          |   0.0 |  0.00
Comm    | 5.6718e-05 | 0.1515     | 0.63678    |  36.3 | 13.57
Output  | 0          | 0          | 0          |   0.0 |  0.00
Modify  | 1.5731e-05 | 0.0014132  | 0.003185   |   2.2 |  0.13
Other   |            | 0.2022     |            |       | 18.11

Nlocal:        1388.23 ave        2041 max           0 min
Histogram: 28 4 0 16 8 0 8 12 97 35
Nghost:        2437.44 ave        3379 max           0 min
Histogram: 24 0 8 8 16 4 12 4 30 102
Neighs:        39606.7 ave       59795 max           0 min
Histogram: 28 4 4 14 6 2 10 8 106 26

Total # of neighbors = 8238192
Ave neighs/atom = 28.530436
Neighbor list builds = 0
Dangerous builds = 0
The dot product: 4.51730961815164e-09
Setting atom values ...
  1 settings made for x
  1 settings made for y
  1 settings made for z
Setting up cg style minimization ...
  Unit style    : metal
  Current step  : 13620
Per MPI rank memory allocation (min/avg/max) = 5.425 | 5.522 | 5.555 Mbytes
Step PotEng KinEng TotEng v_fx v_fy v_fz 
   13620   -1152449.3            0   -1152449.3 0.0050197971 -0.025128959  0.012367858 
   13814   -1152449.3            0   -1152449.3 3.2802263e-06 -1.6303091e-05 8.0813222e-06 
Loop time of 1.2758 on 208 procs for 194 steps with 288751 atoms

99.9% CPU use with 208 MPI tasks x 1 OpenMP threads

Minimization stats:
  Stopping criterion = energy tolerance
  Energy initial, next-to-last, final = 
     -1152449.31585677    -1152449.317066    -1152449.317066
  Force two-norm initial, final = 0.15942797 8.0438784e-05
  Force max component initial, final = 0.082816343 1.6303091e-05
  Final line search alpha, max atom move = 1.0000000 1.6303091e-05
  Iterations, force evaluations = 194 388

MPI task timing breakdown:
Section |  min time  |  avg time  |  max time  |%varavg| %total
---------------------------------------------------------------
Pair    | 5.213e-05  | 0.86515    | 1.1651     |  31.3 | 67.81
Neigh   | 0          | 0          | 0          |   0.0 |  0.00
Comm    | 6.793e-05  | 0.17398    | 0.72262    |  38.3 | 13.64
Output  | 0          | 0          | 0          |   0.0 |  0.00
Modify  | 1.8083e-05 | 0.0016011  | 0.0035987  |   2.3 |  0.13
Other   |            | 0.2351     |            |       | 18.42

Nlocal:        1388.23 ave        2041 max           0 min
Histogram: 28 4 0 16 8 0 8 12 97 35
Nghost:        2437.44 ave        3379 max           0 min
Histogram: 24 0 8 8 16 4 12 4 30 102
Neighs:        39606.7 ave       59795 max           0 min
Histogram: 28 4 4 14 6 2 10 8 106 26

Total # of neighbors = 8238191
Ave neighs/atom = 28.530433
Neighbor list builds = 0
Dangerous builds = 0
The dot product: 1.26797805325133e-08
Setting atom values ...
  1 settings made for x
  1 settings made for y
  1 settings made for z
Setting up cg style minimization ...
  Unit style    : metal
  Current step  : 13814
Per MPI rank memory allocation (min/avg/max) = 5.425 | 5.522 | 5.555 Mbytes
Step PotEng KinEng TotEng v_fx v_fy v_fz 
   13814   -1152449.3            0   -1152449.3 0.0046892829 -0.025573021  0.011615282 
   14000   -1152449.3            0   -1152449.3 1.0675067e-05 1.8482972e-06 2.6052057e-05 
Loop time of 1.21674 on 208 procs for 186 steps with 288751 atoms

99.9% CPU use with 208 MPI tasks x 1 OpenMP threads

Minimization stats:
  Stopping criterion = energy tolerance
  Energy initial, next-to-last, final = 
      -1152449.2955701  -1152449.29679187  -1152449.29679187
  Force two-norm initial, final = 0.16014824 9.4877033e-05
  Force max component initial, final = 0.083390521 2.6052057e-05
  Final line search alpha, max atom move = 1.0000000 2.6052057e-05
  Iterations, force evaluations = 186 372

MPI task timing breakdown:
Section |  min time  |  avg time  |  max time  |%varavg| %total
---------------------------------------------------------------
Pair    | 4.9863e-05 | 0.8301     | 1.1157     |  30.6 | 68.22
Neigh   | 0          | 0          | 0          |   0.0 |  0.00
Comm    | 6.5185e-05 | 0.16731    | 0.69722    |  37.8 | 13.75
Output  | 0          | 0          | 0          |   0.0 |  0.00
Modify  | 1.71e-05   | 0.0015335  | 0.0034468  |   2.3 |  0.13
Other   |            | 0.2178     |            |       | 17.90

Nlocal:        1388.23 ave        2041 max           0 min
Histogram: 28 4 0 16 8 0 8 12 97 35
Nghost:        2437.44 ave        3379 max           0 min
Histogram: 24 0 8 8 16 4 12 4 30 102
Neighs:        39606.7 ave       59795 max           0 min
Histogram: 28 4 4 14 6 2 10 8 106 26

Total # of neighbors = 8238194
Ave neighs/atom = 28.530443
Neighbor list builds = 0
Dangerous builds = 0
The dot product: -6.96960863757437e-11
Setting up cg style minimization ...
  Unit style    : metal
  Current step  : 14000
Per MPI rank memory allocation (min/avg/max) = 5.425 | 5.522 | 5.555 Mbytes
Step PotEng KinEng TotEng v_fx v_fy v_fz 
   14000   -1152449.3            0   -1152449.3  -0.97272404 0.0025881509   0.39842945 
   14282   -1152449.5            0   -1152449.5 -2.1858537e-06 -3.4722829e-06 -8.5502769e-06 
Loop time of 1.83794 on 208 procs for 282 steps with 288751 atoms

99.9% CPU use with 208 MPI tasks x 1 OpenMP threads

Minimization stats:
  Stopping criterion = energy tolerance
  Energy initial, next-to-last, final = 
     -1152449.29679187  -1152449.45035276  -1152449.45035276
  Force two-norm initial, final = 1.0511635 3.4432128e-05
  Force max component initial, final = 0.97272404 8.5502769e-06
  Final line search alpha, max atom move = 1.0000000 8.5502769e-06
  Iterations, force evaluations = 282 563

MPI task timing breakdown:
Section |  min time  |  avg time  |  max time  |%varavg| %total
---------------------------------------------------------------
Pair    | 7.7174e-05 | 1.2521     | 1.6822     |  37.5 | 68.13
Neigh   | 4.5162e-06 | 0.0015583  | 0.0023288  |   1.9 |  0.08
Comm    | 0.00020898 | 0.24975    | 1.0467     |  46.6 | 13.59
Output  | 0          | 0          | 0          |   0.0 |  0.00
Modify  | 2.2497e-05 | 0.0015007  | 0.0041283  |   3.0 |  0.08
Other   |            | 0.333      |            |       | 18.12

Nlocal:        1388.23 ave        2041 max           0 min
Histogram: 28 4 0 16 8 0 8 12 97 35
Nghost:        2437.46 ave        3379 max           0 min
Histogram: 24 0 8 8 16 4 12 4 30 102
Neighs:        39606.7 ave       59795 max           0 min
Histogram: 28 4 4 14 6 2 10 8 106 26

Total # of neighbors = 8238193
Ave neighs/atom = 28.530440
Neighbor list builds = 1
Dangerous builds = 0
