LAMMPS (29 Oct 2020)
OMP_NUM_THREADS environment is not set. Defaulting to 1 thread. (../comm.cpp:94)
  using 1 OpenMP thread(s) per MPI task
Reading data file ...
  orthogonal box = (-122.39241 -121.13707 -37.090501) to (122.39241 121.13707 37.090501)
  13 by 4 by 1 MPI processor grid
  reading atoms ...
  288751 atoms
  read_data CPU = 0.427 seconds
199981 atoms in group inner
88770 atoms in group outer
1 atoms in group carbon
Neighbor list info ...
  update every 1 steps, delay 0 steps, check yes
  max neighbors/atom: 2000, page size: 100000
  master list distance cutoff = 5.6
  ghost atom cutoff = 5.6
  binsize = 2.8, bins = 88 87 27
  1 neighbor lists, perpetual/occasional/extra = 1 0 0
  (1) pair eam/alloy, perpetual
      attributes: half, newton on
      pair build: half/bin/atomonly/newton
      stencil: half/bin/3d/newton
      bin: standard
Setting up cg style minimization ...
  Unit style    : metal
  Current step  : 0
Per MPI rank memory allocation (min/avg/max) = 5.465 | 6.344 | 6.728 Mbytes
Step v_fx v_fy v_fz PotEng KinEng TotEng 
       0    0.3224723  -0.48422844  -0.49269377   -1152447.8            0   -1152447.8 
     148 3.2995078e-05 -1.9668413e-06 8.6222349e-06   -1152449.5            0   -1152449.5 
Loop time of 3.26916 on 52 procs for 148 steps with 288751 atoms

99.8% CPU use with 52 MPI tasks x 1 OpenMP threads

Minimization stats:
  Stopping criterion = energy tolerance
  Energy initial, next-to-last, final = 
     -1152447.84698335  -1152449.45035281  -1152449.45035281
  Force two-norm initial, final = 9.7882989 0.00020892393
  Force max component initial, final = 5.2457620 3.2995078e-05
  Final line search alpha, max atom move = 1.0000000 3.2995078e-05
  Iterations, force evaluations = 148 295

MPI task timing breakdown:
Section |  min time  |  avg time  |  max time  |%varavg| %total
---------------------------------------------------------------
Pair    | 0.86064    | 2.3705     | 3.0968     |  42.1 | 72.51
Neigh   | 5.6969e-05 | 0.012773   | 0.018966   |   4.8 |  0.39
Comm    | 0.051298   | 0.52837    | 1.6602     |  64.5 | 16.16
Output  | 0          | 0          | 0          |   0.0 |  0.00
Modify  | 3.9696e-05 | 0.0032567  | 0.008234   |   3.5 |  0.10
Other   |            | 0.3542     |            |       | 10.84

Nlocal:        5552.90 ave        7909 max           0 min
Histogram: 4 2 2 0 2 6 4 0 15 17
Nghost:        6213.54 ave        8769 max         412 min
Histogram: 4 0 4 0 8 0 4 5 7 20
Neighs:       158427.0 ave      230538 max           0 min
Histogram: 4 2 2 0 5 3 4 4 12 16

Total # of neighbors = 8238222
Ave neighs/atom = 28.530540
Neighbor list builds = 2
Dangerous builds = 0
-0.01 2.01 20.02 -0.0115770789350861 2.01217745397686 20.020795570321
Total wall time: 0:00:03
