LAMMPS (29 Oct 2020)
OMP_NUM_THREADS environment is not set. Defaulting to 1 thread. (../comm.cpp:94)
  using 1 OpenMP thread(s) per MPI task
OMP_NUM_THREADS environment is not set. Defaulting to 1 thread. (../comm.cpp:94)
  using 1 OpenMP thread(s) per MPI task
Reading data file ...
  orthogonal box = (-122.39241 -121.13707 -37.090501) to (122.39241 121.13707 37.090501)
  13 by 4 by 2 MPI processor grid
  reading atoms ...
  288751 atoms
  read_data CPU = 0.369 seconds
199981 atoms in group inner
88770 atoms in group outer
1 atoms in group carbon
Neighbor list info ...
  update every 1 steps, delay 0 steps, check yes
  max neighbors/atom: 2000, page size: 100000
  master list distance cutoff = 5.6
  ghost atom cutoff = 5.6
  binsize = 2.8, bins = 88 87 27
  1 neighbor lists, perpetual/occasional/extra = 1 0 0
  (1) pair eam/alloy, perpetual
      attributes: half, newton on
      pair build: half/bin/atomonly/newton
      stencil: half/bin/3d/newton
      bin: standard
Setting up cg style minimization ...
  Unit style    : metal
  Current step  : 0
Per MPI rank memory allocation (min/avg/max) = 5.441 | 5.816 | 6.074 Mbytes
Step v_fx v_fy v_fz PotEng KinEng TotEng 
       0    26.124448    14.767137    49.932757   -1152433.5            0   -1152433.5 
     175 4.4898954e-06 -2.0302695e-06 4.4942009e-05   -1152449.5            0   -1152449.5 
Loop time of 1.99981 on 104 procs for 175 steps with 288751 atoms

99.8% CPU use with 104 MPI tasks x 1 OpenMP threads

Minimization stats:
  Stopping criterion = energy tolerance
  Energy initial, next-to-last, final = 
     -1152433.45627675  -1152449.45035285  -1152449.45035285
  Force two-norm initial, final = 87.304525 0.00012030144
  Force max component initial, final = 57.020465 4.4942009e-05
  Final line search alpha, max atom move = 1.0000000 4.4942009e-05
  Iterations, force evaluations = 175 342

MPI task timing breakdown:
Section |  min time  |  avg time  |  max time  |%varavg| %total
---------------------------------------------------------------
Pair    | 0.53721    | 1.4376     | 1.8627     |  31.8 | 71.89
Neigh   | 5.3545e-05 | 0.014728   | 0.021349   |   5.0 |  0.74
Comm    | 0.033963   | 0.32421    | 0.97016    |  47.5 | 16.21
Output  | 0          | 0          | 0          |   0.0 |  0.00
Modify  | 1.9446e-05 | 0.0018365  | 0.0047294  |   2.7 |  0.09
Other   |            | 0.2214     |            |       | 11.07

Nlocal:        2776.45 ave        3960 max           0 min
Histogram: 8 4 4 0 4 12 8 2 28 34
Nghost:        3879.01 ave        5424 max         232 min
Histogram: 8 0 8 0 16 0 8 8 16 40
Neighs:        79213.6 ave      115432 max           0 min
Histogram: 8 4 4 0 10 6 8 8 24 32

Total # of neighbors = 8238212
Ave neighs/atom = 28.530506
Neighbor list builds = 5
Dangerous builds = 0
Setting atom values ...
  1 settings made for x
  1 settings made for y
  1 settings made for z
Setting up cg style minimization ...
  Unit style    : metal
  Current step  : 175
Per MPI rank memory allocation (min/avg/max) = 5.441 | 5.816 | 6.074 Mbytes
Step PotEng KinEng TotEng v_fx v_fy v_fz 
     175   -1152449.4            0   -1152449.4  0.012439524 -0.016204753 -0.020722105 
     294   -1152449.5            0   -1152449.5 1.8159523e-05 -1.965752e-06 3.9001352e-05 
Loop time of 1.38529 on 104 procs for 119 steps with 288751 atoms

99.9% CPU use with 104 MPI tasks x 1 OpenMP threads

Minimization stats:
  Stopping criterion = energy tolerance
  Energy initial, next-to-last, final = 
     -1152449.44947039  -1152449.45002043  -1152449.45002043
  Force two-norm initial, final = 0.10819272 0.00018630376
  Force max component initial, final = 0.047636509 3.9001352e-05
  Final line search alpha, max atom move = 1.0000000 3.9001352e-05
  Iterations, force evaluations = 119 238

MPI task timing breakdown:
Section |  min time  |  avg time  |  max time  |%varavg| %total
---------------------------------------------------------------
Pair    | 0.36135    | 1.0051     | 1.2999     |  27.1 | 72.55
Neigh   | 0          | 0          | 0          |   0.0 |  0.00
Comm    | 0.026105   | 0.22697    | 0.68719    |  39.9 | 16.38
Output  | 0          | 0          | 0          |   0.0 |  0.00
Modify  | 1.6411e-05 | 0.0019664  | 0.0041845  |   2.1 |  0.14
Other   |            | 0.1513     |            |       | 10.92

Nlocal:        2776.45 ave        3961 max           0 min
Histogram: 8 4 4 0 6 10 8 2 28 34
Nghost:        3879.01 ave        5424 max         232 min
Histogram: 8 0 8 0 16 0 8 8 16 40
Neighs:        79213.4 ave      115455 max           0 min
Histogram: 8 4 4 0 10 6 8 8 24 32

Total # of neighbors = 8238197
Ave neighs/atom = 28.530454
Neighbor list builds = 0
Dangerous builds = 0
Setting atom values ...
  1 settings made for x
  1 settings made for y
  1 settings made for z
Setting up cg style minimization ...
  Unit style    : metal
  Current step  : 294
Per MPI rank memory allocation (min/avg/max) = 5.441 | 5.816 | 6.074 Mbytes
Step PotEng KinEng TotEng v_fx v_fy v_fz 
     294   -1152449.4            0   -1152449.4  0.021674886 -0.023257045 -0.033865251 
     448   -1152449.4            0   -1152449.4 -2.5182308e-05  1.51372e-05 -1.9560776e-05 
Loop time of 1.79231 on 104 procs for 154 steps with 288751 atoms

99.9% CPU use with 104 MPI tasks x 1 OpenMP threads

Minimization stats:
  Stopping criterion = energy tolerance
  Energy initial, next-to-last, final = 
     -1152449.44665773  -1152449.44808502  -1152449.44808502
  Force two-norm initial, final = 0.17474039 0.0001620516
  Force max component initial, final = 0.079504528 2.6341699e-05
  Final line search alpha, max atom move = 1.0000000 2.6341699e-05
  Iterations, force evaluations = 154 308

MPI task timing breakdown:
Section |  min time  |  avg time  |  max time  |%varavg| %total
---------------------------------------------------------------
Pair    | 0.47416    | 1.2964     | 1.6857     |  30.7 | 72.33
Neigh   | 0          | 0          | 0          |   0.0 |  0.00
Comm    | 0.028597   | 0.29206    | 0.87385    |  45.2 | 16.29
Output  | 0          | 0          | 0          |   0.0 |  0.00
Modify  | 1.8697e-05 | 0.0025395  | 0.0054375  |   2.4 |  0.14
Other   |            | 0.2013     |            |       | 11.23

Nlocal:        2776.45 ave        3961 max           0 min
Histogram: 8 4 4 0 6 10 8 2 28 34
Nghost:        3879.01 ave        5424 max         232 min
Histogram: 8 0 8 0 16 0 8 8 16 40
Neighs:        79213.5 ave      115455 max           0 min
Histogram: 8 4 4 0 10 6 8 8 24 32

Total # of neighbors = 8238199
Ave neighs/atom = 28.530461
Neighbor list builds = 0
Dangerous builds = 0
The dot product: 4.2243067805815e-08
Setting atom values ...
  1 settings made for x
  1 settings made for y
  1 settings made for z
Setting up cg style minimization ...
  Unit style    : metal
  Current step  : 448
Per MPI rank memory allocation (min/avg/max) = 5.441 | 5.816 | 6.074 Mbytes
Step PotEng KinEng TotEng v_fx v_fy v_fz 
     448   -1152449.4            0   -1152449.4  0.021000867 -0.019042294 -0.031944646 
     580   -1152449.4            0   -1152449.4 -1.6531446e-06 -9.6410157e-07 -2.1032769e-05 
Loop time of 1.52423 on 104 procs for 132 steps with 288751 atoms

99.9% CPU use with 104 MPI tasks x 1 OpenMP threads

Minimization stats:
  Stopping criterion = energy tolerance
  Energy initial, next-to-last, final = 
      -1152449.4432801  -1152449.44466025  -1152449.44466025
  Force two-norm initial, final = 0.17149569 7.3056211e-05
  Force max component initial, final = 0.079146563 2.1032769e-05
  Final line search alpha, max atom move = 1.0000000 2.1032769e-05
  Iterations, force evaluations = 132 264

MPI task timing breakdown:
Section |  min time  |  avg time  |  max time  |%varavg| %total
---------------------------------------------------------------
Pair    | 0.40016    | 1.1151     | 1.4362     |  28.5 | 73.16
Neigh   | 0          | 0          | 0          |   0.0 |  0.00
Comm    | 0.023432   | 0.25287    | 0.7683     |  42.2 | 16.59
Output  | 0          | 0          | 0          |   0.0 |  0.00
Modify  | 1.7809e-05 | 0.0021857  | 0.0047001  |   2.2 |  0.14
Other   |            | 0.1541     |            |       | 10.11

Nlocal:        2776.45 ave        3961 max           0 min
Histogram: 8 4 4 0 6 10 8 2 28 34
Nghost:        3879.01 ave        5424 max         232 min
Histogram: 8 0 8 0 16 0 8 8 16 40
Neighs:        79213.5 ave      115455 max           0 min
Histogram: 8 4 4 0 10 6 8 8 24 32

Total # of neighbors = 8238199
Ave neighs/atom = 28.530461
Neighbor list builds = 0
Dangerous builds = 0
The dot product: 7.12263210911853e-08
Setting atom values ...
  1 settings made for x
  1 settings made for y
  1 settings made for z
Setting up cg style minimization ...
  Unit style    : metal
  Current step  : 580
Per MPI rank memory allocation (min/avg/max) = 5.441 | 5.816 | 6.074 Mbytes
Step PotEng KinEng TotEng v_fx v_fy v_fz 
     580   -1152449.4            0   -1152449.4  0.019607884 -0.015606338 -0.026261826 
     832   -1152449.4            0   -1152449.4 -4.7695042e-07 3.6217272e-07 -7.6809693e-08 
Loop time of 2.91594 on 104 procs for 252 steps with 288751 atoms

99.9% CPU use with 104 MPI tasks x 1 OpenMP threads

Minimization stats:
  Stopping criterion = energy tolerance
  Energy initial, next-to-last, final = 
     -1152449.43854584  -1152449.43990966  -1152449.43990966
  Force two-norm initial, final = 0.16885878 6.8850093e-06
  Force max component initial, final = 0.077237926 1.0749239e-06
  Final line search alpha, max atom move = 1.0000000 1.0749239e-06
  Iterations, force evaluations = 252 504

MPI task timing breakdown:
Section |  min time  |  avg time  |  max time  |%varavg| %total
---------------------------------------------------------------
Pair    | 0.76447    | 2.1091     | 2.7278     |  39.1 | 72.33
Neigh   | 0          | 0          | 0          |   0.0 |  0.00
Comm    | 0.046441   | 0.47565    | 1.4238     |  57.9 | 16.31
Output  | 0          | 0          | 0          |   0.0 |  0.00
Modify  | 3.0643e-05 | 0.0041515  | 0.0088874  |   3.0 |  0.14
Other   |            | 0.327      |            |       | 11.21

Nlocal:        2776.45 ave        3961 max           0 min
Histogram: 8 4 4 0 6 10 8 2 28 34
Nghost:        3879.01 ave        5424 max         232 min
Histogram: 8 0 8 0 16 0 8 8 16 40
Neighs:        79213.5 ave      115455 max           0 min
Histogram: 8 4 4 0 10 6 8 8 24 32

Total # of neighbors = 8238201
Ave neighs/atom = 28.530467
Neighbor list builds = 0
Dangerous builds = 0
The dot product: 1.0838058327032e-09
Setting atom values ...
  1 settings made for x
  1 settings made for y
  1 settings made for z
Setting up cg style minimization ...
  Unit style    : metal
  Current step  : 832
Per MPI rank memory allocation (min/avg/max) = 5.441 | 5.816 | 6.074 Mbytes
Step PotEng KinEng TotEng v_fx v_fy v_fz 
     832   -1152449.4            0   -1152449.4  0.017879473  -0.01348899 -0.019567394 
    1000   -1152449.4            0   -1152449.4 -7.6276419e-06 5.8862236e-06 4.6750667e-06 
    1039   -1152449.4            0   -1152449.4 2.9875914e-06 -2.3252015e-06 -1.2817852e-06 
Loop time of 2.40455 on 104 procs for 207 steps with 288751 atoms

99.9% CPU use with 104 MPI tasks x 1 OpenMP threads

Minimization stats:
  Stopping criterion = energy tolerance
  Energy initial, next-to-last, final = 
     -1152449.43244132  -1152449.43379745  -1152449.43379745
  Force two-norm initial, final = 0.16730889 4.4197290e-05
  Force max component initial, final = 0.074582477 7.1986691e-06
  Final line search alpha, max atom move = 1.0000000 7.1986691e-06
  Iterations, force evaluations = 207 414

MPI task timing breakdown:
Section |  min time  |  avg time  |  max time  |%varavg| %total
---------------------------------------------------------------
Pair    | 0.62898    | 1.7471     | 2.2504     |  35.5 | 72.66
Neigh   | 0          | 0          | 0          |   0.0 |  0.00
Comm    | 0.040457   | 0.39034    | 1.1785     |  53.0 | 16.23
Output  | 0.00016036 | 0.00016513 | 0.00031422 |   0.0 |  0.01
Modify  | 2.7009e-05 | 0.0034067  | 0.0073102  |   2.8 |  0.14
Other   |            | 0.2636     |            |       | 10.96

Nlocal:        2776.45 ave        3961 max           0 min
Histogram: 8 4 4 0 6 10 8 2 28 34
Nghost:        3879.01 ave        5424 max         232 min
Histogram: 8 0 8 0 16 0 8 8 16 40
Neighs:        79213.5 ave      115455 max           0 min
Histogram: 8 4 4 0 10 6 8 8 24 32

Total # of neighbors = 8238202
Ave neighs/atom = 28.530471
Neighbor list builds = 0
Dangerous builds = 0
The dot product: -3.98874418993969e-09
Setting atom values ...
  1 settings made for x
  1 settings made for y
  1 settings made for z
Setting up cg style minimization ...
  Unit style    : metal
  Current step  : 1039
Per MPI rank memory allocation (min/avg/max) = 5.441 | 5.816 | 6.074 Mbytes
Step PotEng KinEng TotEng v_fx v_fy v_fz 
    1039   -1152449.4            0   -1152449.4  0.016169576 -0.012369389 -0.013478184 
    1243   -1152449.4            0   -1152449.4 -3.5357482e-07 1.1983018e-06 -1.1392132e-05 
Loop time of 2.35532 on 104 procs for 204 steps with 288751 atoms

99.9% CPU use with 104 MPI tasks x 1 OpenMP threads

Minimization stats:
  Stopping criterion = energy tolerance
  Energy initial, next-to-last, final = 
     -1152449.42492655  -1152449.42628337  -1152449.42628337
  Force two-norm initial, final = 0.16676375 5.3403952e-05
  Force max component initial, final = 0.074408645 1.3664156e-05
  Final line search alpha, max atom move = 1.0000000 1.3664156e-05
  Iterations, force evaluations = 204 408

MPI task timing breakdown:
Section |  min time  |  avg time  |  max time  |%varavg| %total
---------------------------------------------------------------
Pair    | 0.61597    | 1.7104     | 2.2291     |  35.5 | 72.62
Neigh   | 0          | 0          | 0          |   0.0 |  0.00
Comm    | 0.044396   | 0.38637    | 1.1599     |  52.1 | 16.40
Output  | 0          | 0          | 0          |   0.0 |  0.00
Modify  | 2.4595e-05 | 0.003356   | 0.0071863  |   2.7 |  0.14
Other   |            | 0.2552     |            |       | 10.84

Nlocal:        2776.45 ave        3961 max           0 min
Histogram: 8 4 4 0 6 10 8 2 28 34
Nghost:        3879.01 ave        5424 max         232 min
Histogram: 8 0 8 0 16 0 8 8 16 40
Neighs:        79213.5 ave      115455 max           0 min
Histogram: 8 4 4 0 10 6 8 8 24 32

Total # of neighbors = 8238201
Ave neighs/atom = 28.530467
Neighbor list builds = 0
Dangerous builds = 0
The dot product: 3.18365937664529e-08
Setting atom values ...
  1 settings made for x
  1 settings made for y
  1 settings made for z
Setting up cg style minimization ...
  Unit style    : metal
  Current step  : 1243
Per MPI rank memory allocation (min/avg/max) = 5.441 | 5.816 | 6.074 Mbytes
Step PotEng KinEng TotEng v_fx v_fy v_fz 
    1243   -1152449.4            0   -1152449.4   0.01476541 -0.011909402 -0.0086416498 
    1442   -1152449.4            0   -1152449.4 2.539822e-06 -2.6152635e-06 3.6102304e-06 
Loop time of 2.29489 on 104 procs for 199 steps with 288751 atoms

99.9% CPU use with 104 MPI tasks x 1 OpenMP threads

Minimization stats:
  Stopping criterion = energy tolerance
  Energy initial, next-to-last, final = 
     -1152449.41597254  -1152449.41733632  -1152449.41733632
  Force two-norm initial, final = 0.16680212 5.6371999e-05
  Force max component initial, final = 0.074727965 9.5170357e-06
  Final line search alpha, max atom move = 1.0000000 9.5170357e-06
  Iterations, force evaluations = 199 398

MPI task timing breakdown:
Section |  min time  |  avg time  |  max time  |%varavg| %total
---------------------------------------------------------------
Pair    | 0.60294    | 1.6736     | 2.1685     |  34.9 | 72.93
Neigh   | 0          | 0          | 0          |   0.0 |  0.00
Comm    | 0.045231   | 0.37627    | 1.1326     |  52.0 | 16.40
Output  | 0          | 0          | 0          |   0.0 |  0.00
Modify  | 2.4311e-05 | 0.0032808  | 0.0069889  |   2.7 |  0.14
Other   |            | 0.2418     |            |       | 10.54

Nlocal:        2776.45 ave        3961 max           0 min
Histogram: 8 4 4 0 6 10 8 2 28 34
Nghost:        3879.01 ave        5424 max         232 min
Histogram: 8 0 8 0 16 0 8 8 16 40
Neighs:        79213.5 ave      115455 max           0 min
Histogram: 8 4 4 0 10 6 8 8 24 32

Total # of neighbors = 8238203
Ave neighs/atom = 28.530474
Neighbor list builds = 0
Dangerous builds = 0
The dot product: -1.84792314527354e-08
Setting atom values ...
  1 settings made for x
  1 settings made for y
  1 settings made for z
Setting up cg style minimization ...
  Unit style    : metal
  Current step  : 1442
Per MPI rank memory allocation (min/avg/max) = 5.441 | 5.816 | 6.074 Mbytes
Step PotEng KinEng TotEng v_fx v_fy v_fz 
    1442   -1152449.4            0   -1152449.4  0.013917884 -0.012016992 -0.0050153328 
    1598   -1152449.4            0   -1152449.4 -2.5941505e-06 -4.0792113e-07 2.0516656e-05 
Loop time of 1.79972 on 104 procs for 156 steps with 288751 atoms

99.9% CPU use with 104 MPI tasks x 1 OpenMP threads

Minimization stats:
  Stopping criterion = energy tolerance
  Energy initial, next-to-last, final = 
     -1152449.40555879  -1152449.40693058  -1152449.40693058
  Force two-norm initial, final = 0.16713425 0.000181533
  Force max component initial, final = 0.07469207 3.3713859e-05
  Final line search alpha, max atom move = 1.0000000 3.3713859e-05
  Iterations, force evaluations = 156 312

MPI task timing breakdown:
Section |  min time  |  avg time  |  max time  |%varavg| %total
---------------------------------------------------------------
Pair    | 0.47333    | 1.3085     | 1.6952     |  30.9 | 72.70
Neigh   | 0          | 0          | 0          |   0.0 |  0.00
Comm    | 0.028575   | 0.29343    | 0.88497    |  45.8 | 16.30
Output  | 0          | 0          | 0          |   0.0 |  0.00
Modify  | 1.8825e-05 | 0.0025721  | 0.0055     |   2.4 |  0.14
Other   |            | 0.1952     |            |       | 10.85

Nlocal:        2776.45 ave        3960 max           0 min
Histogram: 8 4 4 0 4 12 8 2 28 34
Nghost:        3879.01 ave        5424 max         232 min
Histogram: 8 0 8 0 16 0 8 8 16 40
Neighs:        79213.5 ave      115412 max           0 min
Histogram: 8 4 4 0 10 6 8 8 24 32

Total # of neighbors = 8238201
Ave neighs/atom = 28.530467
Neighbor list builds = 0
Dangerous builds = 0
The dot product: -3.16447699983826e-08
Setting atom values ...
  1 settings made for x
  1 settings made for y
  1 settings made for z
Setting up cg style minimization ...
  Unit style    : metal
  Current step  : 1598
Per MPI rank memory allocation (min/avg/max) = 5.441 | 5.816 | 6.074 Mbytes
Step PotEng KinEng TotEng v_fx v_fy v_fz 
    1598   -1152449.4            0   -1152449.4  0.013850758 -0.012790353 -0.0023549624 
    1757   -1152449.4            0   -1152449.4 9.9222946e-06 -2.8721983e-06 -4.2540435e-05 
Loop time of 1.83586 on 104 procs for 159 steps with 288751 atoms

99.9% CPU use with 104 MPI tasks x 1 OpenMP threads

Minimization stats:
  Stopping criterion = energy tolerance
  Energy initial, next-to-last, final = 
     -1152449.39366458  -1152449.39504317  -1152449.39504317
  Force two-norm initial, final = 0.16757478 0.00021498207
  Force max component initial, final = 0.074544402 4.7224841e-05
  Final line search alpha, max atom move = 1.0000000 4.7224841e-05
  Iterations, force evaluations = 159 318

MPI task timing breakdown:
Section |  min time  |  avg time  |  max time  |%varavg| %total
---------------------------------------------------------------
Pair    | 0.48415    | 1.3427     | 1.7319     |  31.2 | 73.14
Neigh   | 0          | 0          | 0          |   0.0 |  0.00
Comm    | 0.028257   | 0.30361    | 0.92271    |  46.4 | 16.54
Output  | 0          | 0          | 0          |   0.0 |  0.00
Modify  | 2.3296e-05 | 0.0026286  | 0.0056149  |   2.4 |  0.14
Other   |            | 0.1869     |            |       | 10.18

Nlocal:        2776.45 ave        3957 max           0 min
Histogram: 8 4 4 0 4 12 8 2 28 34
Nghost:        3879.01 ave        5424 max         232 min
Histogram: 8 0 8 0 16 0 8 8 16 40
Neighs:        79213.5 ave      115331 max           0 min
Histogram: 8 4 4 0 10 6 8 8 24 32

Total # of neighbors = 8238202
Ave neighs/atom = 28.530471
Neighbor list builds = 0
Dangerous builds = 0
The dot product: 4.16144698057254e-08
Setting atom values ...
  1 settings made for x
  1 settings made for y
  1 settings made for z
Setting up cg style minimization ...
  Unit style    : metal
  Current step  : 1757
Per MPI rank memory allocation (min/avg/max) = 5.441 | 5.816 | 6.074 Mbytes
Step PotEng KinEng TotEng v_fx v_fy v_fz 
    1757   -1152449.4            0   -1152449.4  0.014537165 -0.014160833 -0.00066437776 
    1946   -1152449.4            0   -1152449.4 4.1861025e-06 -5.1840054e-07 -2.1191131e-05 
Loop time of 2.17033 on 104 procs for 189 steps with 288751 atoms

99.9% CPU use with 104 MPI tasks x 1 OpenMP threads

Minimization stats:
  Stopping criterion = energy tolerance
  Energy initial, next-to-last, final = 
     -1152449.38027105  -1152449.38165462  -1152449.38165462
  Force two-norm initial, final = 0.16798054 7.6879347e-05
  Force max component initial, final = 0.074308484 2.1191131e-05
  Final line search alpha, max atom move = 1.0000000 2.1191131e-05
  Iterations, force evaluations = 189 378

MPI task timing breakdown:
Section |  min time  |  avg time  |  max time  |%varavg| %total
---------------------------------------------------------------
Pair    | 0.57274    | 1.5875     | 2.0528     |  34.1 | 73.15
Neigh   | 0          | 0          | 0          |   0.0 |  0.00
Comm    | 0.033106   | 0.3566     | 1.0882     |  50.8 | 16.43
Output  | 0          | 0          | 0          |   0.0 |  0.00
Modify  | 2.2865e-05 | 0.0031115  | 0.0066727  |   2.6 |  0.14
Other   |            | 0.2231     |            |       | 10.28

Nlocal:        2776.45 ave        3955 max           0 min
Histogram: 8 4 4 0 4 12 8 2 28 34
Nghost:        3879.01 ave        5424 max         232 min
Histogram: 8 0 8 0 16 0 8 8 16 40
Neighs:        79213.5 ave      115270 max           0 min
Histogram: 8 4 4 0 10 6 8 8 24 32

Total # of neighbors = 8238203
Ave neighs/atom = 28.530474
Neighbor list builds = 0
Dangerous builds = 0
The dot product: 2.4446296019457e-08
Setting atom values ...
  1 settings made for x
  1 settings made for y
  1 settings made for z
Setting up cg style minimization ...
  Unit style    : metal
  Current step  : 1946
Per MPI rank memory allocation (min/avg/max) = 5.441 | 5.816 | 6.074 Mbytes
Step PotEng KinEng TotEng v_fx v_fy v_fz 
    1946   -1152449.4            0   -1152449.4  0.015568627  -0.01575321 0.00032782983 
    2000   -1152449.4            0   -1152449.4 7.4342322e-06 -1.1344248e-05 2.1015054e-05 
    2115   -1152449.4            0   -1152449.4 -7.1451051e-06 5.3219221e-06 1.0262199e-05 
Loop time of 1.93244 on 104 procs for 169 steps with 288751 atoms

99.9% CPU use with 104 MPI tasks x 1 OpenMP threads

Minimization stats:
  Stopping criterion = energy tolerance
  Energy initial, next-to-last, final = 
     -1152449.36536001  -1152449.36674818  -1152449.36674818
  Force two-norm initial, final = 0.1683743 0.00018147432
  Force max component initial, final = 0.074306916 3.4342748e-05
  Final line search alpha, max atom move = 1.0000000 3.4342748e-05
  Iterations, force evaluations = 169 338

MPI task timing breakdown:
Section |  min time  |  avg time  |  max time  |%varavg| %total
---------------------------------------------------------------
Pair    | 0.51253    | 1.422      | 1.8306     |  32.1 | 73.59
Neigh   | 0          | 0          | 0          |   0.0 |  0.00
Comm    | 0.035397   | 0.31841    | 0.97467    |  47.8 | 16.48
Output  | 9.3867e-05 | 9.8484e-05 | 0.00020207 |   0.0 |  0.01
Modify  | 2.0272e-05 | 0.0027898  | 0.005994   |   2.5 |  0.14
Other   |            | 0.1891     |            |       |  9.79

Nlocal:        2776.45 ave        3951 max           0 min
Histogram: 8 4 4 0 4 12 8 2 28 34
Nghost:        3879.01 ave        5424 max         232 min
Histogram: 8 0 8 0 16 0 8 8 16 40
Neighs:        79213.5 ave      115155 max           0 min
Histogram: 8 4 4 0 10 6 8 8 24 32

Total # of neighbors = 8238204
Ave neighs/atom = 28.530478
Neighbor list builds = 0
Dangerous builds = 0
The dot product: 2.77853350520264e-09
Setting atom values ...
  1 settings made for x
  1 settings made for y
  1 settings made for z
Setting up cg style minimization ...
  Unit style    : metal
  Current step  : 2115
Per MPI rank memory allocation (min/avg/max) = 5.441 | 5.816 | 6.074 Mbytes
Step PotEng KinEng TotEng v_fx v_fy v_fz 
    2115   -1152449.3            0   -1152449.3  0.016230602 -0.016828907 0.00063095263 
    2321   -1152449.4            0   -1152449.4 -4.7843578e-06 1.9189172e-06 1.5319776e-05 
Loop time of 2.35638 on 104 procs for 206 steps with 288751 atoms

99.9% CPU use with 104 MPI tasks x 1 OpenMP threads

Minimization stats:
  Stopping criterion = energy tolerance
  Energy initial, next-to-last, final = 
     -1152449.34890919  -1152449.35030182  -1152449.35030182
  Force two-norm initial, final = 0.1686088 5.9902134e-05
  Force max component initial, final = 0.074364618 1.5568793e-05
  Final line search alpha, max atom move = 1.0000000 1.5568793e-05
  Iterations, force evaluations = 206 412

MPI task timing breakdown:
Section |  min time  |  avg time  |  max time  |%varavg| %total
---------------------------------------------------------------
Pair    | 0.62365    | 1.7214     | 2.2266     |  35.4 | 73.05
Neigh   | 0          | 0          | 0          |   0.0 |  0.00
Comm    | 0.035767   | 0.38776    | 1.173      |  52.7 | 16.46
Output  | 0          | 0          | 0          |   0.0 |  0.00
Modify  | 2.5386e-05 | 0.0033886  | 0.0072714  |   2.8 |  0.14
Other   |            | 0.2438     |            |       | 10.35

Nlocal:        2776.45 ave        3947 max           0 min
Histogram: 8 4 4 0 4 12 8 2 26 36
Nghost:        3879.05 ave        5424 max         232 min
Histogram: 8 0 8 0 16 0 8 8 16 40
Neighs:        79213.5 ave      115022 max           0 min
Histogram: 8 4 4 0 10 6 8 8 24 32

Total # of neighbors = 8238204
Ave neighs/atom = 28.530478
Neighbor list builds = 0
Dangerous builds = 0
The dot product: -1.97619288440379e-08
Setting atom values ...
  1 settings made for x
  1 settings made for y
  1 settings made for z
Setting up cg style minimization ...
  Unit style    : metal
  Current step  : 2321
Per MPI rank memory allocation (min/avg/max) = 5.441 | 5.816 | 6.074 Mbytes
Step PotEng KinEng TotEng v_fx v_fy v_fz 
    2321   -1152449.3            0   -1152449.3  0.016108637 -0.016851398 -0.00018051157 
    2482   -1152449.3            0   -1152449.3 2.502311e-05 -1.2899481e-05 -6.3418102e-05 
Loop time of 1.84962 on 104 procs for 161 steps with 288751 atoms

99.9% CPU use with 104 MPI tasks x 1 OpenMP threads

Minimization stats:
  Stopping criterion = energy tolerance
  Energy initial, next-to-last, final = 
     -1152449.33089053  -1152449.33230278  -1152449.33230278
  Force two-norm initial, final = 0.16874272 0.00022652108
  Force max component initial, final = 0.074492704 6.3418102e-05
  Final line search alpha, max atom move = 1.0000000 6.3418102e-05
  Iterations, force evaluations = 161 322

MPI task timing breakdown:
Section |  min time  |  avg time  |  max time  |%varavg| %total
---------------------------------------------------------------
Pair    | 0.48871    | 1.355      | 1.7422     |  31.3 | 73.26
Neigh   | 0          | 0          | 0          |   0.0 |  0.00
Comm    | 0.030866   | 0.30279    | 0.92207    |  47.3 | 16.37
Output  | 0          | 0          | 0          |   0.0 |  0.00
Modify  | 1.9817e-05 | 0.0026525  | 0.0057082  |   2.4 |  0.14
Other   |            | 0.1891     |            |       | 10.23

Nlocal:        2776.45 ave        3943 max           0 min
Histogram: 8 4 4 0 4 12 8 2 26 36
Nghost:        3879.05 ave        5424 max         232 min
Histogram: 8 0 8 0 16 0 8 8 16 40
Neighs:        79213.5 ave      114867 max           0 min
Histogram: 8 4 4 0 10 6 8 8 22 34

Total # of neighbors = 8238202
Ave neighs/atom = 28.530471
Neighbor list builds = 0
Dangerous builds = 0
The dot product: 1.16390264366267e-07
Setting atom values ...
  1 settings made for x
  1 settings made for y
  1 settings made for z
Setting up cg style minimization ...
  Unit style    : metal
  Current step  : 2482
Per MPI rank memory allocation (min/avg/max) = 5.441 | 5.816 | 6.074 Mbytes
Step PotEng KinEng TotEng v_fx v_fy v_fz 
    2482   -1152449.3            0   -1152449.3  0.013791867 -0.013792241 -0.004362473 
    2698   -1152449.3            0   -1152449.3 -1.5202934e-06 9.8411553e-07 2.8045622e-06 
Loop time of 2.48386 on 104 procs for 216 steps with 288751 atoms

99.9% CPU use with 104 MPI tasks x 1 OpenMP threads

Minimization stats:
  Stopping criterion = energy tolerance
  Energy initial, next-to-last, final = 
     -1152449.31130286   -1152449.3128731   -1152449.3128731
  Force two-norm initial, final = 0.1686298 6.0738104e-05
  Force max component initial, final = 0.074237793 1.4633985e-05
  Final line search alpha, max atom move = 1.0000000 1.4633985e-05
  Iterations, force evaluations = 216 432

MPI task timing breakdown:
Section |  min time  |  avg time  |  max time  |%varavg| %total
---------------------------------------------------------------
Pair    | 0.65534    | 1.8074     | 2.3446     |  36.3 | 72.76
Neigh   | 0          | 0          | 0          |   0.0 |  0.00
Comm    | 0.040134   | 0.40467    | 1.22       |  53.8 | 16.29
Output  | 0          | 0          | 0          |   0.0 |  0.00
Modify  | 2.6051e-05 | 0.0035537  | 0.0076162  |   2.8 |  0.14
Other   |            | 0.2683     |            |       | 10.80

Nlocal:        2776.45 ave        3936 max           0 min
Histogram: 8 4 4 0 4 12 8 0 28 36
Nghost:        3879.05 ave        5424 max         232 min
Histogram: 8 0 8 0 16 0 8 8 16 40
Neighs:        79213.4 ave      114624 max           0 min
Histogram: 8 4 4 0 8 8 8 8 20 36

Total # of neighbors = 8238196
Ave neighs/atom = 28.530450
Neighbor list builds = 0
Dangerous builds = 0
The dot product: -9.04155071375617e-09
Setting atom values ...
  1 settings made for x
  1 settings made for y
  1 settings made for z
Setting up cg style minimization ...
  Unit style    : metal
  Current step  : 2698
Per MPI rank memory allocation (min/avg/max) = 5.441 | 5.816 | 6.074 Mbytes
Step PotEng KinEng TotEng v_fx v_fy v_fz 
    2698   -1152449.3            0   -1152449.3 -0.0020720177  0.010409859 -0.027743508 
    2927   -1152449.3            0   -1152449.3 2.3143237e-06 -1.2035125e-06 -5.0171231e-06 
Loop time of 2.63865 on 104 procs for 229 steps with 288751 atoms

99.9% CPU use with 104 MPI tasks x 1 OpenMP threads

Minimization stats:
  Stopping criterion = energy tolerance
  Energy initial, next-to-last, final = 
      -1152449.2903953  -1152449.29272521  -1152449.29272521
  Force two-norm initial, final = 0.17092124 4.3085741e-05
  Force max component initial, final = 0.071980682 6.7503256e-06
  Final line search alpha, max atom move = 1.0000000 6.7503256e-06
  Iterations, force evaluations = 229 458

MPI task timing breakdown:
Section |  min time  |  avg time  |  max time  |%varavg| %total
---------------------------------------------------------------
Pair    | 0.69181    | 1.9241     | 2.472      |  37.5 | 72.92
Neigh   | 0          | 0          | 0          |   0.0 |  0.00
Comm    | 0.040392   | 0.43295    | 1.3132     |  55.9 | 16.41
Output  | 0          | 0          | 0          |   0.0 |  0.00
Modify  | 2.7592e-05 | 0.0037716  | 0.0081304  |   2.9 |  0.14
Other   |            | 0.2778     |            |       | 10.53

Nlocal:        2776.45 ave        3930 max           0 min
Histogram: 8 4 4 0 4 12 8 0 26 38
Nghost:        3879.05 ave        5424 max         232 min
Histogram: 8 0 8 0 16 0 8 8 16 40
Neighs:        79213.5 ave      114457 max           0 min
Histogram: 8 4 4 0 8 8 8 8 20 36

Total # of neighbors = 8238199
Ave neighs/atom = 28.530461
Neighbor list builds = 0
Dangerous builds = 0
The dot product: 3.63247336438511e-08
Setting atom values ...
  1 settings made for x
  1 settings made for y
  1 settings made for z
Setting up cg style minimization ...
  Unit style    : metal
  Current step  : 2927
Per MPI rank memory allocation (min/avg/max) = 5.441 | 5.816 | 6.074 Mbytes
Step PotEng KinEng TotEng v_fx v_fy v_fz 
    2927   -1152449.3            0   -1152449.3 -0.025401804  0.058669062 -0.059072203 
    3000   -1152449.3            0   -1152449.3 -0.0001438843 -1.9821695e-05 0.00050643558 
    3181   -1152449.3            0   -1152449.3 2.0878801e-06 -3.0180768e-07 -5.9410176e-06 
Loop time of 2.91581 on 104 procs for 254 steps with 288751 atoms

99.9% CPU use with 104 MPI tasks x 1 OpenMP threads

Minimization stats:
  Stopping criterion = energy tolerance
  Energy initial, next-to-last, final = 
     -1152449.26910312  -1152449.27262474  -1152449.27262474
  Force two-norm initial, final = 0.19082166 2.0599601e-05
  Force max component initial, final = 0.079057857 5.9410176e-06
  Final line search alpha, max atom move = 1.0000000 5.9410176e-06
  Iterations, force evaluations = 254 508

MPI task timing breakdown:
Section |  min time  |  avg time  |  max time  |%varavg| %total
---------------------------------------------------------------
Pair    | 0.76882    | 2.1229     | 2.7485     |  39.3 | 72.81
Neigh   | 0          | 0          | 0          |   0.0 |  0.00
Comm    | 0.044768   | 0.47652    | 1.4434     |  58.5 | 16.34
Output  | 0.00013943 | 0.00014965 | 0.00028777 |   0.0 |  0.01
Modify  | 3.2933e-05 | 0.0041818  | 0.0089587  |   3.1 |  0.14
Other   |            | 0.3121     |            |       | 10.70

Nlocal:        2776.45 ave        3930 max           0 min
Histogram: 8 4 4 0 4 12 8 0 26 38
Nghost:        3879.09 ave        5425 max         232 min
Histogram: 8 0 8 0 16 0 8 8 16 40
Neighs:        79213.4 ave      114453 max           0 min
Histogram: 8 4 4 0 8 8 8 8 20 36

Total # of neighbors = 8238195
Ave neighs/atom = 28.530447
Neighbor list builds = 0
Dangerous builds = 0
The dot product: 7.84355082533511e-08
Setting atom values ...
  1 settings made for x
  1 settings made for y
  1 settings made for z
Setting up cg style minimization ...
  Unit style    : metal
  Current step  : 3181
Per MPI rank memory allocation (min/avg/max) = 5.441 | 5.816 | 6.074 Mbytes
Step PotEng KinEng TotEng v_fx v_fy v_fz 
    3181   -1152449.2            0   -1152449.2 -0.031687246  0.091221837 -0.064311755 
    3375   -1152449.3            0   -1152449.3 6.2765614e-06 -1.0297469e-05 -1.6658404e-09 
Loop time of 2.22361 on 104 procs for 194 steps with 288751 atoms

99.9% CPU use with 104 MPI tasks x 1 OpenMP threads

Minimization stats:
  Stopping criterion = energy tolerance
  Energy initial, next-to-last, final = 
      -1152449.2480157  -1152449.25213786  -1152449.25213786
  Force two-norm initial, final = 0.20676444 0.00020905088
  Force max component initial, final = 0.091221837 3.1908615e-05
  Final line search alpha, max atom move = 1.0000000 3.1908615e-05
  Iterations, force evaluations = 194 388

MPI task timing breakdown:
Section |  min time  |  avg time  |  max time  |%varavg| %total
---------------------------------------------------------------
Pair    | 0.58705    | 1.6351     | 2.1035     |  34.5 | 73.53
Neigh   | 0          | 0          | 0          |   0.0 |  0.00
Comm    | 0.036398   | 0.36736    | 1.1185     |  51.4 | 16.52
Output  | 0          | 0          | 0          |   0.0 |  0.00
Modify  | 2.4053e-05 | 0.0032002  | 0.0068696  |   2.7 |  0.14
Other   |            | 0.218      |            |       |  9.80

Nlocal:        2776.45 ave        3936 max           0 min
Histogram: 8 4 4 0 4 12 8 0 28 36
Nghost:        3879.12 ave        5425 max         232 min
Histogram: 8 0 8 0 16 0 8 8 16 40
Neighs:        79213.4 ave      114620 max           0 min
Histogram: 8 4 4 0 8 8 8 8 20 36

Total # of neighbors = 8238198
Ave neighs/atom = 28.530457
Neighbor list builds = 0
Dangerous builds = 0
The dot product: -3.76907526405664e-07
Setting atom values ...
  1 settings made for x
  1 settings made for y
  1 settings made for z
Setting up cg style minimization ...
  Unit style    : metal
  Current step  : 3375
Per MPI rank memory allocation (min/avg/max) = 5.441 | 5.816 | 6.074 Mbytes
Step PotEng KinEng TotEng v_fx v_fy v_fz 
    3375   -1152449.2            0   -1152449.2 -0.025429905    0.1028421 -0.056777881 
    3586   -1152449.2            0   -1152449.2 -8.2561041e-06 1.885502e-07 1.9292028e-05 
Loop time of 2.42866 on 104 procs for 211 steps with 288751 atoms

99.9% CPU use with 104 MPI tasks x 1 OpenMP threads

Minimization stats:
  Stopping criterion = energy tolerance
  Energy initial, next-to-last, final = 
     -1152449.22680966   -1152449.2308239   -1152449.2308239
  Force two-norm initial, final = 0.20948227 0.00014475199
  Force max component initial, final = 0.1028421 3.5929179e-05
  Final line search alpha, max atom move = 1.0000000 3.5929179e-05
  Iterations, force evaluations = 211 422

MPI task timing breakdown:
Section |  min time  |  avg time  |  max time  |%varavg| %total
---------------------------------------------------------------
Pair    | 0.63672    | 1.7681     | 2.2916     |  36.0 | 72.80
Neigh   | 0          | 0          | 0          |   0.0 |  0.00
Comm    | 0.036029   | 0.40112    | 1.2121     |  53.4 | 16.52
Output  | 0          | 0          | 0          |   0.0 |  0.00
Modify  | 2.5401e-05 | 0.0034762  | 0.0074288  |   2.8 |  0.14
Other   |            | 0.256      |            |       | 10.54

Nlocal:        2776.45 ave        3946 max           0 min
Histogram: 8 4 4 0 4 12 8 2 26 36
Nghost:        3879.07 ave        5425 max         232 min
Histogram: 8 0 8 0 16 0 8 8 16 40
Neighs:        79213.5 ave      114972 max           0 min
Histogram: 8 4 4 0 10 6 8 8 24 32

Total # of neighbors = 8238203
Ave neighs/atom = 28.530474
Neighbor list builds = 0
Dangerous builds = 0
The dot product: -2.49518757424477e-07
Setting atom values ...
  1 settings made for x
  1 settings made for y
  1 settings made for z
Setting up cg style minimization ...
  Unit style    : metal
  Current step  : 3586
Per MPI rank memory allocation (min/avg/max) = 5.441 | 5.816 | 6.074 Mbytes
Step PotEng KinEng TotEng v_fx v_fy v_fz 
    3586   -1152449.2            0   -1152449.2 -0.015342313  0.093818255 -0.043055153 
    3836   -1152449.2            0   -1152449.2 1.7573584e-06 8.7822323e-08 -3.8408053e-06 
Loop time of 2.88033 on 104 procs for 250 steps with 288751 atoms

99.9% CPU use with 104 MPI tasks x 1 OpenMP threads

Minimization stats:
  Stopping criterion = energy tolerance
  Energy initial, next-to-last, final = 
     -1152449.20478539  -1152449.20822393  -1152449.20822393
  Force two-norm initial, final = 0.20075723 2.2404728e-05
  Force max component initial, final = 0.11018688 3.8408053e-06
  Final line search alpha, max atom move = 1.0000000 3.8408053e-06
  Iterations, force evaluations = 250 500

MPI task timing breakdown:
Section |  min time  |  avg time  |  max time  |%varavg| %total
---------------------------------------------------------------
Pair    | 0.75563    | 2.1072     | 2.72       |  39.2 | 73.16
Neigh   | 0          | 0          | 0          |   0.0 |  0.00
Comm    | 0.044321   | 0.47794    | 1.4428     |  57.7 | 16.59
Output  | 0          | 0          | 0          |   0.0 |  0.00
Modify  | 3.016e-05  | 0.0041189  | 0.0087932  |   3.0 |  0.14
Other   |            | 0.2911     |            |       | 10.11

Nlocal:        2776.45 ave        3954 max           0 min
Histogram: 8 4 4 0 4 12 8 2 28 34
Nghost:        3879.03 ave        5425 max         232 min
Histogram: 8 0 8 0 16 0 8 8 16 40
Neighs:        79213.5 ave      115235 max           0 min
Histogram: 8 4 4 0 10 6 8 8 24 32

Total # of neighbors = 8238207
Ave neighs/atom = 28.530488
Neighbor list builds = 0
Dangerous builds = 0
The dot product: 5.22835224521842e-08
Setting atom values ...
  1 settings made for x
  1 settings made for y
  1 settings made for z
Setting up cg style minimization ...
  Unit style    : metal
  Current step  : 3836
Per MPI rank memory allocation (min/avg/max) = 5.441 | 5.816 | 6.074 Mbytes
Step PotEng KinEng TotEng v_fx v_fy v_fz 
    3836   -1152449.2            0   -1152449.2 -0.0059183702  0.077462289 -0.034032259 
    4000   -1152449.2            0   -1152449.2 3.2053624e-05 9.2145714e-06 -6.8809296e-05 
    4039   -1152449.2            0   -1152449.2 -2.9373843e-06 3.8793298e-06 3.5168229e-06 
Loop time of 2.34479 on 104 procs for 203 steps with 288751 atoms

99.9% CPU use with 104 MPI tasks x 1 OpenMP threads

Minimization stats:
  Stopping criterion = energy tolerance
  Energy initial, next-to-last, final = 
     -1152449.18157958  -1152449.18466501  -1152449.18466501
  Force two-norm initial, final = 0.19062488 0.00014110393
  Force max component initial, final = 0.11592854 2.9247075e-05
  Final line search alpha, max atom move = 1.0000000 2.9247075e-05
  Iterations, force evaluations = 203 406

MPI task timing breakdown:
Section |  min time  |  avg time  |  max time  |%varavg| %total
---------------------------------------------------------------
Pair    | 0.62437    | 1.7094     | 2.2175     |  35.2 | 72.90
Neigh   | 0          | 0          | 0          |   0.0 |  0.00
Comm    | 0.037648   | 0.38364    | 1.1603     |  52.3 | 16.36
Output  | 9.5778e-05 | 0.00010532 | 0.00024676 |   0.0 |  0.00
Modify  | 2.4728e-05 | 0.0033376  | 0.0071403  |   2.7 |  0.14
Other   |            | 0.2483     |            |       | 10.59

Nlocal:        2776.45 ave        3956 max           0 min
Histogram: 8 4 4 0 4 12 8 2 28 34
Nghost:        3878.96 ave        5425 max         232 min
Histogram: 8 0 8 0 16 0 8 8 16 40
Neighs:        79213.5 ave      115298 max           0 min
Histogram: 8 4 4 0 10 6 8 8 24 32

Total # of neighbors = 8238206
Ave neighs/atom = 28.530485
Neighbor list builds = 0
Dangerous builds = 0
The dot product: 2.98333557728703e-08
Setting atom values ...
  1 settings made for x
  1 settings made for y
  1 settings made for z
Setting up cg style minimization ...
  Unit style    : metal
  Current step  : 4039
Per MPI rank memory allocation (min/avg/max) = 5.441 | 5.816 | 6.074 Mbytes
Step PotEng KinEng TotEng v_fx v_fy v_fz 
    4039   -1152449.2            0   -1152449.2 0.0025511795  0.063750584 -0.032395305 
    4244   -1152449.2            0   -1152449.2 -1.3037198e-05 1.8289126e-06 2.3005632e-05 
Loop time of 2.36631 on 104 procs for 205 steps with 288751 atoms

99.9% CPU use with 104 MPI tasks x 1 OpenMP threads

Minimization stats:
  Stopping criterion = energy tolerance
  Energy initial, next-to-last, final = 
     -1152449.15755599  -1152449.16028821  -1152449.16028821
  Force two-norm initial, final = 0.18400756 0.00011865488
  Force max component initial, final = 0.12006633 2.3005632e-05
  Final line search alpha, max atom move = 1.0000000 2.3005632e-05
  Iterations, force evaluations = 205 410

MPI task timing breakdown:
Section |  min time  |  avg time  |  max time  |%varavg| %total
---------------------------------------------------------------
Pair    | 0.62138    | 1.722      | 2.2385     |  35.4 | 72.77
Neigh   | 0          | 0          | 0          |   0.0 |  0.00
Comm    | 0.044922   | 0.38641    | 1.162      |  52.5 | 16.33
Output  | 0          | 0          | 0          |   0.0 |  0.00
Modify  | 2.4633e-05 | 0.003376   | 0.0072056  |   2.7 |  0.14
Other   |            | 0.2545     |            |       | 10.76

Nlocal:        2776.45 ave        3956 max           0 min
Histogram: 8 4 4 0 4 12 8 2 28 34
Nghost:        3878.97 ave        5425 max         232 min
Histogram: 8 0 8 0 16 0 8 8 16 40
Neighs:        79213.6 ave      115300 max           0 min
Histogram: 8 4 4 0 10 6 8 8 24 32

Total # of neighbors = 8238211
Ave neighs/atom = 28.530502
Neighbor list builds = 0
Dangerous builds = 0
The dot product: -3.349179121636e-07
Setting atom values ...
  1 settings made for x
  1 settings made for y
  1 settings made for z
Setting up cg style minimization ...
  Unit style    : metal
  Current step  : 4244
Per MPI rank memory allocation (min/avg/max) = 5.441 | 5.816 | 6.074 Mbytes
Step PotEng KinEng TotEng v_fx v_fy v_fz 
    4244   -1152449.1            0   -1152449.1 0.0087489416  0.055927851 -0.032643877 
    4449   -1152449.1            0   -1152449.1 -4.4801638e-06 2.865452e-06 6.6491704e-06 
Loop time of 2.3632 on 104 procs for 205 steps with 288751 atoms

99.9% CPU use with 104 MPI tasks x 1 OpenMP threads

Minimization stats:
  Stopping criterion = energy tolerance
  Energy initial, next-to-last, final = 
     -1152449.13245807  -1152449.13492473  -1152449.13492473
  Force two-norm initial, final = 0.18137058 0.00011263565
  Force max component initial, final = 0.12424068 1.2812048e-05
  Final line search alpha, max atom move = 1.0000000 1.2812048e-05
  Iterations, force evaluations = 205 410

MPI task timing breakdown:
Section |  min time  |  avg time  |  max time  |%varavg| %total
---------------------------------------------------------------
Pair    | 0.62301    | 1.7173     | 2.2396     |  35.4 | 72.67
Neigh   | 0          | 0          | 0          |   0.0 |  0.00
Comm    | 0.037433   | 0.38677    | 1.1639     |  52.1 | 16.37
Output  | 0          | 0          | 0          |   0.0 |  0.00
Modify  | 2.4833e-05 | 0.0033753  | 0.0072204  |   2.7 |  0.14
Other   |            | 0.2558     |            |       | 10.82

Nlocal:        2776.45 ave        3957 max           0 min
Histogram: 8 4 4 0 4 12 8 2 28 34
Nghost:        3878.98 ave        5425 max         232 min
Histogram: 8 0 8 0 16 0 8 8 16 40
Neighs:        79213.6 ave      115339 max           0 min
Histogram: 8 4 4 0 10 6 8 8 24 32

Total # of neighbors = 8238214
Ave neighs/atom = 28.530512
Neighbor list builds = 0
Dangerous builds = 0
The dot product: -6.45073614679024e-08
Setting atom values ...
  1 settings made for x
  1 settings made for y
  1 settings made for z
Setting up cg style minimization ...
  Unit style    : metal
  Current step  : 4449
Per MPI rank memory allocation (min/avg/max) = 5.441 | 5.816 | 6.074 Mbytes
Step PotEng KinEng TotEng v_fx v_fy v_fz 
    4449   -1152449.1            0   -1152449.1  0.011391586  0.046458775 -0.028905136 
    4646   -1152449.1            0   -1152449.1 1.289862e-05 -1.152914e-06 -2.0031283e-05 
Loop time of 2.26586 on 104 procs for 197 steps with 288751 atoms

99.9% CPU use with 104 MPI tasks x 1 OpenMP threads

Minimization stats:
  Stopping criterion = energy tolerance
  Energy initial, next-to-last, final = 
     -1152449.10617353  -1152449.10830987  -1152449.10830987
  Force two-norm initial, final = 0.17856725 0.00011911929
  Force max component initial, final = 0.12820663 2.0031283e-05
  Final line search alpha, max atom move = 1.0000000 2.0031283e-05
  Iterations, force evaluations = 197 394

MPI task timing breakdown:
Section |  min time  |  avg time  |  max time  |%varavg| %total
---------------------------------------------------------------
Pair    | 0.5969     | 1.658      | 2.1445     |  34.8 | 73.17
Neigh   | 0          | 0          | 0          |   0.0 |  0.00
Comm    | 0.040921   | 0.36935    | 1.127      |  51.9 | 16.30
Output  | 0          | 0          | 0          |   0.0 |  0.00
Modify  | 2.3577e-05 | 0.003249   | 0.0070071  |   2.7 |  0.14
Other   |            | 0.2353     |            |       | 10.38

Nlocal:        2776.45 ave        3957 max           0 min
Histogram: 8 4 4 0 4 12 8 2 28 34
Nghost:        3879.02 ave        5426 max         232 min
Histogram: 8 0 8 0 16 0 8 8 16 40
Neighs:        79213.6 ave      115336 max           0 min
Histogram: 8 4 4 0 10 6 8 8 24 32

Total # of neighbors = 8238213
Ave neighs/atom = 28.530509
Neighbor list builds = 0
Dangerous builds = 0
The dot product: 2.74847667701389e-07
Setting atom values ...
  1 settings made for x
  1 settings made for y
  1 settings made for z
Setting up cg style minimization ...
  Unit style    : metal
  Current step  : 4646
Per MPI rank memory allocation (min/avg/max) = 5.441 | 5.816 | 6.074 Mbytes
Step PotEng KinEng TotEng v_fx v_fy v_fz 
    4646   -1152449.1            0   -1152449.1  0.010858019  0.035917704 -0.022573117 
    4816   -1152449.1            0   -1152449.1 7.3328413e-07 5.2582383e-07 -1.1840128e-06 
Loop time of 1.98464 on 104 procs for 170 steps with 288751 atoms

99.9% CPU use with 104 MPI tasks x 1 OpenMP threads

Minimization stats:
  Stopping criterion = energy tolerance
  Energy initial, next-to-last, final = 
     -1152449.07844101  -1152449.08034139  -1152449.08034139
  Force two-norm initial, final = 0.17610224 0.00021324322
  Force max component initial, final = 0.13179231 1.9048327e-05
  Final line search alpha, max atom move = 1.0000000 1.9048327e-05
  Iterations, force evaluations = 170 340

MPI task timing breakdown:
Section |  min time  |  avg time  |  max time  |%varavg| %total
---------------------------------------------------------------
Pair    | 0.51392    | 1.4248     | 1.8568     |  32.2 | 71.79
Neigh   | 0          | 0          | 0          |   0.0 |  0.00
Comm    | 0.03197    | 0.32211    | 0.96175    |  47.4 | 16.23
Output  | 0          | 0          | 0          |   0.0 |  0.00
Modify  | 2.0729e-05 | 0.0028308  | 0.0085613  |   2.7 |  0.14
Other   |            | 0.2349     |            |       | 11.84

Nlocal:        2776.45 ave        3957 max           0 min
Histogram: 8 4 4 0 4 12 8 2 28 34
Nghost:        3878.99 ave        5426 max         232 min
Histogram: 8 0 8 0 16 0 8 8 16 40
Neighs:        79213.6 ave      115337 max           0 min
Histogram: 8 4 4 0 10 6 8 8 24 32

Total # of neighbors = 8238212
Ave neighs/atom = 28.530506
Neighbor list builds = 0
Dangerous builds = 0
The dot product: 1.90875054646211e-08
Setting atom values ...
  1 settings made for x
  1 settings made for y
  1 settings made for z
Setting up cg style minimization ...
  Unit style    : metal
  Current step  : 4816
Per MPI rank memory allocation (min/avg/max) = 5.441 | 5.816 | 6.074 Mbytes
Step PotEng KinEng TotEng v_fx v_fy v_fz 
    4816     -1152449            0     -1152449 0.0089023167  0.026412481 -0.016362724 
    4970   -1152449.1            0   -1152449.1 -4.9114065e-05 5.1801688e-06 6.8999433e-05 
Loop time of 1.77663 on 104 procs for 154 steps with 288751 atoms

99.9% CPU use with 104 MPI tasks x 1 OpenMP threads

Minimization stats:
  Stopping criterion = energy tolerance
  Energy initial, next-to-last, final = 
     -1152449.04928159  -1152449.05103672  -1152449.05103672
  Force two-norm initial, final = 0.17483423 0.00029634253
  Force max component initial, final = 0.13497946 6.8999433e-05
  Final line search alpha, max atom move = 1.0000000 6.8999433e-05
  Iterations, force evaluations = 154 308

MPI task timing breakdown:
Section |  min time  |  avg time  |  max time  |%varavg| %total
---------------------------------------------------------------
Pair    | 0.46788    | 1.3034     | 1.6834     |  30.9 | 73.37
Neigh   | 0          | 0          | 0          |   0.0 |  0.00
Comm    | 0.026954   | 0.29294    | 0.89013    |  45.9 | 16.49
Output  | 0          | 0          | 0          |   0.0 |  0.00
Modify  | 1.8629e-05 | 0.0025417  | 0.0054456  |   2.4 |  0.14
Other   |            | 0.1777     |            |       | 10.00

Nlocal:        2776.45 ave        3957 max           0 min
Histogram: 8 4 4 0 4 12 8 2 28 34
Nghost:        3879.01 ave        5426 max         232 min
Histogram: 8 0 8 0 16 0 8 8 16 40
Neighs:        79213.6 ave      115337 max           0 min
Histogram: 8 4 4 0 10 6 8 8 24 32

Total # of neighbors = 8238215
Ave neighs/atom = 28.530516
Neighbor list builds = 0
Dangerous builds = 0
The dot product: -7.02672065592645e-07
Setting atom values ...
  1 settings made for x
  1 settings made for y
  1 settings made for z
Setting up cg style minimization ...
  Unit style    : metal
  Current step  : 4970
Per MPI rank memory allocation (min/avg/max) = 5.441 | 5.816 | 6.074 Mbytes
Step PotEng KinEng TotEng v_fx v_fy v_fz 
    4970     -1152449            0     -1152449 0.0065920443  0.018730194 -0.011187354 
    5000     -1152449            0     -1152449 -0.0005564749 0.00012988262 0.00074668785 
    5145     -1152449            0     -1152449 7.9400468e-06 -2.4026608e-06 -1.0590609e-05 
Loop time of 2.03594 on 104 procs for 175 steps with 288751 atoms

99.9% CPU use with 104 MPI tasks x 1 OpenMP threads

Minimization stats:
  Stopping criterion = energy tolerance
  Energy initial, next-to-last, final = 
     -1152449.01878345  -1152449.02050214  -1152449.02050214
  Force two-norm initial, final = 0.1746033 0.00018169772
  Force max component initial, final = 0.13772838 1.6736921e-05
  Final line search alpha, max atom move = 1.0000000 1.6736921e-05
  Iterations, force evaluations = 175 350

MPI task timing breakdown:
Section |  min time  |  avg time  |  max time  |%varavg| %total
---------------------------------------------------------------
Pair    | 0.53201    | 1.4684     | 1.9147     |  32.8 | 72.12
Neigh   | 0          | 0          | 0          |   0.0 |  0.00
Comm    | 0.033856   | 0.33174    | 0.9897     |  48.1 | 16.29
Output  | 0.00010433 | 0.00010971 | 0.00018295 |   0.0 |  0.01
Modify  | 2.129e-05  | 0.0028873  | 0.006159   |   2.5 |  0.14
Other   |            | 0.2328     |            |       | 11.43

Nlocal:        2776.45 ave        3957 max           0 min
Histogram: 8 4 4 0 4 12 8 2 28 34
Nghost:        3879.03 ave        5426 max         232 min
Histogram: 8 0 8 0 16 0 8 8 16 40
Neighs:        79213.6 ave      115339 max           0 min
Histogram: 8 4 4 0 10 6 8 8 24 32

Total # of neighbors = 8238218
Ave neighs/atom = 28.530526
Neighbor list builds = 0
Dangerous builds = 0
The dot product: 9.03657105945874e-08
Setting atom values ...
  1 settings made for x
  1 settings made for y
  1 settings made for z
Setting up cg style minimization ...
  Unit style    : metal
  Current step  : 5145
Per MPI rank memory allocation (min/avg/max) = 5.441 | 5.816 | 6.074 Mbytes
Step PotEng KinEng TotEng v_fx v_fy v_fz 
    5145     -1152449            0     -1152449 0.0048145305  0.012943161 -0.0076669614 
    5316     -1152449            0     -1152449 4.1555319e-05 -4.999365e-06 -5.4670195e-05 
Loop time of 1.97602 on 104 procs for 171 steps with 288751 atoms

99.9% CPU use with 104 MPI tasks x 1 OpenMP threads

Minimization stats:
  Stopping criterion = energy tolerance
  Energy initial, next-to-last, final = 
      -1152448.9871658  -1152448.98884848  -1152448.98884848
  Force two-norm initial, final = 0.17493496 0.00020976514
  Force max component initial, final = 0.14000765 5.4670195e-05
  Final line search alpha, max atom move = 1.0000000 5.4670195e-05
  Iterations, force evaluations = 171 342

MPI task timing breakdown:
Section |  min time  |  avg time  |  max time  |%varavg| %total
---------------------------------------------------------------
Pair    | 0.51947    | 1.4427     | 1.87       |  32.4 | 73.01
Neigh   | 0          | 0          | 0          |   0.0 |  0.00
Comm    | 0.032101   | 0.32818    | 0.98596    |  47.5 | 16.61
Output  | 0          | 0          | 0          |   0.0 |  0.00
Modify  | 2.0696e-05 | 0.0028229  | 0.0060579  |   2.5 |  0.14
Other   |            | 0.2024     |            |       | 10.24

Nlocal:        2776.45 ave        3957 max           0 min
Histogram: 8 4 4 0 4 12 8 2 28 34
Nghost:        3879.05 ave        5426 max         232 min
Histogram: 8 0 8 0 16 0 8 8 16 40
Neighs:        79213.6 ave      115348 max           0 min
Histogram: 8 4 4 0 10 6 8 8 24 32

Total # of neighbors = 8238215
Ave neighs/atom = 28.530516
Neighbor list builds = 0
Dangerous builds = 0
The dot product: 4.46637613897057e-07
Setting atom values ...
  1 settings made for x
  1 settings made for y
  1 settings made for z
Setting up cg style minimization ...
  Unit style    : metal
  Current step  : 5316
Per MPI rank memory allocation (min/avg/max) = 5.441 | 5.816 | 6.074 Mbytes
Step PotEng KinEng TotEng v_fx v_fy v_fz 
    5316     -1152449            0     -1152449 0.0028094925 0.0087492076 -0.0043993972 
    5510     -1152449            0     -1152449 -1.5683844e-05 2.7203223e-06 2.0053051e-05 
Loop time of 2.24473 on 104 procs for 194 steps with 288751 atoms

99.9% CPU use with 104 MPI tasks x 1 OpenMP threads

Minimization stats:
  Stopping criterion = energy tolerance
  Energy initial, next-to-last, final = 
      -1152448.9544637  -1152448.95617108  -1152448.95617108
  Force two-norm initial, final = 0.17564708 0.00011316597
  Force max component initial, final = 0.14209011 2.0053051e-05
  Final line search alpha, max atom move = 1.0000000 2.0053051e-05
  Iterations, force evaluations = 194 388

MPI task timing breakdown:
Section |  min time  |  avg time  |  max time  |%varavg| %total
---------------------------------------------------------------
Pair    | 0.58675    | 1.6302     | 2.1256     |  34.6 | 72.62
Neigh   | 0          | 0          | 0          |   0.0 |  0.00
Comm    | 0.033686   | 0.36814    | 1.1086     |  51.0 | 16.40
Output  | 0          | 0          | 0          |   0.0 |  0.00
Modify  | 2.356e-05  | 0.0031927  | 0.0068811  |   2.7 |  0.14
Other   |            | 0.2432     |            |       | 10.83

Nlocal:        2776.45 ave        3956 max           0 min
Histogram: 8 4 4 0 4 12 8 0 30 34
Nghost:        3878.99 ave        5426 max         232 min
Histogram: 8 0 8 0 16 0 8 8 16 40
Neighs:        79213.6 ave      115346 max           0 min
Histogram: 8 4 4 0 10 6 8 8 24 32

Total # of neighbors = 8238219
Ave neighs/atom = 28.530530
Neighbor list builds = 0
Dangerous builds = 0
The dot product: -1.52151481206019e-07
Setting atom values ...
  1 settings made for x
  1 settings made for y
  1 settings made for z
Setting up cg style minimization ...
  Unit style    : metal
  Current step  : 5510
Per MPI rank memory allocation (min/avg/max) = 5.441 | 5.816 | 6.074 Mbytes
Step PotEng KinEng TotEng v_fx v_fy v_fz 
    5510   -1152448.9            0   -1152448.9 0.0011819881 0.0059094243 -0.0019676374 
    5751   -1152448.9            0   -1152448.9 3.5239213e-06 -6.7307686e-07 -4.4027596e-06 
Loop time of 2.78381 on 104 procs for 241 steps with 288751 atoms

99.9% CPU use with 104 MPI tasks x 1 OpenMP threads

Minimization stats:
  Stopping criterion = energy tolerance
  Energy initial, next-to-last, final = 
     -1152448.92087745  -1152448.92258787  -1152448.92258787
  Force two-norm initial, final = 0.17635172 2.5412455e-05
  Force max component initial, final = 0.14379866 4.4027596e-06
  Final line search alpha, max atom move = 1.0000000 4.4027596e-06
  Iterations, force evaluations = 241 482

MPI task timing breakdown:
Section |  min time  |  avg time  |  max time  |%varavg| %total
---------------------------------------------------------------
Pair    | 0.73141    | 2.0285     | 2.6336     |  38.4 | 72.87
Neigh   | 0          | 0          | 0          |   0.0 |  0.00
Comm    | 0.051639   | 0.4573     | 1.3888     |  56.7 | 16.43
Output  | 0          | 0          | 0          |   0.0 |  0.00
Modify  | 2.9261e-05 | 0.0039682  | 0.0086363  |   3.0 |  0.14
Other   |            | 0.2941     |            |       | 10.56

Nlocal:        2776.45 ave        3956 max           0 min
Histogram: 8 4 4 0 4 12 8 0 30 34
Nghost:        3879.03 ave        5426 max         232 min
Histogram: 8 0 8 0 16 0 8 8 16 40
Neighs:        79213.6 ave      115324 max           0 min
Histogram: 8 4 4 0 10 6 8 8 24 32

Total # of neighbors = 8238214
Ave neighs/atom = 28.530512
Neighbor list builds = 0
Dangerous builds = 0
The dot product: 3.02730344879862e-08
Setting atom values ...
  1 settings made for x
  1 settings made for y
  1 settings made for z
Setting up cg style minimization ...
  Unit style    : metal
  Current step  : 5751
Per MPI rank memory allocation (min/avg/max) = 5.441 | 5.816 | 6.074 Mbytes
Step PotEng KinEng TotEng v_fx v_fy v_fz 
    5751   -1152448.9            0   -1152448.9 -0.00083002295 0.0039321653 0.00073332669 
    5918   -1152448.9            0   -1152448.9 5.0671383e-05 -7.5694317e-06 -6.2277714e-05 
Loop time of 1.96021 on 104 procs for 167 steps with 288751 atoms

99.9% CPU use with 104 MPI tasks x 1 OpenMP threads

Minimization stats:
  Stopping criterion = energy tolerance
  Energy initial, next-to-last, final = 
     -1152448.88637978  -1152448.88800198  -1152448.88800198
  Force two-norm initial, final = 0.17721827 0.00025252707
  Force max component initial, final = 0.14539363 6.2277714e-05
  Final line search alpha, max atom move = 1.0000000 6.2277714e-05
  Iterations, force evaluations = 167 334

MPI task timing breakdown:
Section |  min time  |  avg time  |  max time  |%varavg| %total
---------------------------------------------------------------
Pair    | 0.50487    | 1.4037     | 1.8287     |  32.1 | 71.61
Neigh   | 0          | 0          | 0          |   0.0 |  0.00
Comm    | 0.029494   | 0.31821    | 0.95081    |  47.1 | 16.23
Output  | 0          | 0          | 0          |   0.0 |  0.00
Modify  | 2.0081e-05 | 0.0027574  | 0.0058675  |   2.5 |  0.14
Other   |            | 0.2355     |            |       | 12.02

Nlocal:        2776.45 ave        3956 max           0 min
Histogram: 8 4 4 0 4 12 8 0 30 34
Nghost:        3879.03 ave        5426 max         232 min
Histogram: 8 0 8 0 16 0 8 8 16 40
Neighs:        79213.6 ave      115348 max           0 min
Histogram: 8 4 4 0 10 6 8 8 24 32

Total # of neighbors = 8238216
Ave neighs/atom = 28.530519
Neighbor list builds = 0
Dangerous builds = 0
The dot product: 3.51451667170608e-07
Setting atom values ...
  1 settings made for x
  1 settings made for y
  1 settings made for z
Setting up cg style minimization ...
  Unit style    : metal
  Current step  : 5918
Per MPI rank memory allocation (min/avg/max) = 5.441 | 5.816 | 6.074 Mbytes
Step PotEng KinEng TotEng v_fx v_fy v_fz 
    5918   -1152448.9            0   -1152448.9 -0.0036720391 0.0026018191 0.0042973529 
    6000   -1152448.9            0   -1152448.9 -8.4639822e-06 -7.9721212e-06 1.0919652e-05 
    6089   -1152448.9            0   -1152448.9 4.0346829e-05 -6.3246597e-06 -4.8834074e-05 
Loop time of 1.97221 on 104 procs for 171 steps with 288751 atoms

99.9% CPU use with 104 MPI tasks x 1 OpenMP threads

Minimization stats:
  Stopping criterion = energy tolerance
  Energy initial, next-to-last, final = 
     -1152448.85074186  -1152448.85236631  -1152448.85236631
  Force two-norm initial, final = 0.17852798 0.00023528875
  Force max component initial, final = 0.14714103 4.8834074e-05
  Final line search alpha, max atom move = 1.0000000 4.8834074e-05
  Iterations, force evaluations = 171 342

MPI task timing breakdown:
Section |  min time  |  avg time  |  max time  |%varavg| %total
---------------------------------------------------------------
Pair    | 0.51822    | 1.4389     | 1.87       |  32.4 | 72.96
Neigh   | 0          | 0          | 0          |   0.0 |  0.00
Comm    | 0.038854   | 0.32262    | 0.97429    |  48.1 | 16.36
Output  | 9.2885e-05 | 9.8918e-05 | 0.00022126 |   0.0 |  0.01
Modify  | 2.047e-05  | 0.0028146  | 0.0060134  |   2.5 |  0.14
Other   |            | 0.2077     |            |       | 10.53

Nlocal:        2776.45 ave        3956 max           0 min
Histogram: 8 4 4 0 4 12 8 0 30 34
Nghost:        3879.02 ave        5426 max         232 min
Histogram: 8 0 8 0 16 0 8 8 16 40
Neighs:        79213.6 ave      115349 max           0 min
Histogram: 8 4 4 0 10 6 8 8 24 32

Total # of neighbors = 8238215
Ave neighs/atom = 28.530516
Neighbor list builds = 0
Dangerous builds = 0
The dot product: 2.28043807642316e-07
Setting atom values ...
  1 settings made for x
  1 settings made for y
  1 settings made for z
Setting up cg style minimization ...
  Unit style    : metal
  Current step  : 6089
Per MPI rank memory allocation (min/avg/max) = 5.441 | 5.816 | 6.074 Mbytes
Step PotEng KinEng TotEng v_fx v_fy v_fz 
    6089   -1152448.8            0   -1152448.8 -0.0062393412 0.0019249066  0.007395643 
    6277   -1152448.8            0   -1152448.8 4.5452549e-05 -6.3803161e-06 -5.442049e-05 
Loop time of 2.16901 on 104 procs for 188 steps with 288751 atoms

99.9% CPU use with 104 MPI tasks x 1 OpenMP threads

Minimization stats:
  Stopping criterion = energy tolerance
  Energy initial, next-to-last, final = 
     -1152448.81410103  -1152448.81586063  -1152448.81586063
  Force two-norm initial, final = 0.17974092 0.00021537795
  Force max component initial, final = 0.14869631 5.4420490e-05
  Final line search alpha, max atom move = 1.0000000 5.4420490e-05
  Iterations, force evaluations = 188 376

MPI task timing breakdown:
Section |  min time  |  avg time  |  max time  |%varavg| %total
---------------------------------------------------------------
Pair    | 0.57032    | 1.5722     | 2.0542     |  33.8 | 72.48
Neigh   | 0          | 0          | 0          |   0.0 |  0.00
Comm    | 0.034182   | 0.3515     | 1.0586     |  50.1 | 16.21
Output  | 0          | 0          | 0          |   0.0 |  0.00
Modify  | 2.3244e-05 | 0.0030994  | 0.0066254  |   2.6 |  0.14
Other   |            | 0.2422     |            |       | 11.17

Nlocal:        2776.45 ave        3955 max           0 min
Histogram: 8 4 4 0 4 12 8 0 30 34
Nghost:        3879.02 ave        5426 max         232 min
Histogram: 8 0 8 0 16 0 8 8 16 40
Neighs:        79213.6 ave      115348 max           0 min
Histogram: 8 4 4 0 10 6 8 8 24 32

Total # of neighbors = 8238213
Ave neighs/atom = 28.530509
Neighbor list builds = 0
Dangerous builds = 0
The dot product: 2.23109193189014e-07
Setting atom values ...
  1 settings made for x
  1 settings made for y
  1 settings made for z
Setting up cg style minimization ...
  Unit style    : metal
  Current step  : 6277
Per MPI rank memory allocation (min/avg/max) = 5.441 | 5.816 | 6.074 Mbytes
Step PotEng KinEng TotEng v_fx v_fy v_fz 
    6277   -1152448.8            0   -1152448.8 -0.0083285766 0.0017338676 0.0098327619 
    6474   -1152448.8            0   -1152448.8 -2.9576637e-06 9.9180528e-07 3.4652039e-06 
Loop time of 2.27751 on 104 procs for 197 steps with 288751 atoms

99.9% CPU use with 104 MPI tasks x 1 OpenMP threads

Minimization stats:
  Stopping criterion = energy tolerance
  Energy initial, next-to-last, final = 
     -1152448.77675872  -1152448.77837638  -1152448.77837638
  Force two-norm initial, final = 0.18035414 0.00010120505
  Force max component initial, final = 0.14978394 1.1186009e-05
  Final line search alpha, max atom move = 1.0000000 1.1186009e-05
  Iterations, force evaluations = 197 394

MPI task timing breakdown:
Section |  min time  |  avg time  |  max time  |%varavg| %total
---------------------------------------------------------------
Pair    | 0.59747    | 1.6625     | 2.1534     |  34.8 | 73.00
Neigh   | 0          | 0          | 0          |   0.0 |  0.00
Comm    | 0.046987   | 0.37179    | 1.1327     |  51.9 | 16.32
Output  | 0          | 0          | 0          |   0.0 |  0.00
Modify  | 2.4181e-05 | 0.0032489  | 0.0070899  |   2.7 |  0.14
Other   |            | 0.24       |            |       | 10.54

Nlocal:        2776.45 ave        3956 max           0 min
Histogram: 8 4 4 0 4 12 8 0 30 34
Nghost:        3879.00 ave        5426 max         232 min
Histogram: 8 0 8 0 16 0 8 8 16 40
Neighs:        79213.6 ave      115347 max           0 min
Histogram: 8 4 4 0 10 6 8 8 24 32

Total # of neighbors = 8238215
Ave neighs/atom = 28.530516
Neighbor list builds = 0
Dangerous builds = 0
The dot product: -9.60653095236155e-09
Setting atom values ...
  1 settings made for x
  1 settings made for y
  1 settings made for z
Setting up cg style minimization ...
  Unit style    : metal
  Current step  : 6474
Per MPI rank memory allocation (min/avg/max) = 5.441 | 5.816 | 6.074 Mbytes
Step PotEng KinEng TotEng v_fx v_fy v_fz 
    6474   -1152448.7            0   -1152448.7 -0.011521295 0.0020535003  0.013539329 
    6650   -1152448.7            0   -1152448.7 2.4258557e-05 2.0749143e-07 -2.8829546e-05 
Loop time of 2.02756 on 104 procs for 176 steps with 288751 atoms

99.9% CPU use with 104 MPI tasks x 1 OpenMP threads

Minimization stats:
  Stopping criterion = energy tolerance
  Energy initial, next-to-last, final = 
     -1152448.73826539  -1152448.73991183  -1152448.73991183
  Force two-norm initial, final = 0.18132492 0.00021431673
  Force max component initial, final = 0.15114934 4.8684072e-05
  Final line search alpha, max atom move = 1.0000000 4.8684072e-05
  Iterations, force evaluations = 176 352

MPI task timing breakdown:
Section |  min time  |  avg time  |  max time  |%varavg| %total
---------------------------------------------------------------
Pair    | 0.5335     | 1.4748     | 1.9219     |  32.8 | 72.74
Neigh   | 0          | 0          | 0          |   0.0 |  0.00
Comm    | 0.030593   | 0.33175    | 1.0001     |  48.6 | 16.36
Output  | 0          | 0          | 0          |   0.0 |  0.00
Modify  | 2.151e-05  | 0.0029044  | 0.0061997  |   2.5 |  0.14
Other   |            | 0.2181     |            |       | 10.76

Nlocal:        2776.45 ave        3956 max           0 min
Histogram: 8 4 4 0 4 12 8 0 30 34
Nghost:        3878.96 ave        5425 max         232 min
Histogram: 8 0 8 0 16 0 8 8 16 40
Neighs:        79213.6 ave      115344 max           0 min
Histogram: 8 4 4 0 10 6 8 8 24 32

Total # of neighbors = 8238213
Ave neighs/atom = 28.530509
Neighbor list builds = 0
Dangerous builds = 0
The dot product: 4.32615480665784e-08
Setting atom values ...
  1 settings made for x
  1 settings made for y
  1 settings made for z
Setting up cg style minimization ...
  Unit style    : metal
  Current step  : 6650
Per MPI rank memory allocation (min/avg/max) = 5.441 | 5.816 | 6.074 Mbytes
Step PotEng KinEng TotEng v_fx v_fy v_fz 
    6650   -1152448.7            0   -1152448.7 -0.014251671 0.0027462692  0.016673382 
    6802   -1152448.7            0   -1152448.7 -3.3399922e-05 2.1900316e-06 3.9380411e-05 
Loop time of 1.75801 on 104 procs for 152 steps with 288751 atoms

99.9% CPU use with 104 MPI tasks x 1 OpenMP threads

Minimization stats:
  Stopping criterion = energy tolerance
  Energy initial, next-to-last, final = 
     -1152448.69894157  -1152448.70082665  -1152448.70082665
  Force two-norm initial, final = 0.18152174 0.00017761931
  Force max component initial, final = 0.15208429 3.9534049e-05
  Final line search alpha, max atom move = 1.0000000 3.9534049e-05
  Iterations, force evaluations = 152 304

MPI task timing breakdown:
Section |  min time  |  avg time  |  max time  |%varavg| %total
---------------------------------------------------------------
Pair    | 0.45945    | 1.2831     | 1.6607     |  30.6 | 72.98
Neigh   | 0          | 0          | 0          |   0.0 |  0.00
Comm    | 0.02695    | 0.2858     | 0.86821    |  45.6 | 16.26
Output  | 0          | 0          | 0          |   0.0 |  0.00
Modify  | 1.8744e-05 | 0.0025066  | 0.0053977  |   2.4 |  0.14
Other   |            | 0.1866     |            |       | 10.62

Nlocal:        2776.45 ave        3955 max           0 min
Histogram: 8 4 4 0 4 12 8 0 30 34
Nghost:        3878.97 ave        5425 max         232 min
Histogram: 8 0 8 0 16 0 8 8 16 40
Neighs:        79213.6 ave      115307 max           0 min
Histogram: 8 4 4 0 10 6 8 8 24 32

Total # of neighbors = 8238215
Ave neighs/atom = 28.530516
Neighbor list builds = 0
Dangerous builds = 0
The dot product: -3.08040590934101e-08
Setting atom values ...
  1 settings made for x
  1 settings made for y
  1 settings made for z
Setting up cg style minimization ...
  Unit style    : metal
  Current step  : 6802
Per MPI rank memory allocation (min/avg/max) = 5.441 | 5.816 | 6.074 Mbytes
Step PotEng KinEng TotEng v_fx v_fy v_fz 
    6802   -1152448.7            0   -1152448.7 -0.016354411 0.0032972162  0.019086002 
    6932   -1152448.7            0   -1152448.7 -5.2145101e-05 9.7091338e-06 6.0913718e-05 
Loop time of 1.50119 on 104 procs for 130 steps with 288751 atoms

99.9% CPU use with 104 MPI tasks x 1 OpenMP threads

Minimization stats:
  Stopping criterion = energy tolerance
  Energy initial, next-to-last, final = 
     -1152448.65948362  -1152448.66127453  -1152448.66127453
  Force two-norm initial, final = 0.18021956 0.00028133167
  Force max component initial, final = 0.15191173 7.3563957e-05
  Final line search alpha, max atom move = 1.0000000 7.3563957e-05
  Iterations, force evaluations = 130 260

MPI task timing breakdown:
Section |  min time  |  avg time  |  max time  |%varavg| %total
---------------------------------------------------------------
Pair    | 0.39351    | 1.0909     | 1.4226     |  28.3 | 72.67
Neigh   | 0          | 0          | 0          |   0.0 |  0.00
Comm    | 0.023175   | 0.24475    | 0.73572    |  41.8 | 16.30
Output  | 0          | 0          | 0          |   0.0 |  0.00
Modify  | 1.5672e-05 | 0.0021462  | 0.0045714  |   2.2 |  0.14
Other   |            | 0.1634     |            |       | 10.88

Nlocal:        2776.45 ave        3956 max           0 min
Histogram: 8 4 4 0 4 12 8 0 30 34
Nghost:        3878.92 ave        5425 max         232 min
Histogram: 8 0 8 0 16 0 8 8 16 40
Neighs:        79213.5 ave      115335 max           0 min
Histogram: 8 4 4 0 10 6 8 8 24 32

Total # of neighbors = 8238200
Ave neighs/atom = 28.530464
Neighbor list builds = 0
Dangerous builds = 0
The dot product: 3.71268600602135e-08
Setting atom values ...
  1 settings made for x
  1 settings made for y
  1 settings made for z
Setting up cg style minimization ...
  Unit style    : metal
  Current step  : 6932
Per MPI rank memory allocation (min/avg/max) = 5.441 | 5.816 | 6.074 Mbytes
Step PotEng KinEng TotEng v_fx v_fy v_fz 
    6932   -1152448.6            0   -1152448.6  -0.01925727 0.0037468601   0.02251266 
    7000   -1152448.6            0   -1152448.6 -0.0005616873 9.336017e-05 0.00065785069 
    7180   -1152448.6            0   -1152448.6 8.6081785e-06 -1.1930193e-06 -1.0100027e-05 
Loop time of 2.85942 on 104 procs for 248 steps with 288751 atoms

99.9% CPU use with 104 MPI tasks x 1 OpenMP threads

Minimization stats:
  Stopping criterion = energy tolerance
  Energy initial, next-to-last, final = 
     -1152448.61984805   -1152448.6219983   -1152448.6219983
  Force two-norm initial, final = 0.17918672 4.2381629e-05
  Force max component initial, final = 0.15127454 1.0100027e-05
  Final line search alpha, max atom move = 1.0000000 1.0100027e-05
  Iterations, force evaluations = 248 496

MPI task timing breakdown:
Section |  min time  |  avg time  |  max time  |%varavg| %total
---------------------------------------------------------------
Pair    | 0.74846    | 2.0858     | 2.7115     |  39.1 | 72.95
Neigh   | 0          | 0          | 0          |   0.0 |  0.00
Comm    | 0.044013   | 0.47159    | 1.4245     |  57.7 | 16.49
Output  | 9.1963e-05 | 0.0001021  | 0.0002225  |   0.0 |  0.00
Modify  | 3.0517e-05 | 0.0040847  | 0.0087393  |   3.0 |  0.14
Other   |            | 0.2978     |            |       | 10.42

Nlocal:        2776.45 ave        3955 max           0 min
Histogram: 8 4 4 0 4 12 8 0 30 34
Nghost:        3878.91 ave        5425 max         232 min
Histogram: 8 0 8 0 16 0 8 8 16 40
Neighs:        79213.5 ave      115295 max           0 min
Histogram: 8 4 4 0 10 6 8 8 24 32

Total # of neighbors = 8238201
Ave neighs/atom = 28.530467
Neighbor list builds = 0
Dangerous builds = 0
The dot product: -7.21523800144855e-09
Setting atom values ...
  1 settings made for x
  1 settings made for y
  1 settings made for z
Setting up cg style minimization ...
  Unit style    : metal
  Current step  : 7180
Per MPI rank memory allocation (min/avg/max) = 5.441 | 5.816 | 6.074 Mbytes
Step PotEng KinEng TotEng v_fx v_fy v_fz 
    7180   -1152448.6            0   -1152448.6 -0.021525479 0.00086273595  0.025461971 
    7490   -1152448.6            0   -1152448.6 1.8149289e-06 -2.1810378e-07 -2.1352977e-06 
Loop time of 3.59043 on 104 procs for 310 steps with 288751 atoms

99.9% CPU use with 104 MPI tasks x 1 OpenMP threads

Minimization stats:
  Stopping criterion = energy tolerance
  Energy initial, next-to-last, final = 
     -1152448.58160784  -1152448.58610968  -1152448.58610968
  Force two-norm initial, final = 0.17843677 1.7200843e-05
  Force max component initial, final = 0.14829132 2.1881383e-06
  Final line search alpha, max atom move = 1.0000000 2.1881383e-06
  Iterations, force evaluations = 310 620

MPI task timing breakdown:
Section |  min time  |  avg time  |  max time  |%varavg| %total
---------------------------------------------------------------
Pair    | 0.94264    | 2.599      | 3.3836     |  43.5 | 72.39
Neigh   | 1.0532e-05 | 0.0029641  | 0.0042701  |   2.2 |  0.08
Comm    | 0.057201   | 0.58332    | 1.7565     |  64.6 | 16.25
Output  | 0          | 0          | 0          |   0.0 |  0.00
Modify  | 3.7811e-05 | 0.0051047  | 0.01094    |   3.4 |  0.14
Other   |            | 0.4        |            |       | 11.14

Nlocal:        2776.45 ave        3956 max           0 min
Histogram: 8 4 4 0 4 12 8 0 30 34
Nghost:        3878.95 ave        5425 max         232 min
Histogram: 8 0 8 0 16 0 8 8 16 40
Neighs:        79213.4 ave      115316 max           0 min
Histogram: 8 4 4 0 10 6 8 8 24 32

Total # of neighbors = 8238195
Ave neighs/atom = 28.530447
Neighbor list builds = 1
Dangerous builds = 0
The dot product: 3.51777934857193e-08
Setting atom values ...
  1 settings made for x
  1 settings made for y
  1 settings made for z
Setting up cg style minimization ...
  Unit style    : metal
  Current step  : 7490
Per MPI rank memory allocation (min/avg/max) = 5.441 | 5.816 | 6.074 Mbytes
Step PotEng KinEng TotEng v_fx v_fy v_fz 
    7490   -1152448.6            0   -1152448.6 -0.011679224 -0.0012430167  0.013511821 
    7741   -1152448.6            0   -1152448.6 1.9287034e-06 -2.8814746e-07 -2.1897837e-06 
Loop time of 2.91225 on 104 procs for 251 steps with 288751 atoms

99.9% CPU use with 104 MPI tasks x 1 OpenMP threads

Minimization stats:
  Stopping criterion = energy tolerance
  Energy initial, next-to-last, final = 
     -1152448.55849316  -1152448.56159232  -1152448.56159232
  Force two-norm initial, final = 0.18440699 1.5958960e-05
  Force max component initial, final = 0.14846178 2.8230578e-06
  Final line search alpha, max atom move = 1.0000000 2.8230578e-06
  Iterations, force evaluations = 251 502

MPI task timing breakdown:
Section |  min time  |  avg time  |  max time  |%varavg| %total
---------------------------------------------------------------
Pair    | 0.76546    | 2.1152     | 2.7479     |  39.2 | 72.63
Neigh   | 0          | 0          | 0          |   0.0 |  0.00
Comm    | 0.050992   | 0.47664    | 1.4463     |  58.0 | 16.37
Output  | 0          | 0          | 0          |   0.0 |  0.00
Modify  | 3.0507e-05 | 0.0041217  | 0.0088656  |   3.0 |  0.14
Other   |            | 0.3163     |            |       | 10.86

Nlocal:        2776.45 ave        3956 max           0 min
Histogram: 8 4 4 0 4 12 8 0 30 34
Nghost:        3879.03 ave        5426 max         232 min
Histogram: 8 0 8 0 16 0 8 8 16 40
Neighs:        79213.4 ave      115331 max           0 min
Histogram: 8 4 4 0 10 6 8 8 24 32

Total # of neighbors = 8238198
Ave neighs/atom = 28.530457
Neighbor list builds = 0
Dangerous builds = 0
The dot product: 1.79642729557753e-08
Setting atom values ...
  1 settings made for x
  1 settings made for y
  1 settings made for z
Setting up cg style minimization ...
  Unit style    : metal
  Current step  : 7741
Per MPI rank memory allocation (min/avg/max) = 5.441 | 5.816 | 6.074 Mbytes
Step PotEng KinEng TotEng v_fx v_fy v_fz 
    7741   -1152448.5            0   -1152448.5 -0.024675201 0.0041726748  0.027530464 
    7957   -1152448.5            0   -1152448.5 1.2897999e-05 -1.1391889e-06 -1.4479877e-05 
[...]

Nlocal:        2776.45 ave        3960 max           0 min
Histogram: 8 4 4 0 4 12 8 2 28 34
Nghost:        3879.12 ave        5425 max         232 min
Histogram: 8 0 8 0 16 0 8 8 16 40
Neighs:        79213.4 ave      115415 max           0 min
Histogram: 8 4 4 0 10 6 8 8 24 32

Total # of neighbors = 8238195
Ave neighs/atom = 28.530447
Neighbor list builds = 0
Dangerous builds = 0
The dot product: -1.12715980684505e-07
Setting atom values ...
  1 settings made for x
  1 settings made for y
  1 settings made for z
Setting up cg style minimization ...
  Unit style    : metal
  Current step  : 23693
Per MPI rank memory allocation (min/avg/max) = 5.441 | 5.816 | 6.074 Mbytes
Step PotEng KinEng TotEng v_fx v_fy v_fz 
   23693   -1152449.2            0   -1152449.2  0.015396821   0.01247877 -0.025656369 
   23930   -1152449.2            0   -1152449.2 -5.2339149e-06 1.0657846e-07  3.53455e-06 
Loop time of 2.74875 on 104 procs for 237 steps with 288751 atoms

99.9% CPU use with 104 MPI tasks x 1 OpenMP threads

Minimization stats:
  Stopping criterion = energy tolerance
  Energy initial, next-to-last, final = 
     -1152449.24156333  -1152449.24298863  -1152449.24298863
  Force two-norm initial, final = 0.16853823 1.7255860e-05
  Force max component initial, final = 0.086108847 5.2339149e-06
  Final line search alpha, max atom move = 1.0000000 5.2339149e-06
  Iterations, force evaluations = 237 474

MPI task timing breakdown:
Section |  min time  |  avg time  |  max time  |%varavg| %total
---------------------------------------------------------------
Pair    | 0.71726    | 1.9848     | 2.6074     |  38.1 | 72.21
Neigh   | 0          | 0          | 0          |   0.0 |  0.00
Comm    | 0.041624   | 0.44945    | 1.3707     |  55.7 | 16.35
Output  | 0          | 0          | 0          |   0.0 |  0.00
Modify  | 2.8385e-05 | 0.0038986  | 0.0083581  |   3.0 |  0.14
Other   |            | 0.3106     |            |       | 11.30

Nlocal:        2776.45 ave        3960 max           0 min
Histogram: 8 4 4 0 4 12 8 2 28 34
Nghost:        3879.11 ave        5425 max         232 min
Histogram: 8 0 8 0 16 0 8 8 16 40
Neighs:        79213.4 ave      115422 max           0 min
Histogram: 8 4 4 0 10 6 8 8 24 32

Total # of neighbors = 8238194
Ave neighs/atom = 28.530443
Neighbor list builds = 0
Dangerous builds = 0
The dot product: -1.82569255749886e-08
Setting atom values ...
  1 settings made for x
  1 settings made for y
  1 settings made for z
Setting up cg style minimization ...
  Unit style    : metal
  Current step  : 23930
Per MPI rank memory allocation (min/avg/max) = 5.441 | 5.816 | 6.074 Mbytes
Step PotEng KinEng TotEng v_fx v_fy v_fz 
   23930   -1152449.2            0   -1152449.2  0.013540689  0.012438633  -0.02437286 
   24000   -1152449.3            0   -1152449.3 3.8546066e-05 4.6043029e-06 -3.2556667e-05 
   24113   -1152449.3            0   -1152449.3 4.9996716e-05 -4.1505132e-07 -3.459262e-05 
Loop time of 2.12128 on 104 procs for 183 steps with 288751 atoms

99.9% CPU use with 104 MPI tasks x 1 OpenMP threads

Minimization stats:
  Stopping criterion = energy tolerance
  Energy initial, next-to-last, final = 
     -1152449.24927454  -1152449.25069511  -1152449.25069511
  Force two-norm initial, final = 0.1680668 0.00014021533
  Force max component initial, final = 0.08467995 4.9996716e-05
  Final line search alpha, max atom move = 1.0000000 4.9996716e-05
  Iterations, force evaluations = 183 366

MPI task timing breakdown:
Section |  min time  |  avg time  |  max time  |%varavg| %total
---------------------------------------------------------------
Pair    | 0.55646    | 1.5333     | 2.0088     |  33.4 | 72.28
Neigh   | 0          | 0          | 0          |   0.0 |  0.00
Comm    | 0.031787   | 0.34743    | 1.063      |  49.3 | 16.38
Output  | 0.00012055 | 0.00012324 | 0.00025872 |   0.0 |  0.01
Modify  | 2.2047e-05 | 0.003013   | 0.006432   |   2.6 |  0.14
Other   |            | 0.2374     |            |       | 11.19

Nlocal:        2776.45 ave        3960 max           0 min
Histogram: 8 4 4 0 4 12 8 2 28 34
Nghost:        3879.12 ave        5425 max         232 min
Histogram: 8 0 8 0 16 0 8 8 16 40
Neighs:        79213.4 ave      115431 max           0 min
Histogram: 8 4 4 0 10 6 8 8 24 32

Total # of neighbors = 8238194
Ave neighs/atom = 28.530443
Neighbor list builds = 0
Dangerous builds = 0
The dot product: 1.38686232101008e-07
Setting atom values ...
  1 settings made for x
  1 settings made for y
  1 settings made for z
Setting up cg style minimization ...
  Unit style    : metal
  Current step  : 24113
Per MPI rank memory allocation (min/avg/max) = 5.441 | 5.816 | 6.074 Mbytes
Step PotEng KinEng TotEng v_fx v_fy v_fz 
   24113   -1152449.3            0   -1152449.3 0.0070934387  0.011987077 -0.019347635 
   24311   -1152449.3            0   -1152449.3 2.7422812e-05 2.3252243e-07 -1.9571818e-05 
Loop time of 2.31071 on 104 procs for 198 steps with 288751 atoms

99.9% CPU use with 104 MPI tasks x 1 OpenMP threads

Minimization stats:
  Stopping criterion = energy tolerance
  Energy initial, next-to-last, final = 
     -1152449.25546621   -1152449.2568961   -1152449.2568961
  Force two-norm initial, final = 0.16694611 9.9906783e-05
  Force max component initial, final = 0.08321714 2.7422812e-05
  Final line search alpha, max atom move = 1.0000000 2.7422812e-05
  Iterations, force evaluations = 198 396

MPI task timing breakdown:
Section |  min time  |  avg time  |  max time  |%varavg| %total
---------------------------------------------------------------
Pair    | 0.60001    | 1.6612     | 2.1795     |  34.9 | 71.89
Neigh   | 0          | 0          | 0          |   0.0 |  0.00
Comm    | 0.035314   | 0.38186    | 1.1509     |  50.6 | 16.53
Output  | 0          | 0          | 0          |   0.0 |  0.00
Modify  | 2.3498e-05 | 0.0032645  | 0.006978   |   2.7 |  0.14
Other   |            | 0.2644     |            |       | 11.44

Nlocal:        2776.45 ave        3961 max           0 min
Histogram: 8 4 4 0 6 10 8 2 28 34
Nghost:        3879.09 ave        5425 max         232 min
Histogram: 8 0 8 0 16 0 8 8 16 40
Neighs:        79213.4 ave      115445 max           0 min
Histogram: 8 4 4 0 10 6 8 8 24 32

Total # of neighbors = 8238193
Ave neighs/atom = 28.530440
Neighbor list builds = 0
Dangerous builds = 0
The dot product: 3.0102101945718e-08
Setting atom values ...
  1 settings made for x
  1 settings made for y
  1 settings made for z
Setting up cg style minimization ...
  Unit style    : metal
  Current step  : 24311
Per MPI rank memory allocation (min/avg/max) = 5.441 | 5.816 | 6.074 Mbytes
Step PotEng KinEng TotEng v_fx v_fy v_fz 
   24311   -1152449.3            0   -1152449.3 0.0047084961  0.011923148 -0.017612363 
   24506   -1152449.3            0   -1152449.3 2.8197513e-05 1.2818634e-07 -2.0010697e-05 
Loop time of 2.26125 on 104 procs for 195 steps with 288751 atoms

99.9% CPU use with 104 MPI tasks x 1 OpenMP threads

Minimization stats:
  Stopping criterion = energy tolerance
  Energy initial, next-to-last, final = 
     -1152449.26000194  -1152449.26145286  -1152449.26145286
  Force two-norm initial, final = 0.16685877 0.000107232
  Force max component initial, final = 0.08167211 2.8197513e-05
  Final line search alpha, max atom move = 1.0000000 2.8197513e-05
  Iterations, force evaluations = 195 390

MPI task timing breakdown:
Section |  min time  |  avg time  |  max time  |%varavg| %total
---------------------------------------------------------------
Pair    | 0.59101    | 1.6335     | 2.1388     |  34.5 | 72.24
Neigh   | 0          | 0          | 0          |   0.0 |  0.00
Comm    | 0.034046   | 0.37091    | 1.1272     |  50.7 | 16.40
Output  | 0          | 0          | 0          |   0.0 |  0.00
Modify  | 2.4228e-05 | 0.0032031  | 0.0068543  |   2.7 |  0.14
Other   |            | 0.2537     |            |       | 11.22

Nlocal:        2776.45 ave        3961 max           0 min
Histogram: 8 4 4 0 6 10 8 2 28 34
Nghost:        3879.01 ave        5424 max         232 min
Histogram: 8 0 8 0 16 0 8 8 16 40
Neighs:        79213.4 ave      115455 max           0 min
Histogram: 8 4 4 0 10 6 8 8 24 32

Total # of neighbors = 8238195
Ave neighs/atom = 28.530447
Neighbor list builds = 0
Dangerous builds = 0
The dot product: 1.54291133562027e-08
Setting atom values ...
  1 settings made for x
  1 settings made for y
  1 settings made for z
Setting up cg style minimization ...
  Unit style    : metal
  Current step  : 24506
Per MPI rank memory allocation (min/avg/max) = 5.441 | 5.816 | 6.074 Mbytes
Step PotEng KinEng TotEng v_fx v_fy v_fz 
   24506   -1152449.3            0   -1152449.3 0.0045030346  0.011995655 -0.017569408 
   24714   -1152449.3            0   -1152449.3 -7.431024e-06 -4.353564e-08 5.2876934e-06 
Loop time of 2.43913 on 104 procs for 208 steps with 288751 atoms

99.9% CPU use with 104 MPI tasks x 1 OpenMP threads

Minimization stats:
  Stopping criterion = energy tolerance
  Energy initial, next-to-last, final = 
     -1152449.26289405  -1152449.26435114  -1152449.26435114
  Force two-norm initial, final = 0.16674036 6.6953749e-05
  Force max component initial, final = 0.080110649 7.4310240e-06
  Final line search alpha, max atom move = 1.0000000 7.4310240e-06
  Iterations, force evaluations = 208 416

MPI task timing breakdown:
Section |  min time  |  avg time  |  max time  |%varavg| %total
---------------------------------------------------------------
Pair    | 0.63096    | 1.7452     | 2.2843     |  35.8 | 71.55
Neigh   | 0          | 0          | 0          |   0.0 |  0.00
Comm    | 0.037656   | 0.404      | 1.198      |  51.1 | 16.56
Output  | 0          | 0          | 0          |   0.0 |  0.00
Modify  | 2.4733e-05 | 0.0034286  | 0.0073212  |   2.8 |  0.14
Other   |            | 0.2865     |            |       | 11.75

Nlocal:        2776.45 ave        3961 max           0 min
Histogram: 8 4 4 0 6 10 8 2 28 34
Nghost:        3879.01 ave        5424 max         232 min
Histogram: 8 0 8 0 16 0 8 8 16 40
Neighs:        79213.4 ave      115455 max           0 min
Histogram: 8 4 4 0 10 6 8 8 24 32

Total # of neighbors = 8238196
Ave neighs/atom = 28.530450
Neighbor list builds = 0
Dangerous builds = 0
The dot product: -4.17578256808247e-09
Setting atom values ...
  1 settings made for x
  1 settings made for y
  1 settings made for z
Setting up cg style minimization ...
  Unit style    : metal
  Current step  : 24714
Per MPI rank memory allocation (min/avg/max) = 5.441 | 5.816 | 6.074 Mbytes
Step PotEng KinEng TotEng v_fx v_fy v_fz 
   24714   -1152449.3            0   -1152449.3 0.0042606466  0.012024368 -0.017448876 
   24920   -1152449.3            0   -1152449.3 1.0390677e-05 -7.4230696e-08 -7.2349109e-06 
Loop time of 2.38081 on 104 procs for 206 steps with 288751 atoms

99.9% CPU use with 104 MPI tasks x 1 OpenMP threads

Minimization stats:
  Stopping criterion = energy tolerance
  Energy initial, next-to-last, final = 
     -1152449.26413938  -1152449.26560525  -1152449.26560525
  Force two-norm initial, final = 0.16661264 7.0280730e-05
  Force max component initial, final = 0.078525483 1.0390677e-05
  Final line search alpha, max atom move = 1.0000000 1.0390677e-05
  Iterations, force evaluations = 206 412

MPI task timing breakdown:
Section |  min time  |  avg time  |  max time  |%varavg| %total
---------------------------------------------------------------
Pair    | 0.62494    | 1.723      | 2.258      |  35.4 | 72.37
Neigh   | 0          | 0          | 0          |   0.0 |  0.00
Comm    | 0.0359     | 0.3887     | 1.178      |  52.3 | 16.33
Output  | 0          | 0          | 0          |   0.0 |  0.00
Modify  | 2.6177e-05 | 0.0033873  | 0.0072634  |   2.8 |  0.14
Other   |            | 0.2658     |            |       | 11.16

Nlocal:        2776.45 ave        3961 max           0 min
Histogram: 8 4 4 0 6 10 8 2 28 34
Nghost:        3879.01 ave        5424 max         232 min
Histogram: 8 0 8 0 16 0 8 8 16 40
Neighs:        79213.4 ave      115455 max           0 min
Histogram: 8 4 4 0 10 6 8 8 24 32

Total # of neighbors = 8238191
Ave neighs/atom = 28.530433
Neighbor list builds = 0
Dangerous builds = 0
The dot product: 5.68503825710493e-09
Setting atom values ...
  1 settings made for x
  1 settings made for y
  1 settings made for z
Setting up cg style minimization ...
  Unit style    : metal
  Current step  : 24920
Per MPI rank memory allocation (min/avg/max) = 5.441 | 5.816 | 6.074 Mbytes
Step PotEng KinEng TotEng v_fx v_fy v_fz 
   24920   -1152449.3            0   -1152449.3 0.0040982957  0.012023061 -0.017349985 
   25000   -1152449.3            0   -1152449.3 2.153597e-05 8.6566272e-06 -2.5598467e-05 
   25119   -1152449.3            0   -1152449.3 3.7236123e-05 -7.0408761e-09 -2.6250784e-05 
Loop time of 2.32036 on 104 procs for 199 steps with 288751 atoms

99.9% CPU use with 104 MPI tasks x 1 OpenMP threads

Minimization stats:
  Stopping criterion = energy tolerance
  Energy initial, next-to-last, final = 
     -1152449.26375953  -1152449.26522701  -1152449.26522701
  Force two-norm initial, final = 0.16649434 0.00010512243
  Force max component initial, final = 0.076950808 3.7236123e-05
  Final line search alpha, max atom move = 1.0000000 3.7236123e-05
  Iterations, force evaluations = 199 398

MPI task timing breakdown:
Section |  min time  |  avg time  |  max time  |%varavg| %total
---------------------------------------------------------------
Pair    | 0.60753    | 1.6713     | 2.1921     |  34.9 | 72.03
Neigh   | 0          | 0          | 0          |   0.0 |  0.00
Comm    | 0.038923   | 0.38536    | 1.1676     |  50.4 | 16.61
Output  | 0.00015283 | 0.00016345 | 0.00031236 |   0.0 |  0.01
Modify  | 2.3844e-05 | 0.0032746  | 0.0069567  |   2.7 |  0.14
Other   |            | 0.2602     |            |       | 11.22

Nlocal:        2776.45 ave        3961 max           0 min
Histogram: 8 4 4 0 6 10 8 2 28 34
Nghost:        3879.01 ave        5424 max         232 min
Histogram: 8 0 8 0 16 0 8 8 16 40
Neighs:        79213.4 ave      115455 max           0 min
Histogram: 8 4 4 0 10 6 8 8 24 32

Total # of neighbors = 8238190
Ave neighs/atom = 28.530429
Neighbor list builds = 0
Dangerous builds = 0
The dot product: 2.07763257824775e-08
Setting atom values ...
  1 settings made for x
  1 settings made for y
  1 settings made for z
Setting up cg style minimization ...
  Unit style    : metal
  Current step  : 25119
Per MPI rank memory allocation (min/avg/max) = 5.441 | 5.816 | 6.074 Mbytes
Step PotEng KinEng TotEng v_fx v_fy v_fz 
   25119   -1152449.3            0   -1152449.3 0.0039570774   0.01201453 -0.017257987 
   25363   -1152449.3            0   -1152449.3 1.1568237e-06 2.0449546e-07 -1.0624109e-06 
Loop time of 2.81872 on 104 procs for 244 steps with 288751 atoms

99.9% CPU use with 104 MPI tasks x 1 OpenMP threads

Minimization stats:
  Stopping criterion = energy tolerance
  Energy initial, next-to-last, final = 
     -1152449.26175164  -1152449.26321796  -1152449.26321796
  Force two-norm initial, final = 0.16638809 1.3754687e-05
  Force max component initial, final = 0.078320057 3.2699702e-06
  Final line search alpha, max atom move = 1.0000000 3.2699702e-06
  Iterations, force evaluations = 244 488

MPI task timing breakdown:
Section |  min time  |  avg time  |  max time  |%varavg| %total
---------------------------------------------------------------
Pair    | 0.74127    | 2.0399     | 2.67       |  38.5 | 72.37
Neigh   | 0          | 0          | 0          |   0.0 |  0.00
Comm    | 0.04307    | 0.45882    | 1.3854     |  56.8 | 16.28
Output  | 0          | 0          | 0          |   0.0 |  0.00
Modify  | 2.9436e-05 | 0.0040072  | 0.0085542  |   3.0 |  0.14
Other   |            | 0.316      |            |       | 11.21

Nlocal:        2776.45 ave        3960 max           0 min
Histogram: 8 4 4 0 4 12 8 2 28 34
Nghost:        3879.03 ave        5424 max         232 min
Histogram: 8 0 8 0 16 0 8 8 16 40
Neighs:        79213.3 ave      115425 max           0 min
Histogram: 8 4 4 0 10 6 8 8 24 32

Total # of neighbors = 8238186
Ave neighs/atom = 28.530415
Neighbor list builds = 0
Dangerous builds = 0
The dot product: 1.13628919174423e-09
Setting atom values ...
  1 settings made for x
  1 settings made for y
  1 settings made for z
Setting up cg style minimization ...
  Unit style    : metal
  Current step  : 25363
Per MPI rank memory allocation (min/avg/max) = 5.441 | 5.816 | 6.074 Mbytes
Step PotEng KinEng TotEng v_fx v_fy v_fz 
   25363   -1152449.3            0   -1152449.3 0.0037657442  0.011997978 -0.017121496 
   25628   -1152449.3            0   -1152449.3 -5.0907535e-08 -4.9524339e-09 4.1904247e-08 
Loop time of 3.08799 on 104 procs for 265 steps with 288751 atoms

99.9% CPU use with 104 MPI tasks x 1 OpenMP threads

Minimization stats:
  Stopping criterion = energy tolerance
  Energy initial, next-to-last, final = 
     -1152449.25811794  -1152449.25958428  -1152449.25958428
  Force two-norm initial, final = 0.16628323 4.9857640e-06
  Force max component initial, final = 0.079718324 2.5600220e-07
  Final line search alpha, max atom move = 1.0000000 2.5600220e-07
  Iterations, force evaluations = 265 530

MPI task timing breakdown:
Section |  min time  |  avg time  |  max time  |%varavg| %total
---------------------------------------------------------------
Pair    | 0.8066     | 2.2204     | 2.9283     |  40.3 | 71.90
Neigh   | 0          | 0          | 0          |   0.0 |  0.00
Comm    | 0.050494   | 0.5099     | 1.5649     |  58.4 | 16.51
Output  | 0          | 0          | 0          |   0.0 |  0.00
Modify  | 3.1212e-05 | 0.0043556  | 0.0092585  |   3.1 |  0.14
Other   |            | 0.3533     |            |       | 11.44

Nlocal:        2776.45 ave        3960 max           0 min
Histogram: 8 4 4 0 4 12 8 2 28 34
Nghost:        3879.05 ave        5426 max         232 min
Histogram: 8 0 8 0 16 0 8 8 16 40
Neighs:        79213.3 ave      115425 max           0 min
Histogram: 8 4 4 0 10 6 8 8 24 32

Total # of neighbors = 8238187
Ave neighs/atom = 28.530419
Neighbor list builds = 0
Dangerous builds = 0
The dot product: -4.12617585326692e-11
Setting up cg style minimization ...
  Unit style    : metal
  Current step  : 25628
Per MPI rank memory allocation (min/avg/max) = 5.441 | 5.816 | 6.074 Mbytes
Step PotEng KinEng TotEng v_fx v_fy v_fz 
   25628   -1152449.3            0   -1152449.3 -0.091291481  -0.15590706   -0.1293315 
   25849   -1152449.3            0   -1152449.3 -4.6004196e-06 1.393402e-06 9.9708301e-06 
Loop time of 2.56845 on 104 procs for 221 steps with 288751 atoms

99.9% CPU use with 104 MPI tasks x 1 OpenMP threads

Minimization stats:
  Stopping criterion = energy tolerance
  Energy initial, next-to-last, final = 
     -1152449.25958428  -1152449.26566398  -1152449.26566398
  Force two-norm initial, final = 0.22218862 9.7542551e-05
  Force max component initial, final = 0.15590706 9.9708301e-06
  Final line search alpha, max atom move = 1.0000000 9.9708301e-06
  Iterations, force evaluations = 221 442

MPI task timing breakdown:
Section |  min time  |  avg time  |  max time  |%varavg| %total
---------------------------------------------------------------
Pair    | 0.67211    | 1.8482     | 2.4322     |  36.7 | 71.96
Neigh   | 0          | 0          | 0          |   0.0 |  0.00
Comm    | 0.042194   | 0.41781    | 1.2575     |  53.9 | 16.27
Output  | 0          | 0          | 0          |   0.0 |  0.00
Modify  | 2.4524e-05 | 0.0023628  | 0.006066   |   3.1 |  0.09
Other   |            | 0.3001     |            |       | 11.68

Nlocal:        2776.45 ave        3960 max           0 min
Histogram: 8 4 4 0 4 12 8 2 28 34
Nghost:        3879.06 ave        5427 max         232 min
Histogram: 8 0 8 0 16 0 8 8 16 40
Neighs:        79213.3 ave      115425 max           0 min
Histogram: 8 4 4 0 10 6 8 8 24 32

Total # of neighbors = 8238186
Ave neighs/atom = 28.530415
Neighbor list builds = 0
Dangerous builds = 0
