LAMMPS (29 Oct 2020)
OMP_NUM_THREADS environment is not set. Defaulting to 1 thread. (../comm.cpp:94)
  using 1 OpenMP thread(s) per MPI task
OMP_NUM_THREADS environment is not set. Defaulting to 1 thread. (../comm.cpp:94)
  using 1 OpenMP thread(s) per MPI task
Reading data file ...
  orthogonal box = (-122.39241 -121.13707 -37.090501) to (122.39241 121.13707 37.090501)
  13 by 4 by 2 MPI processor grid
  reading atoms ...
  288751 atoms
  read_data CPU = 0.404 seconds
199981 atoms in group inner
88770 atoms in group outer
1 atoms in group carbon
Neighbor list info ...
  update every 1 steps, delay 0 steps, check yes
  max neighbors/atom: 2000, page size: 100000
  master list distance cutoff = 5.6
  ghost atom cutoff = 5.6
  binsize = 2.8, bins = 88 87 27
  1 neighbor lists, perpetual/occasional/extra = 1 0 0
  (1) pair eam/alloy, perpetual
      attributes: half, newton on
      pair build: half/bin/atomonly/newton
      stencil: half/bin/3d/newton
      bin: standard
Setting up cg style minimization ...
  Unit style    : metal
  Current step  : 0
Per MPI rank memory allocation (min/avg/max) = 5.441 | 5.816 | 6.074 Mbytes
Step v_fx v_fy v_fz PotEng KinEng TotEng 
       0     1.643031  -0.70396719   -2.4272953   -1152447.8            0   -1152447.8 
     157 -6.753281e-06 -3.3204689e-06 -4.5353527e-05   -1152449.5            0   -1152449.5 
Loop time of 1.84834 on 104 procs for 157 steps with 288751 atoms

99.8% CPU use with 104 MPI tasks x 1 OpenMP threads

Minimization stats:
  Stopping criterion = energy tolerance
  Energy initial, next-to-last, final = 
     -1152447.79484972  -1152449.45035285  -1152449.45035285
  Force two-norm initial, final = 10.053917 0.00016035261
  Force max component initial, final = 6.0948800 4.5353527e-05
  Final line search alpha, max atom move = 1.0000000 4.5353527e-05
  Iterations, force evaluations = 157 313

MPI task timing breakdown:
Section |  min time  |  avg time  |  max time  |%varavg| %total
---------------------------------------------------------------
Pair    | 0.50376    | 1.325      | 1.709      |  30.1 | 71.69
Neigh   | 3.1595e-05 | 0.0088526  | 0.012763   |   3.9 |  0.48
Comm    | 0.029741   | 0.30451    | 0.9081     |  45.1 | 16.47
Output  | 0          | 0          | 0          |   0.0 |  0.00
Modify  | 1.8747e-05 | 0.001694   | 0.0043395  |   2.6 |  0.09
Other   |            | 0.2083     |            |       | 11.27

Nlocal:        2776.45 ave        3958 max           0 min
Histogram: 8 4 4 0 4 12 8 2 28 34
Nghost:        3879.03 ave        5424 max         232 min
Histogram: 8 0 8 0 16 0 8 8 16 40
Neighs:        79213.5 ave      115399 max           0 min
Histogram: 8 4 4 0 10 6 8 8 24 32

Total # of neighbors = 8238206
Ave neighs/atom = 28.530485
Neighbor list builds = 3
Dangerous builds = 0
Setting atom values ...
  1 settings made for x
  1 settings made for y
  1 settings made for z
Setting up cg style minimization ...
  Unit style    : metal
  Current step  : 157
Per MPI rank memory allocation (min/avg/max) = 5.441 | 5.816 | 6.074 Mbytes
Step PotEng KinEng TotEng v_fx v_fy v_fz 
     157   -1152449.4            0   -1152449.4  0.012419939 -0.016216733 -0.020809186 
     267   -1152449.5            0   -1152449.5 2.1725721e-05 -2.3195361e-05 -1.9887946e-05 
Loop time of 1.27601 on 104 procs for 110 steps with 288751 atoms

99.9% CPU use with 104 MPI tasks x 1 OpenMP threads

Minimization stats:
  Stopping criterion = energy tolerance
  Energy initial, next-to-last, final = 
     -1152449.44947021  -1152449.45002037  -1152449.45002037
  Force two-norm initial, final = 0.10822589 0.00022154649
  Force max component initial, final = 0.047642727 4.3665189e-05
  Final line search alpha, max atom move = 1.0000000 4.3665189e-05
  Iterations, force evaluations = 110 220

MPI task timing breakdown:
Section |  min time  |  avg time  |  max time  |%varavg| %total
---------------------------------------------------------------
Pair    | 0.33485    | 0.93109    | 1.2008     |  26.0 | 72.97
Neigh   | 0          | 0          | 0          |   0.0 |  0.00
Comm    | 0.018947   | 0.21093    | 0.634      |  38.6 | 16.53
Output  | 0          | 0          | 0          |   0.0 |  0.00
Modify  | 1.4326e-05 | 0.001824   | 0.0039019  |   2.0 |  0.14
Other   |            | 0.1322     |            |       | 10.36

Nlocal:        2776.45 ave        3959 max           0 min
Histogram: 8 4 4 0 4 12 8 2 28 34
Nghost:        3879.03 ave        5424 max         232 min
Histogram: 8 0 8 0 16 0 8 8 16 40
Neighs:        79213.4 ave      115420 max           0 min
Histogram: 8 4 4 0 10 6 8 8 24 32

Total # of neighbors = 8238197
Ave neighs/atom = 28.530454
Neighbor list builds = 0
Dangerous builds = 0
Setting atom values ...
  1 settings made for x
  1 settings made for y
  1 settings made for z
Setting up cg style minimization ...
  Unit style    : metal
  Current step  : 267
Per MPI rank memory allocation (min/avg/max) = 5.441 | 5.816 | 6.074 Mbytes
Step PotEng KinEng TotEng v_fx v_fy v_fz 
     267   -1152449.4            0   -1152449.4  0.021688813  -0.02325813 -0.033914752 
     400   -1152449.4            0   -1152449.4 1.0287374e-05 5.138896e-06 6.4295224e-05 
Loop time of 1.53838 on 104 procs for 133 steps with 288751 atoms

99.9% CPU use with 104 MPI tasks x 1 OpenMP threads

Minimization stats:
  Stopping criterion = energy tolerance
  Energy initial, next-to-last, final = 
     -1152449.44665768  -1152449.44808501  -1152449.44808501
  Force two-norm initial, final = 0.17474942 0.00017283549
  Force max component initial, final = 0.079520033 6.4295224e-05
  Final line search alpha, max atom move = 1.0000000 6.4295224e-05
  Iterations, force evaluations = 133 266

MPI task timing breakdown:
Section |  min time  |  avg time  |  max time  |%varavg| %total
---------------------------------------------------------------
Pair    | 0.40272    | 1.1165     | 1.4528     |  28.6 | 72.58
Neigh   | 0          | 0          | 0          |   0.0 |  0.00
Comm    | 0.024339   | 0.25287    | 0.76809    |  42.1 | 16.44
Output  | 0          | 0          | 0          |   0.0 |  0.00
Modify  | 1.6775e-05 | 0.0022028  | 0.0047208  |   2.2 |  0.14
Other   |            | 0.1668     |            |       | 10.84

Nlocal:        2776.45 ave        3959 max           0 min
Histogram: 8 4 4 0 4 12 8 2 28 34
Nghost:        3879.03 ave        5424 max         232 min
Histogram: 8 0 8 0 16 0 8 8 16 40
Neighs:        79213.5 ave      115419 max           0 min
Histogram: 8 4 4 0 10 6 8 8 24 32

Total # of neighbors = 8238199
Ave neighs/atom = 28.530461
Neighbor list builds = 0
Dangerous builds = 0
The dot product: -1.5889892209831e-07
Setting atom values ...
  1 settings made for x
  1 settings made for y
  1 settings made for z
Setting up cg style minimization ...
  Unit style    : metal
  Current step  : 400
Per MPI rank memory allocation (min/avg/max) = 5.441 | 5.816 | 6.074 Mbytes
Step PotEng KinEng TotEng v_fx v_fy v_fz 
     400   -1152449.4            0   -1152449.4  0.021034169 -0.019018471 -0.031830534 
     515   -1152449.4            0   -1152449.4 9.3227272e-06 -2.1107822e-06 4.6998772e-05 
Loop time of 1.34247 on 104 procs for 115 steps with 288751 atoms

99.9% CPU use with 104 MPI tasks x 1 OpenMP threads

Minimization stats:
  Stopping criterion = energy tolerance
  Energy initial, next-to-last, final = 
     -1152449.44328053  -1152449.44466056  -1152449.44466056
  Force two-norm initial, final = 0.17147515 0.00016605038
  Force max component initial, final = 0.079135511 4.6998772e-05
  Final line search alpha, max atom move = 1.0000000 4.6998772e-05
  Iterations, force evaluations = 115 230

MPI task timing breakdown:
Section |  min time  |  avg time  |  max time  |%varavg| %total
---------------------------------------------------------------
Pair    | 0.35167    | 0.97373    | 1.2595     |  26.6 | 72.53
Neigh   | 0          | 0          | 0          |   0.0 |  0.00
Comm    | 0.021731   | 0.22166    | 0.66288    |  39.3 | 16.51
Output  | 0          | 0          | 0          |   0.0 |  0.00
Modify  | 1.505e-05  | 0.0019083  | 0.0040836  |   2.1 |  0.14
Other   |            | 0.1452     |            |       | 10.81

Nlocal:        2776.45 ave        3957 max           0 min
Histogram: 8 4 4 0 4 12 8 2 28 34
Nghost:        3879.03 ave        5424 max         232 min
Histogram: 8 0 8 0 16 0 8 8 16 40
Neighs:        79213.5 ave      115348 max           0 min
Histogram: 8 4 4 0 10 6 8 8 24 32

Total # of neighbors = 8238199
Ave neighs/atom = 28.530461
Neighbor list builds = 0
Dangerous builds = 0
The dot product: -1.62895847128721e-07
Setting atom values ...
  1 settings made for x
  1 settings made for y
  1 settings made for z
Setting up cg style minimization ...
  Unit style    : metal
  Current step  : 515
Per MPI rank memory allocation (min/avg/max) = 5.441 | 5.816 | 6.074 Mbytes
Step PotEng KinEng TotEng v_fx v_fy v_fz 
     515   -1152449.4            0   -1152449.4  0.019613932  -0.01557646 -0.026089941 
     686   -1152449.4            0   -1152449.4 -1.9904486e-05 1.6035903e-05 3.6358489e-05 
Loop time of 1.97392 on 104 procs for 171 steps with 288751 atoms

99.9% CPU use with 104 MPI tasks x 1 OpenMP threads

Minimization stats:
  Stopping criterion = energy tolerance
  Energy initial, next-to-last, final = 
      -1152449.4385466  -1152449.43991022  -1152449.43991022
  Force two-norm initial, final = 0.16883224 0.00013852112
  Force max component initial, final = 0.077225263 3.6358489e-05
  Final line search alpha, max atom move = 1.0000000 3.6358489e-05
  Iterations, force evaluations = 171 342

MPI task timing breakdown:
Section |  min time  |  avg time  |  max time  |%varavg| %total
---------------------------------------------------------------
Pair    | 0.51838    | 1.4323     | 1.8596     |  32.3 | 72.56
Neigh   | 0          | 0          | 0          |   0.0 |  0.00
Comm    | 0.035719   | 0.3242     | 0.9923     |  47.7 | 16.42
Output  | 0          | 0          | 0          |   0.0 |  0.00
Modify  | 2.1252e-05 | 0.0028213  | 0.006014   |   2.5 |  0.14
Other   |            | 0.2147     |            |       | 10.87

Nlocal:        2776.45 ave        3956 max           0 min
Histogram: 8 4 4 0 4 12 8 0 30 34
Nghost:        3879.03 ave        5424 max         232 min
Histogram: 8 0 8 0 16 0 8 8 16 40
Neighs:        79213.5 ave      115318 max           0 min
Histogram: 8 4 4 0 10 6 8 8 24 32

Total # of neighbors = 8238201
Ave neighs/atom = 28.530467
Neighbor list builds = 0
Dangerous builds = 0
The dot product: -8.89958440472322e-08
Setting atom values ...
  1 settings made for x
  1 settings made for y
  1 settings made for z
Setting up cg style minimization ...
  Unit style    : metal
  Current step  : 686
Per MPI rank memory allocation (min/avg/max) = 5.441 | 5.816 | 6.074 Mbytes
Step PotEng KinEng TotEng v_fx v_fy v_fz 
     686   -1152449.4            0   -1152449.4  0.017852001 -0.013459661 -0.019372084 
     825   -1152449.4            0   -1152449.4 -7.1264289e-06 4.6421921e-06 2.7665215e-05 
Loop time of 1.5968 on 104 procs for 139 steps with 288751 atoms

99.9% CPU use with 104 MPI tasks x 1 OpenMP threads

Minimization stats:
  Stopping criterion = energy tolerance
  Energy initial, next-to-last, final = 
     -1152449.43244244   -1152449.4337981   -1152449.4337981
  Force two-norm initial, final = 0.16726831 0.00017722568
  Force max component initial, final = 0.074587743 2.7665215e-05
  Final line search alpha, max atom move = 1.0000000 2.7665215e-05
  Iterations, force evaluations = 139 278

MPI task timing breakdown:
Section |  min time  |  avg time  |  max time  |%varavg| %total
---------------------------------------------------------------
Pair    | 0.42268    | 1.1711     | 1.51       |  29.2 | 73.34
Neigh   | 0          | 0          | 0          |   0.0 |  0.00
Comm    | 0.024364   | 0.26243    | 0.79922    |  43.6 | 16.43
Output  | 0          | 0          | 0          |   0.0 |  0.00
Modify  | 1.814e-05  | 0.0023035  | 0.005022   |   2.3 |  0.14
Other   |            | 0.1609     |            |       | 10.08

Nlocal:        2776.45 ave        3955 max           0 min
Histogram: 8 4 4 0 4 12 8 0 30 34
Nghost:        3879.03 ave        5424 max         232 min
Histogram: 8 0 8 0 16 0 8 8 16 40
Neighs:        79213.5 ave      115281 max           0 min
Histogram: 8 4 4 0 10 6 8 8 24 32

Total # of neighbors = 8238202
Ave neighs/atom = 28.530471
Neighbor list builds = 0
Dangerous builds = 0
The dot product: -6.54811695173286e-08
Setting atom values ...
  1 settings made for x
  1 settings made for y
  1 settings made for z
Setting up cg style minimization ...
  Unit style    : metal
  Current step  : 825
Per MPI rank memory allocation (min/avg/max) = 5.441 | 5.816 | 6.074 Mbytes
Step PotEng KinEng TotEng v_fx v_fy v_fz 
     825   -1152449.4            0   -1152449.4  0.016145897 -0.012362917 -0.013284472 
     945   -1152449.4            0   -1152449.4 3.6037025e-05 -2.3198413e-05 -8.4815237e-05 
Loop time of 1.39475 on 104 procs for 120 steps with 288751 atoms

99.9% CPU use with 104 MPI tasks x 1 OpenMP threads

Minimization stats:
  Stopping criterion = energy tolerance
  Energy initial, next-to-last, final = 
     -1152449.42492766   -1152449.4262841   -1152449.4262841
  Force two-norm initial, final = 0.16673712 0.00028386296
  Force max component initial, final = 0.074403354 8.4815237e-05
  Final line search alpha, max atom move = 1.0000000 8.4815237e-05
  Iterations, force evaluations = 120 240

MPI task timing breakdown:
Section |  min time  |  avg time  |  max time  |%varavg| %total
---------------------------------------------------------------
Pair    | 0.36402    | 1.0069     | 1.3095     |  27.1 | 72.19
Neigh   | 0          | 0          | 0          |   0.0 |  0.00
Comm    | 0.021033   | 0.22825    | 0.6898     |  39.9 | 16.37
Output  | 0          | 0          | 0          |   0.0 |  0.00
Modify  | 1.4998e-05 | 0.0019851  | 0.004249   |   2.1 |  0.14
Other   |            | 0.1576     |            |       | 11.30

Nlocal:        2776.45 ave        3955 max           0 min
Histogram: 8 4 4 0 4 12 8 0 30 34
Nghost:        3879.03 ave        5424 max         232 min
Histogram: 8 0 8 0 16 0 8 8 16 40
Neighs:        79213.5 ave      115280 max           0 min
Histogram: 8 4 4 0 10 6 8 8 24 32

Total # of neighbors = 8238201
Ave neighs/atom = 28.530467
Neighbor list builds = 0
Dangerous builds = 0
The dot product: 1.00541922502279e-07
Setting atom values ...
  1 settings made for x
  1 settings made for y
  1 settings made for z
Setting up cg style minimization ...
  Unit style    : metal
  Current step  : 945
Per MPI rank memory allocation (min/avg/max) = 5.441 | 5.816 | 6.074 Mbytes
Step PotEng KinEng TotEng v_fx v_fy v_fz 
     945   -1152449.4            0   -1152449.4  0.014788563 -0.011942122 -0.0085687295 
    1000   -1152449.4            0   -1152449.4 -5.4240319e-05 6.3279826e-05 -0.00014418685 
    1103   -1152449.4            0   -1152449.4 -1.0603972e-06 -6.2681165e-06 6.4843648e-05 
Loop time of 1.83132 on 104 procs for 158 steps with 288751 atoms

99.9% CPU use with 104 MPI tasks x 1 OpenMP threads

Minimization stats:
  Stopping criterion = energy tolerance
  Energy initial, next-to-last, final = 
     -1152449.41597344   -1152449.4173375   -1152449.4173375
  Force two-norm initial, final = 0.16682777 0.00024855369
  Force max component initial, final = 0.074689526 6.4843648e-05
  Final line search alpha, max atom move = 1.0000000 6.4843648e-05
  Iterations, force evaluations = 158 316

MPI task timing breakdown:
Section |  min time  |  avg time  |  max time  |%varavg| %total
---------------------------------------------------------------
Pair    | 0.48234    | 1.3327     | 1.7147     |  30.8 | 72.77
Neigh   | 0          | 0          | 0          |   0.0 |  0.00
Comm    | 0.030051   | 0.29809    | 0.91804    |  46.8 | 16.28
Output  | 0.00013841 | 0.00014669 | 0.0002441  |   0.0 |  0.01
Modify  | 1.9725e-05 | 0.0026128  | 0.0055764  |   2.4 |  0.14
Other   |            | 0.1978     |            |       | 10.80

Nlocal:        2776.45 ave        3953 max           0 min
Histogram: 8 4 4 0 4 12 8 1 29 34
Nghost:        3879.03 ave        5424 max         232 min
Histogram: 8 0 8 0 16 0 8 8 16 40
Neighs:        79213.5 ave      115213 max           0 min
Histogram: 8 4 4 0 10 6 8 8 24 32

Total # of neighbors = 8238203
Ave neighs/atom = 28.530474
Neighbor list builds = 0
Dangerous builds = 0
The dot product: -1.4754323315419e-07
Setting atom values ...
  1 settings made for x
  1 settings made for y
  1 settings made for z
Setting up cg style minimization ...
  Unit style    : metal
  Current step  : 1103
Per MPI rank memory allocation (min/avg/max) = 5.441 | 5.816 | 6.074 Mbytes
Step PotEng KinEng TotEng v_fx v_fy v_fz 
    1103   -1152449.4            0   -1152449.4  0.013923773 -0.012031209 -0.0049734491 
    1241   -1152449.4            0   -1152449.4 -2.3283552e-05 1.9269282e-05 1.4612572e-05 
Loop time of 1.61311 on 104 procs for 138 steps with 288751 atoms

99.9% CPU use with 104 MPI tasks x 1 OpenMP threads

Minimization stats:
  Stopping criterion = energy tolerance
  Energy initial, next-to-last, final = 
     -1152449.40556021  -1152449.40693206  -1152449.40693206
  Force two-norm initial, final = 0.16714565 0.00019655503
  Force max component initial, final = 0.074695057 2.9645280e-05
  Final line search alpha, max atom move = 1.0000000 2.9645280e-05
  Iterations, force evaluations = 138 276

MPI task timing breakdown:
Section |  min time  |  avg time  |  max time  |%varavg| %total
---------------------------------------------------------------
Pair    | 0.43194    | 1.1626     | 1.5017     |  28.7 | 72.07
Neigh   | 0          | 0          | 0          |   0.0 |  0.00
Comm    | 0.034011   | 0.26326    | 0.80362    |  43.0 | 16.32
Output  | 0          | 0          | 0          |   0.0 |  0.00
Modify  | 1.7575e-05 | 0.002283   | 0.0048824  |   2.3 |  0.14
Other   |            | 0.185      |            |       | 11.47

Nlocal:        2776.45 ave        3947 max           0 min
Histogram: 8 4 4 0 4 12 8 1 27 36
Nghost:        3879.03 ave        5424 max         232 min
Histogram: 8 0 8 0 16 0 8 8 16 40
Neighs:        79213.5 ave      115028 max           0 min
Histogram: 8 4 4 0 10 6 8 8 24 32

Total # of neighbors = 8238201
Ave neighs/atom = 28.530467
Neighbor list builds = 0
Dangerous builds = 0
The dot product: 6.56784636112729e-08
Setting atom values ...
  1 settings made for x
  1 settings made for y
  1 settings made for z
Setting up cg style minimization ...
  Unit style    : metal
  Current step  : 1241
Per MPI rank memory allocation (min/avg/max) = 5.441 | 5.816 | 6.074 Mbytes
Step PotEng KinEng TotEng v_fx v_fy v_fz 
    1241   -1152449.4            0   -1152449.4  0.013846743 -0.012782573 -0.0023927502 
    1374   -1152449.4            0   -1152449.4 7.6120864e-06 -1.044795e-05 2.0939182e-05 
Loop time of 1.55042 on 104 procs for 133 steps with 288751 atoms

99.9% CPU use with 104 MPI tasks x 1 OpenMP threads

Minimization stats:
  Stopping criterion = energy tolerance
  Energy initial, next-to-last, final = 
     -1152449.39366658  -1152449.39504487  -1152449.39504487
  Force two-norm initial, final = 0.16754092 0.00023584965
  Force max component initial, final = 0.074505469 3.1130322e-05
  Final line search alpha, max atom move = 1.0000000 3.1130322e-05
  Iterations, force evaluations = 133 266

MPI task timing breakdown:
Section |  min time  |  avg time  |  max time  |%varavg| %total
---------------------------------------------------------------
Pair    | 0.40406    | 1.123      | 1.4542     |  28.5 | 72.43
Neigh   | 0          | 0          | 0          |   0.0 |  0.00
Comm    | 0.023299   | 0.25266    | 0.76605    |  42.6 | 16.30
Output  | 0          | 0          | 0          |   0.0 |  0.00
Modify  | 1.6544e-05 | 0.0021963  | 0.0046894  |   2.2 |  0.14
Other   |            | 0.1725     |            |       | 11.13

Nlocal:        2776.45 ave        3945 max           0 min
Histogram: 8 4 4 0 4 12 8 2 26 36
Nghost:        3879.03 ave        5424 max         232 min
Histogram: 8 0 8 0 16 0 8 8 16 40
Neighs:        79213.5 ave      114973 max           0 min
Histogram: 8 4 4 0 10 6 8 8 24 32

Total # of neighbors = 8238202
Ave neighs/atom = 28.530471
Neighbor list builds = 0
Dangerous builds = 0
The dot product: -6.97129152974436e-08
Setting atom values ...
  1 settings made for x
  1 settings made for y
  1 settings made for z
Setting up cg style minimization ...
  Unit style    : metal
  Current step  : 1374
Per MPI rank memory allocation (min/avg/max) = 5.441 | 5.816 | 6.074 Mbytes
Step PotEng KinEng TotEng v_fx v_fy v_fz 
    1374   -1152449.4            0   -1152449.4  0.014544819 -0.014177697 -0.00061660281 
    1548   -1152449.4            0   -1152449.4 5.0275074e-06 -3.6411765e-06 -7.6556163e-06 
Loop time of 2.00705 on 104 procs for 174 steps with 288751 atoms

99.9% CPU use with 104 MPI tasks x 1 OpenMP threads

Minimization stats:
  Stopping criterion = energy tolerance
  Energy initial, next-to-last, final = 
     -1152449.38027291  -1152449.38165668  -1152449.38165668
  Force two-norm initial, final = 0.16799176 0.00017644101
  Force max component initial, final = 0.074308149 3.3723608e-05
  Final line search alpha, max atom move = 1.0000000 3.3723608e-05
  Iterations, force evaluations = 174 348

MPI task timing breakdown:
Section |  min time  |  avg time  |  max time  |%varavg| %total
---------------------------------------------------------------
Pair    | 0.52793    | 1.4621     | 1.8944     |  32.7 | 72.85
Neigh   | 0          | 0          | 0          |   0.0 |  0.00
Comm    | 0.035184   | 0.33222    | 1.0211     |  48.5 | 16.55
Output  | 0          | 0          | 0          |   0.0 |  0.00
Modify  | 2.1741e-05 | 0.0028821  | 0.0061961  |   2.5 |  0.14
Other   |            | 0.2099     |            |       | 10.46

Nlocal:        2776.45 ave        3944 max           0 min
Histogram: 8 4 4 0 4 12 8 2 26 36
Nghost:        3879.03 ave        5424 max         232 min
Histogram: 8 0 8 0 16 0 8 8 16 40
Neighs:        79213.5 ave      114932 max           0 min
Histogram: 8 4 4 0 10 6 8 8 22 34

Total # of neighbors = 8238203
Ave neighs/atom = 28.530474
Neighbor list builds = 0
Dangerous builds = 0
The dot product: -3.42494620030811e-09
Setting atom values ...
  1 settings made for x
  1 settings made for y
  1 settings made for z
Setting up cg style minimization ...
  Unit style    : metal
  Current step  : 1548
Per MPI rank memory allocation (min/avg/max) = 5.441 | 5.816 | 6.074 Mbytes
Step PotEng KinEng TotEng v_fx v_fy v_fz 
    1548   -1152449.4            0   -1152449.4  0.015587398 -0.015765229 0.00028677148 
    1682   -1152449.4            0   -1152449.4 1.2133982e-05 -1.4095828e-05 1.0184896e-05 
Loop time of 1.54882 on 104 procs for 134 steps with 288751 atoms

99.9% CPU use with 104 MPI tasks x 1 OpenMP threads

Minimization stats:
  Stopping criterion = energy tolerance
  Energy initial, next-to-last, final = 
     -1152449.36536217  -1152449.36675041  -1152449.36675041
  Force two-norm initial, final = 0.16839594 0.00019999316
  Force max component initial, final = 0.074329984 4.8437193e-05
  Final line search alpha, max atom move = 1.0000000 4.8437193e-05
  Iterations, force evaluations = 134 268

MPI task timing breakdown:
Section |  min time  |  avg time  |  max time  |%varavg| %total
---------------------------------------------------------------
Pair    | 0.40595    | 1.1309     | 1.46       |  28.8 | 73.02
Neigh   | 0          | 0          | 0          |   0.0 |  0.00
Comm    | 0.022476   | 0.2574     | 0.77312    |  42.3 | 16.62
Output  | 0          | 0          | 0          |   0.0 |  0.00
Modify  | 1.7002e-05 | 0.0022204  | 0.0047566  |   2.2 |  0.14
Other   |            | 0.1583     |            |       | 10.22

Nlocal:        2776.45 ave        3942 max           0 min
Histogram: 8 4 4 0 4 12 8 2 26 36
Nghost:        3879.03 ave        5424 max         232 min
Histogram: 8 0 8 0 16 0 8 8 16 40
Neighs:        79213.5 ave      114851 max           0 min
Histogram: 8 4 4 0 10 6 8 8 22 34

Total # of neighbors = 8238204
Ave neighs/atom = 28.530478
Neighbor list builds = 0
Dangerous builds = 0
The dot product: -5.71050748228879e-08
Setting atom values ...
  1 settings made for x
  1 settings made for y
  1 settings made for z
Setting up cg style minimization ...
  Unit style    : metal
  Current step  : 1682
Per MPI rank memory allocation (min/avg/max) = 5.441 | 5.816 | 6.074 Mbytes
Step PotEng KinEng TotEng v_fx v_fy v_fz 
    1682   -1152449.3            0   -1152449.3  0.016258946 -0.016860706 0.00064288877 
    1832   -1152449.4            0   -1152449.4 -6.3283573e-06 -1.6247353e-06 4.1534673e-05 
Loop time of 1.71532 on 104 procs for 150 steps with 288751 atoms

99.9% CPU use with 104 MPI tasks x 1 OpenMP threads

Minimization stats:
  Stopping criterion = energy tolerance
  Energy initial, next-to-last, final = 
     -1152449.34891123  -1152449.35030424  -1152449.35030424
  Force two-norm initial, final = 0.16866231 0.00025921204
  Force max component initial, final = 0.07440615 4.9304737e-05
  Final line search alpha, max atom move = 1.0000000 4.9304737e-05
  Iterations, force evaluations = 150 300

MPI task timing breakdown:
Section |  min time  |  avg time  |  max time  |%varavg| %total
---------------------------------------------------------------
Pair    | 0.45476    | 1.2559     | 1.6235     |  30.2 | 73.22
Neigh   | 0          | 0          | 0          |   0.0 |  0.00
Comm    | 0.026147   | 0.28182    | 0.86251    |  45.1 | 16.43
Output  | 0          | 0          | 0          |   0.0 |  0.00
Modify  | 1.8633e-05 | 0.0024781  | 0.0053343  |   2.4 |  0.14
Other   |            | 0.1751     |            |       | 10.21

Nlocal:        2776.45 ave        3939 max           0 min
Histogram: 8 4 4 0 4 12 8 2 26 36
Nghost:        3879.03 ave        5424 max         232 min
Histogram: 8 0 8 0 16 0 8 8 16 40
Neighs:        79213.5 ave      114767 max           0 min
Histogram: 8 4 4 0 10 6 8 8 22 34

Total # of neighbors = 8238204
Ave neighs/atom = 28.530478
Neighbor list builds = 0
Dangerous builds = 0
The dot product: -7.3215327402548e-08
Setting atom values ...
  1 settings made for x
  1 settings made for y
  1 settings made for z
Setting up cg style minimization ...
  Unit style    : metal
  Current step  : 1832
Per MPI rank memory allocation (min/avg/max) = 5.441 | 5.816 | 6.074 Mbytes
Step PotEng KinEng TotEng v_fx v_fy v_fz 
    1832   -1152449.3            0   -1152449.3  0.016125329 -0.016883955 -0.00010760507 
    1994   -1152449.3            0   -1152449.3 -5.6658879e-06 -2.8634469e-06 4.1932629e-05 
Loop time of 1.86346 on 104 procs for 162 steps with 288751 atoms

99.9% CPU use with 104 MPI tasks x 1 OpenMP threads

Minimization stats:
  Stopping criterion = energy tolerance
  Energy initial, next-to-last, final = 
     -1152449.33089314  -1152449.33230535  -1152449.33230535
  Force two-norm initial, final = 0.16876233 0.00025597191
  Force max component initial, final = 0.074509076 5.4456135e-05
  Final line search alpha, max atom move = 1.0000000 5.4456135e-05
  Iterations, force evaluations = 162 324

MPI task timing breakdown:
Section |  min time  |  avg time  |  max time  |%varavg| %total
---------------------------------------------------------------
Pair    | 0.49175    | 1.3647     | 1.7556     |  31.4 | 73.24
Neigh   | 0          | 0          | 0          |   0.0 |  0.00
Comm    | 0.0319     | 0.30637    | 0.93499    |  47.2 | 16.44
Output  | 0          | 0          | 0          |   0.0 |  0.00
Modify  | 2.0265e-05 | 0.0026794  | 0.0057719  |   2.4 |  0.14
Other   |            | 0.1897     |            |       | 10.18

Nlocal:        2776.45 ave        3936 max           0 min
Histogram: 8 4 4 0 4 12 8 0 28 36
Nghost:        3879.03 ave        5424 max         232 min
Histogram: 8 0 8 0 16 0 8 8 16 40
Neighs:        79213.5 ave      114696 max           0 min
Histogram: 8 4 4 0 8 8 8 8 22 34

Total # of neighbors = 8238202
Ave neighs/atom = 28.530471
Neighbor list builds = 0
Dangerous builds = 0
The dot product: -1.22964387286749e-07
Setting atom values ...
  1 settings made for x
  1 settings made for y
  1 settings made for z
Setting up cg style minimization ...
  Unit style    : metal
  Current step  : 1994
Per MPI rank memory allocation (min/avg/max) = 5.441 | 5.816 | 6.074 Mbytes
Step PotEng KinEng TotEng v_fx v_fy v_fz 
    1994   -1152449.3            0   -1152449.3  0.013822973 -0.013839705 -0.0042973234 
    2000   -1152449.3            0   -1152449.3 -0.001615804 0.00037566505 0.0058915953 
    2174   -1152449.3            0   -1152449.3 -1.9924339e-05 8.1023172e-06 5.7592818e-05 
Loop time of 2.06001 on 104 procs for 180 steps with 288751 atoms

99.9% CPU use with 104 MPI tasks x 1 OpenMP threads

Minimization stats:
  Stopping criterion = energy tolerance
  Energy initial, next-to-last, final = 
     -1152449.31130524  -1152449.31287445  -1152449.31287445
  Force two-norm initial, final = 0.16867304 0.00020507158
  Force max component initial, final = 0.07434239 5.7592818e-05
  Final line search alpha, max atom move = 1.0000000 5.7592818e-05
  Iterations, force evaluations = 180 360

MPI task timing breakdown:
Section |  min time  |  avg time  |  max time  |%varavg| %total
---------------------------------------------------------------
Pair    | 0.54609    | 1.5075     | 1.9513     |  33.1 | 73.18
Neigh   | 0          | 0          | 0          |   0.0 |  0.00
Comm    | 0.031137   | 0.3394     | 1.0329     |  49.3 | 16.48
Output  | 9.422e-05  | 0.00010109 | 0.00015874 |   0.0 |  0.00
Modify  | 2.2258e-05 | 0.0029745  | 0.0063887  |   2.6 |  0.14
Other   |            | 0.21       |            |       | 10.19

Nlocal:        2776.45 ave        3933 max           0 min
Histogram: 8 4 4 0 4 12 8 0 26 38
Nghost:        3879.03 ave        5424 max         232 min
Histogram: 8 0 8 0 16 0 8 8 16 40
Neighs:        79213.4 ave      114564 max           0 min
Histogram: 8 4 4 0 8 8 8 8 20 36

Total # of neighbors = 8238196
Ave neighs/atom = 28.530450
Neighbor list builds = 0
Dangerous builds = 0
The dot product: -3.33936154581352e-07
Setting atom values ...
  1 settings made for x
  1 settings made for y
  1 settings made for z
Setting up cg style minimization ...
  Unit style    : metal
  Current step  : 2174
Per MPI rank memory allocation (min/avg/max) = 5.441 | 5.816 | 6.074 Mbytes
Step PotEng KinEng TotEng v_fx v_fy v_fz 
    2174   -1152449.3            0   -1152449.3 -0.0020016521  0.010283976 -0.027631868 
    2362   -1152449.3            0   -1152449.3 -3.1634905e-06 6.6513636e-06 -1.0455035e-05 
Loop time of 2.14152 on 104 procs for 188 steps with 288751 atoms

99.9% CPU use with 104 MPI tasks x 1 OpenMP threads

Minimization stats:
  Stopping criterion = energy tolerance
  Energy initial, next-to-last, final = 
     -1152449.29039598  -1152449.29272215  -1152449.29272215
  Force two-norm initial, final = 0.17089602 0.0001716475
  Force max component initial, final = 0.07203023 2.8850559e-05
  Final line search alpha, max atom move = 1.0000000 2.8850559e-05
  Iterations, force evaluations = 188 376

MPI task timing breakdown:
Section |  min time  |  avg time  |  max time  |%varavg| %total
---------------------------------------------------------------
Pair    | 0.56758    | 1.5783     | 2.0297     |  33.9 | 73.70
Neigh   | 0          | 0          | 0          |   0.0 |  0.00
Comm    | 0.032493   | 0.35145    | 1.0787     |  51.3 | 16.41
Output  | 0          | 0          | 0          |   0.0 |  0.00
Modify  | 2.3675e-05 | 0.003109   | 0.0067101  |   2.6 |  0.15
Other   |            | 0.2087     |            |       |  9.74

Nlocal:        2776.45 ave        3930 max           0 min
Histogram: 8 4 4 0 4 12 8 0 26 38
Nghost:        3879.07 ave        5424 max         232 min
Histogram: 8 0 8 0 16 0 8 8 16 40
Neighs:        79213.5 ave      114454 max           0 min
Histogram: 8 4 4 0 8 8 8 8 20 36

Total # of neighbors = 8238199
Ave neighs/atom = 28.530461
Neighbor list builds = 0
Dangerous builds = 0
The dot product: 3.32529900687431e-07
Setting atom values ...
  1 settings made for x
  1 settings made for y
  1 settings made for z
Setting up cg style minimization ...
  Unit style    : metal
  Current step  : 2362
Per MPI rank memory allocation (min/avg/max) = 5.441 | 5.816 | 6.074 Mbytes
Step PotEng KinEng TotEng v_fx v_fy v_fz 
    2362   -1152449.3            0   -1152449.3 -0.025365071   0.05855409 -0.059056231 
    2743   -1152449.3            0   -1152449.3 -1.4889181e-08 1.071709e-08 2.1913834e-08 
Loop time of 4.37831 on 104 procs for 381 steps with 288751 atoms

99.9% CPU use with 104 MPI tasks x 1 OpenMP threads

Minimization stats:
  Stopping criterion = energy tolerance
  Energy initial, next-to-last, final = 
     -1152449.26909846   -1152449.2726187   -1152449.2726187
  Force two-norm initial, final = 0.1907521 2.8081703e-07
  Force max component initial, final = 0.078980034 4.8969589e-08
  Final line search alpha, max atom move = 1.0000000 4.8969589e-08
  Iterations, force evaluations = 381 762

MPI task timing breakdown:
Section |  min time  |  avg time  |  max time  |%varavg| %total
---------------------------------------------------------------
Pair    | 1.1543     | 3.1882     | 4.1368     |  48.0 | 72.82
Neigh   | 0          | 0          | 0          |   0.0 |  0.00
Comm    | 0.063581   | 0.71779    | 2.1871     |  71.6 | 16.39
Output  | 0          | 0          | 0          |   0.0 |  0.00
Modify  | 4.748e-05  | 0.0062752  | 0.01338    |   3.7 |  0.14
Other   |            | 0.466      |            |       | 10.64

Nlocal:        2776.45 ave        3929 max           0 min
Histogram: 8 4 4 0 4 12 8 0 26 38
Nghost:        3879.14 ave        5425 max         232 min
Histogram: 8 0 8 0 16 0 8 8 16 40
Neighs:        79213.4 ave      114446 max           0 min
Histogram: 8 4 4 0 8 8 8 8 20 36

Total # of neighbors = 8238195
Ave neighs/atom = 28.530447
Neighbor list builds = 0
Dangerous builds = 0
The dot product: 5.38858265370277e-11
Setting up cg style minimization ...
  Unit style    : metal
  Current step  : 2743
Per MPI rank memory allocation (min/avg/max) = 5.441 | 5.816 | 6.074 Mbytes
Step PotEng KinEng TotEng v_fx v_fy v_fz 
    2743   -1152449.3            0   -1152449.3   0.87166804   0.65288815   0.27294918 
    2993   -1152449.5            0   -1152449.5 -1.1402646e-05 -5.5805591e-07 1.712453e-05 
Loop time of 2.88682 on 104 procs for 250 steps with 288751 atoms

99.9% CPU use with 104 MPI tasks x 1 OpenMP threads

Minimization stats:
  Stopping criterion = energy tolerance
  Energy initial, next-to-last, final = 
      -1152449.2726187  -1152449.45035284  -1152449.45035284
  Force two-norm initial, final = 1.1227508 0.00014690363
  Force max component initial, final = 0.87166804 1.8373259e-05
  Final line search alpha, max atom move = 1.0000000 1.8373259e-05
  Iterations, force evaluations = 250 500

MPI task timing breakdown:
Section |  min time  |  avg time  |  max time  |%varavg| %total
---------------------------------------------------------------
Pair    | 0.76468    | 2.109      | 2.7224     |  39.0 | 73.06
Neigh   | 1.9927e-05 | 0.0059216  | 0.0085474  |   3.2 |  0.21
Comm    | 0.044969   | 0.4746     | 1.4368     |  58.3 | 16.44
Output  | 0          | 0          | 0          |   0.0 |  0.00
Modify  | 2.6706e-05 | 0.0026937  | 0.0069742  |   3.3 |  0.09
Other   |            | 0.2946     |            |       | 10.20

Nlocal:        2776.45 ave        3937 max           0 min
Histogram: 8 4 4 0 4 12 8 0 28 36
Nghost:        3879.14 ave        5425 max         232 min
Histogram: 8 0 8 0 16 0 8 8 16 40
Neighs:        79213.4 ave      114666 max           0 min
Histogram: 8 4 4 0 8 8 8 8 22 34

Total # of neighbors = 8238198
Ave neighs/atom = 28.530457
Neighbor list builds = 2
Dangerous builds = 0
OMP_NUM_THREADS environment is not set. Defaulting to 1 thread. (../comm.cpp:94)
  using 1 OpenMP thread(s) per MPI task
Reading data file ...
  orthogonal box = (-122.39241 -121.13707 -37.090501) to (122.39241 121.13707 37.090501)
  13 by 4 by 2 MPI processor grid
  reading atoms ...
  288751 atoms
  read_data CPU = 0.341 seconds
199981 atoms in group inner
88770 atoms in group outer
1 atoms in group carbon
Neighbor list info ...
  update every 1 steps, delay 0 steps, check yes
  max neighbors/atom: 2000, page size: 100000
  master list distance cutoff = 5.6
  ghost atom cutoff = 5.6
  binsize = 2.8, bins = 88 87 27
  1 neighbor lists, perpetual/occasional/extra = 1 0 0
  (1) pair eam/alloy, perpetual
      attributes: half, newton on
      pair build: half/bin/atomonly/newton
      stencil: half/bin/3d/newton
      bin: standard
Setting up cg style minimization ...
  Unit style    : metal
  Current step  : 0
Per MPI rank memory allocation (min/avg/max) = 5.441 | 5.816 | 6.074 Mbytes
Step v_fx v_fy v_fz PotEng KinEng TotEng 
       0     1.643031  -0.70396719   -2.4272953   -1152447.8            0   -1152447.8 
     157 -6.753281e-06 -3.3204689e-06 -4.5353527e-05   -1152449.5            0   -1152449.5 
Loop time of 1.82814 on 104 procs for 157 steps with 288751 atoms

99.9% CPU use with 104 MPI tasks x 1 OpenMP threads

Minimization stats:
  Stopping criterion = energy tolerance
  Energy initial, next-to-last, final = 
     -1152447.79484972  -1152449.45035285  -1152449.45035285
  Force two-norm initial, final = 10.053917 0.00016035261
  Force max component initial, final = 6.0948800 4.5353527e-05
  Final line search alpha, max atom move = 1.0000000 4.5353527e-05
  Iterations, force evaluations = 157 313

MPI task timing breakdown:
Section |  min time  |  avg time  |  max time  |%varavg| %total
---------------------------------------------------------------
Pair    | 0.48638    | 1.32       | 1.7142     |  30.7 | 72.21
Neigh   | 3.0381e-05 | 0.0088666  | 0.012777   |   3.9 |  0.49
Comm    | 0.032699   | 0.29988    | 0.90573    |  45.5 | 16.40
Output  | 0          | 0          | 0          |   0.0 |  0.00
Modify  | 1.8068e-05 | 0.0016856  | 0.0043503  |   2.6 |  0.09
Other   |            | 0.1977     |            |       | 10.81

Nlocal:        2776.45 ave        3958 max           0 min
Histogram: 8 4 4 0 4 12 8 2 28 34
Nghost:        3879.03 ave        5424 max         232 min
Histogram: 8 0 8 0 16 0 8 8 16 40
Neighs:        79213.5 ave      115399 max           0 min
Histogram: 8 4 4 0 10 6 8 8 24 32

Total # of neighbors = 8238206
Ave neighs/atom = 28.530485
Neighbor list builds = 3
Dangerous builds = 0
Setting atom values ...
  1 settings made for x
  1 settings made for y
  1 settings made for z
Setting up cg style minimization ...
  Unit style    : metal
  Current step  : 157
Per MPI rank memory allocation (min/avg/max) = 5.441 | 5.816 | 6.074 Mbytes
Step PotEng KinEng TotEng v_fx v_fy v_fz 
     157   -1152449.4            0   -1152449.4 -0.022291289 -0.023447906  0.013249665 
     345   -1152449.4            0   -1152449.4 1.1783333e-07 1.5739985e-07 3.6939234e-06 
Loop time of 2.17783 on 104 procs for 188 steps with 288751 atoms

99.9% CPU use with 104 MPI tasks x 1 OpenMP threads

Minimization stats:
  Stopping criterion = energy tolerance
  Energy initial, next-to-last, final = 
     -1152449.44782075    -1152449.449508    -1152449.449508
  Force two-norm initial, final = 0.19139896 1.1292044e-05
  Force max component initial, final = 0.075982238 3.6939234e-06
  Final line search alpha, max atom move = 1.0000000 3.6939234e-06
  Iterations, force evaluations = 188 376

MPI task timing breakdown:
Section |  min time  |  avg time  |  max time  |%varavg| %total
---------------------------------------------------------------
Pair    | 0.56995    | 1.5762     | 2.0561     |  33.8 | 72.38
Neigh   | 0          | 0          | 0          |   0.0 |  0.00
Comm    | 0.040921   | 0.35355    | 1.088      |  50.1 | 16.23
Output  | 0          | 0          | 0          |   0.0 |  0.00
Modify  | 2.3529e-05 | 0.0031015  | 0.0065984  |   2.6 |  0.14
Other   |            | 0.245      |            |       | 11.25

Nlocal:        2776.45 ave        3959 max           0 min
Histogram: 8 4 4 0 4 12 8 2 28 34
Nghost:        3879.03 ave        5424 max         232 min
Histogram: 8 0 8 0 16 0 8 8 16 40
Neighs:        79213.4 ave      115420 max           0 min
Histogram: 8 4 4 0 10 6 8 8 24 32

Total # of neighbors = 8238198
Ave neighs/atom = 28.530457
Neighbor list builds = 0
Dangerous builds = 0
Setting atom values ...
  1 settings made for x
  1 settings made for y
  1 settings made for z
Setting up cg style minimization ...
  Unit style    : metal
  Current step  : 345
Per MPI rank memory allocation (min/avg/max) = 5.441 | 5.816 | 6.074 Mbytes
Step PotEng KinEng TotEng v_fx v_fy v_fz 
     345   -1152449.4            0   -1152449.4 -0.021222709 -0.022425731  0.013679121 
     475   -1152449.4            0   -1152449.4 -1.9325965e-06 -2.3492956e-06 3.0037163e-05 
Loop time of 1.53165 on 104 procs for 130 steps with 288751 atoms

99.9% CPU use with 104 MPI tasks x 1 OpenMP threads

Minimization stats:
  Stopping criterion = energy tolerance
  Energy initial, next-to-last, final = 
     -1152449.44581039   -1152449.4472507   -1152449.4472507
  Force two-norm initial, final = 0.17699495 8.6545029e-05
  Force max component initial, final = 0.069424367 3.0037163e-05
  Final line search alpha, max atom move = 1.0000000 3.0037163e-05
  Iterations, force evaluations = 130 260

MPI task timing breakdown:
Section |  min time  |  avg time  |  max time  |%varavg| %total
---------------------------------------------------------------
Pair    | 0.39576    | 1.097      | 1.4378     |  28.4 | 71.62
Neigh   | 0          | 0          | 0          |   0.0 |  0.00
Comm    | 0.022974   | 0.24834    | 0.74545    |  41.2 | 16.21
Output  | 0          | 0          | 0          |   0.0 |  0.00
Modify  | 1.6185e-05 | 0.0021529  | 0.0046063  |   2.2 |  0.14
Other   |            | 0.1842     |            |       | 12.03

Nlocal:        2776.45 ave        3959 max           0 min
Histogram: 8 4 4 0 4 12 8 2 28 34
Nghost:        3879.03 ave        5424 max         232 min
Histogram: 8 0 8 0 16 0 8 8 16 40
Neighs:        79213.5 ave      115420 max           0 min
Histogram: 8 4 4 0 10 6 8 8 24 32

Total # of neighbors = 8238201
Ave neighs/atom = 28.530467
Neighbor list builds = 0
Dangerous builds = 0
The dot product: -8.81238317076793e-09
Setting atom values ...
  1 settings made for x
  1 settings made for y
  1 settings made for z
Setting up cg style minimization ...
  Unit style    : metal
  Current step  : 475
Per MPI rank memory allocation (min/avg/max) = 5.441 | 5.816 | 6.074 Mbytes
Step PotEng KinEng TotEng v_fx v_fy v_fz 
     475   -1152449.4            0   -1152449.4 -0.022133887  -0.02336521  0.015537372 
     604   -1152449.4            0   -1152449.4 -9.5615778e-06 -9.4665046e-06 -2.2548524e-05 
Loop time of 1.49524 on 104 procs for 129 steps with 288751 atoms

99.9% CPU use with 104 MPI tasks x 1 OpenMP threads

Minimization stats:
  Stopping criterion = energy tolerance
  Energy initial, next-to-last, final = 
     -1152449.44209084  -1152449.44352849  -1152449.44352849
  Force two-norm initial, final = 0.17690538 9.4898550e-05
  Force max component initial, final = 0.068552141 2.2548524e-05
  Final line search alpha, max atom move = 1.0000000 2.2548524e-05
  Iterations, force evaluations = 129 258

MPI task timing breakdown:
Section |  min time  |  avg time  |  max time  |%varavg| %total
---------------------------------------------------------------
Pair    | 0.39234    | 1.0827     | 1.4133     |  28.0 | 72.41
Neigh   | 0          | 0          | 0          |   0.0 |  0.00
Comm    | 0.027797   | 0.24152    | 0.74106    |  41.6 | 16.15
Output  | 0          | 0          | 0          |   0.0 |  0.00
Modify  | 1.5687e-05 | 0.0021276  | 0.0045363  |   2.2 |  0.14
Other   |            | 0.1688     |            |       | 11.29

Nlocal:        2776.45 ave        3958 max           0 min
Histogram: 8 4 4 0 4 12 8 2 28 34
Nghost:        3879.03 ave        5424 max         232 min
Histogram: 8 0 8 0 16 0 8 8 16 40
Neighs:        79213.5 ave      115385 max           0 min
Histogram: 8 4 4 0 10 6 8 8 24 32

Total # of neighbors = 8238201
Ave neighs/atom = 28.530467
Neighbor list builds = 0
Dangerous builds = 0
The dot product: 9.75640231333225e-09
Setting atom values ...
  1 settings made for x
  1 settings made for y
  1 settings made for z
Setting up cg style minimization ...
  Unit style    : metal
  Current step  : 604
Per MPI rank memory allocation (min/avg/max) = 5.441 | 5.816 | 6.074 Mbytes
Step PotEng KinEng TotEng v_fx v_fy v_fz 
     604   -1152449.4            0   -1152449.4 -0.023339087 -0.024481417  0.017610359 
     755   -1152449.4            0   -1152449.4 3.1547036e-06 3.4494956e-06 -7.6683169e-06 
Loop time of 1.7592 on 104 procs for 151 steps with 288751 atoms

99.9% CPU use with 104 MPI tasks x 1 OpenMP threads

Minimization stats:
  Stopping criterion = energy tolerance
  Energy initial, next-to-last, final = 
      -1152449.4368679  -1152449.43830075  -1152449.43830075
  Force two-norm initial, final = 0.17672162 3.9900088e-05
  Force max component initial, final = 0.067677931 7.6683169e-06
  Final line search alpha, max atom move = 1.0000000 7.6683169e-06
  Iterations, force evaluations = 151 302

MPI task timing breakdown:
Section |  min time  |  avg time  |  max time  |%varavg| %total
---------------------------------------------------------------
Pair    | 0.4573     | 1.2714     | 1.6596     |  30.4 | 72.27
Neigh   | 0          | 0          | 0          |   0.0 |  0.00
Comm    | 0.028662   | 0.28703    | 0.86622    |  44.9 | 16.32
Output  | 0          | 0          | 0          |   0.0 |  0.00
Modify  | 1.8776e-05 | 0.0024889  | 0.0053545  |   2.4 |  0.14
Other   |            | 0.1983     |            |       | 11.27

Nlocal:        2776.45 ave        3957 max           0 min
Histogram: 8 4 4 0 4 12 8 2 28 34
Nghost:        3879.03 ave        5424 max         232 min
Histogram: 8 0 8 0 16 0 8 8 16 40
Neighs:        79213.5 ave      115347 max           0 min
Histogram: 8 4 4 0 10 6 8 8 24 32

Total # of neighbors = 8238202
Ave neighs/atom = 28.530471
Neighbor list builds = 0
Dangerous builds = 0
The dot product: -2.15069442569665e-09
Setting atom values ...
  1 settings made for x
  1 settings made for y
  1 settings made for z
Setting up cg style minimization ...
  Unit style    : metal
  Current step  : 755
Per MPI rank memory allocation (min/avg/max) = 5.441 | 5.816 | 6.074 Mbytes
Step PotEng KinEng TotEng v_fx v_fy v_fz 
     755   -1152449.4            0   -1152449.4 -0.024923539 -0.025831854  0.020054241 
     908   -1152449.4            0   -1152449.4 1.2618732e-06 1.5281457e-06 -8.95653e-06 
Loop time of 1.76565 on 104 procs for 153 steps with 288751 atoms

99.9% CPU use with 104 MPI tasks x 1 OpenMP threads

Minimization stats:
  Stopping criterion = energy tolerance
  Energy initial, next-to-last, final = 
     -1152449.43011104  -1152449.43153735  -1152449.43153735
  Force two-norm initial, final = 0.17649198 3.7174945e-05
  Force max component initial, final = 0.066827175 8.9565300e-06
  Final line search alpha, max atom move = 1.0000000 8.9565300e-06
  Iterations, force evaluations = 153 306

MPI task timing breakdown:
Section |  min time  |  avg time  |  max time  |%varavg| %total
---------------------------------------------------------------
Pair    | 0.46408    | 1.284      | 1.6743     |  30.6 | 72.72
Neigh   | 0          | 0          | 0          |   0.0 |  0.00
Comm    | 0.028417   | 0.28678    | 0.86838    |  45.3 | 16.24
Output  | 0          | 0          | 0          |   0.0 |  0.00
Modify  | 1.8762e-05 | 0.0025171  | 0.0053674  |   2.4 |  0.14
Other   |            | 0.1924     |            |       | 10.90

Nlocal:        2776.45 ave        3957 max           0 min
Histogram: 8 4 4 0 4 12 8 2 28 34
Nghost:        3879.03 ave        5424 max         232 min
Histogram: 8 0 8 0 16 0 8 8 16 40
Neighs:        79213.5 ave      115346 max           0 min
Histogram: 8 4 4 0 10 6 8 8 24 32

Total # of neighbors = 8238201
Ave neighs/atom = 28.530467
Neighbor list builds = 0
Dangerous builds = 0
The dot product: -3.07418198885377e-09
Setting atom values ...
  1 settings made for x
  1 settings made for y
  1 settings made for z
Setting up cg style minimization ...
  Unit style    : metal
  Current step  : 908
Per MPI rank memory allocation (min/avg/max) = 5.441 | 5.816 | 6.074 Mbytes
Step PotEng KinEng TotEng v_fx v_fy v_fz 
     908   -1152449.4            0   -1152449.4 -0.027089394 -0.027564151  0.022952489 
    1000   -1152449.4            0   -1152449.4 -9.1895004e-06 -1.1076543e-05 7.5356201e-05 
    1058   -1152449.4            0   -1152449.4 -1.6698555e-06 -1.8536406e-06 7.464078e-06 
Loop time of 1.74081 on 104 procs for 150 steps with 288751 atoms

99.9% CPU use with 104 MPI tasks x 1 OpenMP threads

Minimization stats:
  Stopping criterion = energy tolerance
  Energy initial, next-to-last, final = 
     -1152449.42179954  -1152449.42321845  -1152449.42321845
  Force two-norm initial, final = 0.17632089 3.5777641e-05
  Force max component initial, final = 0.067391233 7.4640780e-06
  Final line search alpha, max atom move = 1.0000000 7.4640780e-06
  Iterations, force evaluations = 150 300

MPI task timing breakdown:
Section |  min time  |  avg time  |  max time  |%varavg| %total
---------------------------------------------------------------
Pair    | 0.4533     | 1.259      | 1.6412     |  30.3 | 72.32
Neigh   | 0          | 0          | 0          |   0.0 |  0.00
Comm    | 0.02635    | 0.28392    | 0.85605    |  44.6 | 16.31
Output  | 9.9241e-05 | 0.00010834 | 0.00022765 |   0.0 |  0.01
Modify  | 1.8515e-05 | 0.002476   | 0.0053558  |   2.4 |  0.14
Other   |            | 0.1953     |            |       | 11.22

Nlocal:        2776.45 ave        3955 max           0 min
Histogram: 8 4 4 0 4 12 8 0 30 34
Nghost:        3879.03 ave        5424 max         232 min
Histogram: 8 0 8 0 16 0 8 8 16 40
Neighs:        79213.5 ave      115278 max           0 min
Histogram: 8 4 4 0 10 6 8 8 24 32

Total # of neighbors = 8238204
Ave neighs/atom = 28.530478
Neighbor list builds = 0
Dangerous builds = 0
The dot product: 6.91176341448708e-09
Setting atom values ...
  1 settings made for x
  1 settings made for y
  1 settings made for z
Setting up cg style minimization ...
  Unit style    : metal
  Current step  : 1058
Per MPI rank memory allocation (min/avg/max) = 5.441 | 5.816 | 6.074 Mbytes
Step PotEng KinEng TotEng v_fx v_fy v_fz 
    1058   -1152449.4            0   -1152449.4  -0.03000761 -0.029737078  0.026505126 
    1189   -1152449.4            0   -1152449.4 5.6649029e-06 5.7906797e-06 -1.3862892e-05 
Loop time of 1.52496 on 104 procs for 131 steps with 288751 atoms

99.9% CPU use with 104 MPI tasks x 1 OpenMP threads

Minimization stats:
  Stopping criterion = energy tolerance
  Energy initial, next-to-last, final = 
     -1152449.41192429  -1152449.41333713  -1152449.41333713
  Force two-norm initial, final = 0.1763081 9.0008673e-05
  Force max component initial, final = 0.069081162 1.8569602e-05
  Final line search alpha, max atom move = 1.0000000 1.8569602e-05
  Iterations, force evaluations = 131 262

MPI task timing breakdown:
Section |  min time  |  avg time  |  max time  |%varavg| %total
---------------------------------------------------------------
Pair    | 0.39581    | 1.1008     | 1.4407     |  28.2 | 72.19
Neigh   | 0          | 0          | 0          |   0.0 |  0.00
Comm    | 0.022711   | 0.2474     | 0.74411    |  41.6 | 16.22
Output  | 0          | 0          | 0          |   0.0 |  0.00
Modify  | 1.5827e-05 | 0.0021624  | 0.004626   |   2.2 |  0.14
Other   |            | 0.1746     |            |       | 11.45

Nlocal:        2776.45 ave        3954 max           0 min
Histogram: 8 4 4 0 4 12 8 0 30 34
Nghost:        3879.03 ave        5424 max         232 min
Histogram: 8 0 8 0 16 0 8 8 16 40
Neighs:        79213.5 ave      115236 max           0 min
Histogram: 8 4 4 0 10 6 8 8 24 32

Total # of neighbors = 8238203
Ave neighs/atom = 28.530474
Neighbor list builds = 0
Dangerous builds = 0
The dot product: -2.97043161361088e-08
Setting atom values ...
  1 settings made for x
  1 settings made for y
  1 settings made for z
Setting up cg style minimization ...
  Unit style    : metal
  Current step  : 1189
Per MPI rank memory allocation (min/avg/max) = 5.441 | 5.816 | 6.074 Mbytes
Step PotEng KinEng TotEng v_fx v_fy v_fz 
    1189   -1152449.4            0   -1152449.4 -0.033924641 -0.032396774  0.030869309 
    1315   -1152449.4            0   -1152449.4 8.4090652e-06 7.8272977e-06 1.1483224e-05 
Loop time of 1.45131 on 104 procs for 126 steps with 288751 atoms

99.9% CPU use with 104 MPI tasks x 1 OpenMP threads

Minimization stats:
  Stopping criterion = energy tolerance
  Energy initial, next-to-last, final = 
     -1152449.40049397   -1152449.4019059   -1152449.4019059
  Force two-norm initial, final = 0.17657685 0.00011670815
  Force max component initial, final = 0.070883035 2.2034638e-05
  Final line search alpha, max atom move = 1.0000000 2.2034638e-05
  Iterations, force evaluations = 126 252

MPI task timing breakdown:
Section |  min time  |  avg time  |  max time  |%varavg| %total
---------------------------------------------------------------
Pair    | 0.38215    | 1.0596     | 1.3758     |  27.8 | 73.01
Neigh   | 0          | 0          | 0          |   0.0 |  0.00
Comm    | 0.022344   | 0.23783    | 0.7247     |  41.2 | 16.39
Output  | 0          | 0          | 0          |   0.0 |  0.00
Modify  | 1.5609e-05 | 0.0020739  | 0.0044415  |   2.2 |  0.14
Other   |            | 0.1518     |            |       | 10.46

Nlocal:        2776.45 ave        3953 max           0 min
Histogram: 8 4 4 0 4 12 8 0 30 34
Nghost:        3879.03 ave        5424 max         232 min
Histogram: 8 0 8 0 16 0 8 8 16 40
Neighs:        79213.5 ave      115213 max           0 min
Histogram: 8 4 4 0 10 6 8 8 24 32

Total # of neighbors = 8238201
Ave neighs/atom = 28.530467
Neighbor list builds = 0
Dangerous builds = 0
The dot product: -1.65057099484054e-08
Setting atom values ...
  1 settings made for x
  1 settings made for y
  1 settings made for z
Setting up cg style minimization ...
  Unit style    : metal
  Current step  : 1315
Per MPI rank memory allocation (min/avg/max) = 5.441 | 5.816 | 6.074 Mbytes
Step PotEng KinEng TotEng v_fx v_fy v_fz 
    1315   -1152449.4            0   -1152449.4 -0.039770415 -0.036069052  0.037211705 
    1421   -1152449.4            0   -1152449.4 2.6524097e-05 2.4348056e-05 6.5235049e-05 
Loop time of 1.23363 on 104 procs for 106 steps with 288751 atoms

99.9% CPU use with 104 MPI tasks x 1 OpenMP threads

Minimization stats:
  Stopping criterion = energy tolerance
  Energy initial, next-to-last, final = 
     -1152449.38754558  -1152449.38897803  -1152449.38897803
  Force two-norm initial, final = 0.17779622 0.00026070523
  Force max component initial, final = 0.072917495 6.5235049e-05
  Final line search alpha, max atom move = 1.0000000 6.5235049e-05
  Iterations, force evaluations = 106 212

MPI task timing breakdown:
Section |  min time  |  avg time  |  max time  |%varavg| %total
---------------------------------------------------------------
Pair    | 0.3258     | 0.89175    | 1.1625     |  25.4 | 72.29
Neigh   | 0          | 0          | 0          |   0.0 |  0.00
Comm    | 0.023083   | 0.20007    | 0.60958    |  37.7 | 16.22
Output  | 0          | 0          | 0          |   0.0 |  0.00
Modify  | 1.3475e-05 | 0.001747   | 0.0037628  |   2.0 |  0.14
Other   |            | 0.1401     |            |       | 11.35

Nlocal:        2776.45 ave        3949 max           0 min
Histogram: 8 4 4 0 4 12 8 0 28 36
Nghost:        3879.03 ave        5424 max         232 min
Histogram: 8 0 8 0 16 0 8 8 16 40
Neighs:        79213.4 ave      115083 max           0 min
Histogram: 8 4 4 0 10 6 8 8 24 32

Total # of neighbors = 8238196
Ave neighs/atom = 28.530450
Neighbor list builds = 0
Dangerous builds = 0
The dot product: 2.05947354448036e-08
Setting atom values ...
  1 settings made for x
  1 settings made for y
  1 settings made for z
Setting up cg style minimization ...
  Unit style    : metal
  Current step  : 1421
Per MPI rank memory allocation (min/avg/max) = 5.441 | 5.816 | 6.074 Mbytes
Step PotEng KinEng TotEng v_fx v_fy v_fz 
    1421   -1152449.4            0   -1152449.4 -0.050636847 -0.042403898  0.049441894 
    1576   -1152449.4            0   -1152449.4 3.6053032e-05 3.1432439e-05 1.4278582e-05 
Loop time of 1.78813 on 104 procs for 155 steps with 288751 atoms

99.9% CPU use with 104 MPI tasks x 1 OpenMP threads

Minimization stats:
  Stopping criterion = energy tolerance
  Energy initial, next-to-last, final = 
      -1152449.3732237  -1152449.37484955  -1152449.37484955
  Force two-norm initial, final = 0.18259655 0.00018470288
  Force max component initial, final = 0.075262151 3.6053032e-05
  Final line search alpha, max atom move = 1.0000000 3.6053032e-05
  Iterations, force evaluations = 155 310

MPI task timing breakdown:
Section |  min time  |  avg time  |  max time  |%varavg| %total
---------------------------------------------------------------
Pair    | 0.46938    | 1.3014     | 1.6955     |  30.9 | 72.78
Neigh   | 0          | 0          | 0          |   0.0 |  0.00
Comm    | 0.027569   | 0.29303    | 0.89189    |  45.5 | 16.39
Output  | 0          | 0          | 0          |   0.0 |  0.00
Modify  | 1.897e-05  | 0.0025504  | 0.0054691  |   2.4 |  0.14
Other   |            | 0.1911     |            |       | 10.69

Nlocal:        2776.45 ave        3942 max           0 min
Histogram: 8 4 4 0 4 12 8 0 28 36
Nghost:        3879.03 ave        5424 max         232 min
Histogram: 8 0 8 0 16 0 8 8 16 40
Neighs:        79213.4 ave      114871 max           0 min
Histogram: 8 4 4 0 10 6 8 8 22 34

Total # of neighbors = 8238197
Ave neighs/atom = 28.530454
Neighbor list builds = 0
Dangerous builds = 0
The dot product: -4.08366070911523e-07
Setting atom values ...
  1 settings made for x
  1 settings made for y
  1 settings made for z
Setting up cg style minimization ...
  Unit style    : metal
  Current step  : 1576
Per MPI rank memory allocation (min/avg/max) = 5.441 | 5.816 | 6.074 Mbytes
Step PotEng KinEng TotEng v_fx v_fy v_fz 
    1576   -1152449.4            0   -1152449.4  -0.07926565 -0.054777948   0.07926281 
    1776   -1152449.4            0   -1152449.4 7.3174817e-06 6.3839692e-06 9.5282224e-06 
Loop time of 2.29449 on 104 procs for 200 steps with 288751 atoms

99.9% CPU use with 104 MPI tasks x 1 OpenMP threads

Minimization stats:
  Stopping criterion = energy tolerance
  Energy initial, next-to-last, final = 
     -1152449.35831355   -1152449.3631397   -1152449.3631397
  Force two-norm initial, final = 0.20252874 9.4095385e-05
  Force max component initial, final = 0.07926565 1.7111688e-05
  Final line search alpha, max atom move = 1.0000000 1.7111688e-05
  Iterations, force evaluations = 200 400

MPI task timing breakdown:
Section |  min time  |  avg time  |  max time  |%varavg| %total
---------------------------------------------------------------
Pair    | 0.60556    | 1.6745     | 2.1753     |  34.9 | 72.98
Neigh   | 0          | 0          | 0          |   0.0 |  0.00
Comm    | 0.042516   | 0.37241    | 1.1467     |  52.0 | 16.23
Output  | 0          | 0          | 0          |   0.0 |  0.00
Modify  | 2.4272e-05 | 0.0032909  | 0.0070324  |   2.7 |  0.14
Other   |            | 0.2443     |            |       | 10.65

Nlocal:        2776.45 ave        3940 max           0 min
Histogram: 8 4 4 0 4 12 8 0 28 36
Nghost:        3879.03 ave        5424 max         232 min
Histogram: 8 0 8 0 16 0 8 8 16 40
Neighs:        79213.4 ave      114811 max           0 min
Histogram: 8 4 4 0 10 6 8 8 22 34

Total # of neighbors = 8238194
Ave neighs/atom = 28.530443
Neighbor list builds = 0
Dangerous builds = 0
The dot product: -1.12602559834212e-07
Setting atom values ...
  1 settings made for x
  1 settings made for y
  1 settings made for z
Setting up cg style minimization ...
  Unit style    : metal
  Current step  : 1776
Per MPI rank memory allocation (min/avg/max) = 5.441 | 5.816 | 6.074 Mbytes
Step PotEng KinEng TotEng v_fx v_fy v_fz 
    1776   -1152449.3            0   -1152449.3  -0.18021801 -0.050912282   0.12553788 
    1992   -1152449.4            0   -1152449.4 -1.5231625e-05 2.4388292e-06 3.6795015e-05 
Loop time of 2.53139 on 104 procs for 216 steps with 288751 atoms

99.9% CPU use with 104 MPI tasks x 1 OpenMP threads

Minimization stats:
  Stopping criterion = energy tolerance
  Energy initial, next-to-last, final = 
     -1152449.34975282  -1152449.35679655  -1152449.35679655
  Force two-norm initial, final = 0.26738568 0.0001117361
  Force max component initial, final = 0.18021801 3.6795015e-05
  Final line search alpha, max atom move = 1.0000000 3.6795015e-05
  Iterations, force evaluations = 216 432

MPI task timing breakdown:
Section |  min time  |  avg time  |  max time  |%varavg| %total
---------------------------------------------------------------
Pair    | 0.65978    | 1.8176     | 2.3641     |  36.3 | 71.80
Neigh   | 1.0202e-05 | 0.0029573  | 0.004273   |   2.2 |  0.12
Comm    | 0.047683   | 0.41313    | 1.2529     |  53.3 | 16.32
Output  | 0          | 0          | 0          |   0.0 |  0.00
Modify  | 2.6338e-05 | 0.0035589  | 0.0076158  |   2.8 |  0.14
Other   |            | 0.2941     |            |       | 11.62

Nlocal:        2776.45 ave        3943 max           0 min
Histogram: 8 4 4 0 4 12 8 0 28 36
Nghost:        3879.03 ave        5424 max         232 min
Histogram: 8 0 8 0 16 0 8 8 16 40
Neighs:        79213.4 ave      114898 max           0 min
Histogram: 8 4 4 0 10 6 8 8 22 34

Total # of neighbors = 8238198
Ave neighs/atom = 28.530457
Neighbor list builds = 1
Dangerous builds = 0
The dot product: 1.72853798665573e-06
Setting atom values ...
  1 settings made for x
  1 settings made for y
  1 settings made for z
Setting up cg style minimization ...
  Unit style    : metal
  Current step  : 1992
Per MPI rank memory allocation (min/avg/max) = 5.441 | 5.816 | 6.074 Mbytes
Step PotEng KinEng TotEng v_fx v_fy v_fz 
    1992   -1152449.3            0   -1152449.3  -0.13357721 -0.0088624171  0.062869116 
    2000   -1152449.3            0   -1152449.3 -0.0016563886 -0.0014465573 -0.002896847 
    2172   -1152449.3            0   -1152449.3 -5.5876888e-05 -5.1916565e-06 2.2216072e-05 
Loop time of 2.09025 on 104 procs for 180 steps with 288751 atoms

99.9% CPU use with 104 MPI tasks x 1 OpenMP threads

Minimization stats:
  Stopping criterion = energy tolerance
  Energy initial, next-to-last, final = 
      -1152449.3449718  -1152449.34843244  -1152449.34843244
  Force two-norm initial, final = 0.20101678 0.00020672083
  Force max component initial, final = 0.13357721 5.5876888e-05
  Final line search alpha, max atom move = 1.0000000 5.5876888e-05
  Iterations, force evaluations = 180 360

MPI task timing breakdown:
Section |  min time  |  avg time  |  max time  |%varavg| %total
---------------------------------------------------------------
Pair    | 0.54541    | 1.511      | 1.9702     |  33.2 | 72.29
Neigh   | 0          | 0          | 0          |   0.0 |  0.00
Comm    | 0.031849   | 0.33978    | 1.0199     |  48.8 | 16.26
Output  | 9.5292e-05 | 9.7215e-05 | 0.00015362 |   0.0 |  0.00
Modify  | 2.1788e-05 | 0.0029661  | 0.0063255  |   2.6 |  0.14
Other   |            | 0.2365     |            |       | 11.31

Nlocal:        2776.45 ave        3943 max           0 min
Histogram: 8 4 4 0 4 12 8 1 27 36
Nghost:        3879.03 ave        5426 max         232 min
Histogram: 8 0 8 0 16 0 8 8 16 40
Neighs:        79213.5 ave      114900 max           0 min
Histogram: 8 4 4 0 10 6 8 8 22 34

Total # of neighbors = 8238204
Ave neighs/atom = 28.530478
Neighbor list builds = 0
Dangerous builds = 0
The dot product: 2.00375606738885e-06
Setting atom values ...
  1 settings made for x
  1 settings made for y
  1 settings made for z
Setting up cg style minimization ...
  Unit style    : metal
  Current step  : 2172
Per MPI rank memory allocation (min/avg/max) = 5.441 | 5.816 | 6.074 Mbytes
Step PotEng KinEng TotEng v_fx v_fy v_fz 
    2172   -1152449.3            0   -1152449.3 -0.069132383 0.0063661592  0.034841625 
    2430   -1152449.3            0   -1152449.3 -2.6126735e-06 2.2845462e-06 6.1655151e-06 
Loop time of 2.98663 on 104 procs for 258 steps with 288751 atoms

99.9% CPU use with 104 MPI tasks x 1 OpenMP threads

Minimization stats:
  Stopping criterion = energy tolerance
  Energy initial, next-to-last, final = 
      -1152449.3376687  -1152449.34381667  -1152449.34381667
  Force two-norm initial, final = 0.16006841 7.2435769e-05
  Force max component initial, final = 0.077196168 9.8197730e-06
  Final line search alpha, max atom move = 1.0000000 9.8197730e-06
  Iterations, force evaluations = 258 516

MPI task timing breakdown:
Section |  min time  |  avg time  |  max time  |%varavg| %total
---------------------------------------------------------------
Pair    | 0.78885    | 2.1675     | 2.8234     |  39.6 | 72.57
Neigh   | 1.04e-05   | 0.0029495  | 0.0042734  |   2.2 |  0.10
Comm    | 0.053719   | 0.48632    | 1.4831     |  58.9 | 16.28
Output  | 0          | 0          | 0          |   0.0 |  0.00
Modify  | 3.1306e-05 | 0.0042476  | 0.0090666  |   3.1 |  0.14
Other   |            | 0.3257     |            |       | 10.90

Nlocal:        2776.45 ave        3952 max           0 min
Histogram: 8 4 4 0 4 12 8 1 29 34
Nghost:        3879.12 ave        5424 max         232 min
Histogram: 8 0 8 0 16 0 8 8 16 40
Neighs:        79213.3 ave      115173 max           0 min
Histogram: 8 4 4 0 10 6 8 8 24 32

Total # of neighbors = 8238186
Ave neighs/atom = 28.530415
Neighbor list builds = 1
Dangerous builds = 0
The dot product: 3.46514831671767e-07
Setting atom values ...
  1 settings made for x
  1 settings made for y
  1 settings made for z
Setting up cg style minimization ...
  Unit style    : metal
  Current step  : 2430
Per MPI rank memory allocation (min/avg/max) = 5.441 | 5.816 | 6.074 Mbytes
Step PotEng KinEng TotEng v_fx v_fy v_fz 
    2430   -1152449.3            0   -1152449.3  0.013067745 -0.022392206 -0.037905427 
    2598   -1152449.3            0   -1152449.3 5.1894648e-06 -1.2607068e-05 -2.1184658e-05 
Loop time of 1.94466 on 104 procs for 168 steps with 288751 atoms

99.9% CPU use with 104 MPI tasks x 1 OpenMP threads

Minimization stats:
  Stopping criterion = energy tolerance
  Energy initial, next-to-last, final = 
     -1152449.34610918   -1152449.3472388   -1152449.3472388
  Force two-norm initial, final = 0.13555251 0.00010374633
  Force max component initial, final = 0.052889054 2.6977647e-05
  Final line search alpha, max atom move = 1.0000000 2.6977647e-05
  Iterations, force evaluations = 168 336

MPI task timing breakdown:
Section |  min time  |  avg time  |  max time  |%varavg| %total
---------------------------------------------------------------
Pair    | 0.51255    | 1.4092     | 1.8387     |  31.9 | 72.47
Neigh   | 0          | 0          | 0          |   0.0 |  0.00
Comm    | 0.03198    | 0.31581    | 0.95179    |  47.2 | 16.24
Output  | 0          | 0          | 0          |   0.0 |  0.00
Modify  | 2.0388e-05 | 0.0027672  | 0.0058709  |   2.5 |  0.14
Other   |            | 0.2168     |            |       | 11.15

Nlocal:        2776.45 ave        3961 max           0 min
Histogram: 8 4 4 0 6 10 8 3 27 34
Nghost:        3879.03 ave        5424 max         232 min
Histogram: 8 0 8 0 16 0 8 8 16 40
Neighs:        79213.4 ave      115473 max           0 min
Histogram: 8 4 4 0 10 6 8 8 24 32

Total # of neighbors = 8238191
Ave neighs/atom = 28.530433
Neighbor list builds = 0
Dangerous builds = 0
The dot product: 1.12907318664977e-07
Setting atom values ...
  1 settings made for x
  1 settings made for y
  1 settings made for z
Setting up cg style minimization ...
  Unit style    : metal
  Current step  : 2598
Per MPI rank memory allocation (min/avg/max) = 5.441 | 5.816 | 6.074 Mbytes
Step PotEng KinEng TotEng v_fx v_fy v_fz 
    2598   -1152449.3            0   -1152449.3 -0.0019192266 -0.010359243 -0.017416259 
    2743   -1152449.3            0   -1152449.3 -6.3423404e-05 4.3551132e-05 7.9660012e-05 
Loop time of 1.67463 on 104 procs for 145 steps with 288751 atoms

99.9% CPU use with 104 MPI tasks x 1 OpenMP threads

Minimization stats:
  Stopping criterion = energy tolerance
  Energy initial, next-to-last, final = 
     -1152449.34894041  -1152449.34985103  -1152449.34985103
  Force two-norm initial, final = 0.12490532 0.00026149209
  Force max component initial, final = 0.05317742 7.9660012e-05
  Final line search alpha, max atom move = 1.0000000 7.9660012e-05
  Iterations, force evaluations = 145 290

MPI task timing breakdown:
Section |  min time  |  avg time  |  max time  |%varavg| %total
---------------------------------------------------------------
Pair    | 0.43856    | 1.2179     | 1.5877     |  29.9 | 72.72
Neigh   | 0          | 0          | 0          |   0.0 |  0.00
Comm    | 0.024794   | 0.27664    | 0.84446    |  44.0 | 16.52
Output  | 0          | 0          | 0          |   0.0 |  0.00
Modify  | 1.7783e-05 | 0.0023924  | 0.0056463  |   2.3 |  0.14
Other   |            | 0.1777     |            |       | 10.61

Nlocal:        2776.45 ave        3961 max           0 min
Histogram: 8 4 4 0 6 10 8 3 27 34
Nghost:        3879.03 ave        5424 max         232 min
Histogram: 8 0 8 0 16 0 8 8 16 40
Neighs:        79213.4 ave      115473 max           0 min
Histogram: 8 4 4 0 10 6 8 8 24 32

Total # of neighbors = 8238192
Ave neighs/atom = 28.530436
Neighbor list builds = 0
Dangerous builds = 0
The dot product: 2.17301203371023e-08
Setting atom values ...
  1 settings made for x
  1 settings made for y
  1 settings made for z
Setting up cg style minimization ...
  Unit style    : metal
  Current step  : 2743
Per MPI rank memory allocation (min/avg/max) = 5.441 | 5.816 | 6.074 Mbytes
Step PotEng KinEng TotEng v_fx v_fy v_fz 
    2743   -1152449.4            0   -1152449.4 -0.00047273318  -0.01200987 -0.020345175 
    2891   -1152449.4            0   -1152449.4 -2.1793382e-06 -5.3621884e-05 -9.0831437e-05 
Loop time of 1.7298 on 104 procs for 148 steps with 288751 atoms

99.9% CPU use with 104 MPI tasks x 1 OpenMP threads

Minimization stats:
  Stopping criterion = energy tolerance
  Energy initial, next-to-last, final = 
     -1152449.35040908  -1152449.35131202  -1152449.35131202
  Force two-norm initial, final = 0.12552135 0.00030653748
  Force max component initial, final = 0.052744732 9.0831437e-05
  Final line search alpha, max atom move = 1.0000000 9.0831437e-05
  Iterations, force evaluations = 148 296

MPI task timing breakdown:
Section |  min time  |  avg time  |  max time  |%varavg| %total
---------------------------------------------------------------
Pair    | 0.44657    | 1.2444     | 1.6331     |  30.1 | 71.94
Neigh   | 0          | 0          | 0          |   0.0 |  0.00
Comm    | 0.032896   | 0.28099    | 0.84916    |  44.1 | 16.24
Output  | 0          | 0          | 0          |   0.0 |  0.00
Modify  | 1.8035e-05 | 0.0024401  | 0.0052398  |   2.3 |  0.14
Other   |            | 0.202      |            |       | 11.68

Nlocal:        2776.45 ave        3961 max           0 min
Histogram: 8 4 4 0 6 10 8 2 28 34
Nghost:        3879.03 ave        5424 max         232 min
Histogram: 8 0 8 0 16 0 8 8 16 40
Neighs:        79213.4 ave      115474 max           0 min
Histogram: 8 4 4 0 10 6 8 8 24 32

Total # of neighbors = 8238192
Ave neighs/atom = 28.530436
Neighbor list builds = 0
Dangerous builds = 0
The dot product: 5.27980490207597e-08
Setting atom values ...
  1 settings made for x
  1 settings made for y
  1 settings made for z
Setting up cg style minimization ...
  Unit style    : metal
  Current step  : 2891
Per MPI rank memory allocation (min/avg/max) = 5.441 | 5.816 | 6.074 Mbytes
Step PotEng KinEng TotEng v_fx v_fy v_fz 
    2891   -1152449.4            0   -1152449.4 -0.00081891815 -0.011749715 -0.019936057 
    3000   -1152449.4            0   -1152449.4 3.1732318e-05 -2.868168e-05 -5.1629588e-05 
    3072   -1152449.4            0   -1152449.4 2.5355061e-05 -1.4922393e-05 -2.7639063e-05 
Loop time of 2.0921 on 104 procs for 181 steps with 288751 atoms

99.9% CPU use with 104 MPI tasks x 1 OpenMP threads

Minimization stats:
  Stopping criterion = energy tolerance
  Energy initial, next-to-last, final = 
      -1152449.3505824  -1152449.35148098  -1152449.35148098
  Force two-norm initial, final = 0.12540123 0.00013386938
  Force max component initial, final = 0.052446389 2.7639063e-05
  Final line search alpha, max atom move = 1.0000000 2.7639063e-05
  Iterations, force evaluations = 181 362

MPI task timing breakdown:
Section |  min time  |  avg time  |  max time  |%varavg| %total
---------------------------------------------------------------
Pair    | 0.54892    | 1.521      | 1.9832     |  33.3 | 72.70
Neigh   | 0          | 0          | 0          |   0.0 |  0.00
Comm    | 0.031905   | 0.34265    | 1.0406     |  49.2 | 16.38
Output  | 0.00010346 | 0.00011321 | 0.00023555 |   0.0 |  0.01
Modify  | 2.1889e-05 | 0.002983   | 0.0064463  |   2.6 |  0.14
Other   |            | 0.2253     |            |       | 10.77

Nlocal:        2776.45 ave        3960 max           0 min
Histogram: 8 4 4 0 4 12 8 2 28 34
Nghost:        3879.03 ave        5424 max         232 min
Histogram: 8 0 8 0 16 0 8 8 16 40
Neighs:        79213.4 ave      115436 max           0 min
Histogram: 8 4 4 0 10 6 8 8 24 32

Total # of neighbors = 8238191
Ave neighs/atom = 28.530433
Neighbor list builds = 0
Dangerous builds = 0
The dot product: 1.05309346870987e-08
Setting atom values ...
  1 settings made for x
  1 settings made for y
  1 settings made for z
Setting up cg style minimization ...
  Unit style    : metal
  Current step  : 3072
Per MPI rank memory allocation (min/avg/max) = 5.441 | 5.816 | 6.074 Mbytes
Step PotEng KinEng TotEng v_fx v_fy v_fz 
    3072   -1152449.3            0   -1152449.3 -0.0011769664 -0.010958487 -0.018615032 
    3272   -1152449.4            0   -1152449.4 2.3431906e-05 -1.0473656e-05 -1.9927611e-05 
Loop time of 2.3143 on 104 procs for 200 steps with 288751 atoms

99.9% CPU use with 104 MPI tasks x 1 OpenMP threads

Minimization stats:
  Stopping criterion = energy tolerance
  Energy initial, next-to-last, final = 
     -1152449.34942006   -1152449.3503077   -1152449.3503077
  Force two-norm initial, final = 0.12459383 8.2354640e-05
  Force max component initial, final = 0.052337385 2.3431906e-05
  Final line search alpha, max atom move = 1.0000000 2.3431906e-05
  Iterations, force evaluations = 200 400

MPI task timing breakdown:
Section |  min time  |  avg time  |  max time  |%varavg| %total
---------------------------------------------------------------
Pair    | 0.60717    | 1.6764     | 2.1895     |  34.9 | 72.44
Neigh   | 0          | 0          | 0          |   0.0 |  0.00
Comm    | 0.0432     | 0.37412    | 1.1455     |  51.7 | 16.17
Output  | 0          | 0          | 0          |   0.0 |  0.00
Modify  | 2.4382e-05 | 0.0032928  | 0.0070267  |   2.7 |  0.14
Other   |            | 0.2605     |            |       | 11.25

Nlocal:        2776.45 ave        3959 max           0 min
Histogram: 8 4 4 0 4 12 8 2 28 34
Nghost:        3879.05 ave        5424 max         232 min
Histogram: 8 0 8 0 16 0 8 8 16 40
Neighs:        79213.4 ave      115405 max           0 min
Histogram: 8 4 4 0 10 6 8 8 24 32

Total # of neighbors = 8238191
Ave neighs/atom = 28.530433
Neighbor list builds = 0
Dangerous builds = 0
The dot product: 5.10952238582497e-09
Setting atom values ...
  1 settings made for x
  1 settings made for y
  1 settings made for z
Setting up cg style minimization ...
  Unit style    : metal
  Current step  : 3272
Per MPI rank memory allocation (min/avg/max) = 5.441 | 5.816 | 6.074 Mbytes
Step PotEng KinEng TotEng v_fx v_fy v_fz 
    3272   -1152449.3            0   -1152449.3 -0.0014266613 -0.009979945 -0.016971498 
    3459   -1152449.3            0   -1152449.3 1.8614391e-05 -9.371899e-06 -1.7651746e-05 
Loop time of 2.18876 on 104 procs for 187 steps with 288751 atoms

99.9% CPU use with 104 MPI tasks x 1 OpenMP threads

Minimization stats:
  Stopping criterion = energy tolerance
  Energy initial, next-to-last, final = 
     -1152449.34690525  -1152449.34777933  -1152449.34777933
  Force two-norm initial, final = 0.12358047 0.00010638846
  Force max component initial, final = 0.052227251 2.7797684e-05
  Final line search alpha, max atom move = 1.0000000 2.7797684e-05
  Iterations, force evaluations = 187 374

MPI task timing breakdown:
Section |  min time  |  avg time  |  max time  |%varavg| %total
---------------------------------------------------------------
Pair    | 0.56783    | 1.5765     | 2.0504     |  33.8 | 72.03
Neigh   | 0          | 0          | 0          |   0.0 |  0.00
Comm    | 0.040156   | 0.35782    | 1.0786     |  49.9 | 16.35
Output  | 0          | 0          | 0          |   0.0 |  0.00
Modify  | 2.2738e-05 | 0.0030801  | 0.0066329  |   2.6 |  0.14
Other   |            | 0.2514     |            |       | 11.48

Nlocal:        2776.45 ave        3957 max           0 min
Histogram: 8 4 4 0 4 12 8 2 28 34
Nghost:        3879.07 ave        5424 max         232 min
Histogram: 8 0 8 0 16 0 8 8 16 40
Neighs:        79213.4 ave      115359 max           0 min
Histogram: 8 4 4 0 10 6 8 8 24 32

Total # of neighbors = 8238191
Ave neighs/atom = 28.530433
Neighbor list builds = 0
Dangerous builds = 0
The dot product: 3.92445936573821e-09
Setting atom values ...
  1 settings made for x
  1 settings made for y
  1 settings made for z
Setting up cg style minimization ...
  Unit style    : metal
  Current step  : 3459
Per MPI rank memory allocation (min/avg/max) = 5.441 | 5.816 | 6.074 Mbytes
Step PotEng KinEng TotEng v_fx v_fy v_fz 
    3459   -1152449.3            0   -1152449.3 -0.001394964 -0.0089407968 -0.015233548 
    3778   -1152449.3            0   -1152449.3 7.3140848e-08 -6.8577843e-08 -1.2395266e-07 
Loop time of 3.6802 on 104 procs for 319 steps with 288751 atoms

99.9% CPU use with 104 MPI tasks x 1 OpenMP threads

Minimization stats:
  Stopping criterion = energy tolerance
  Energy initial, next-to-last, final = 
     -1152449.34303079  -1152449.34389105  -1152449.34389105
  Force two-norm initial, final = 0.12267678 5.9074873e-07
  Force max component initial, final = 0.052119033 1.2395266e-07
  Final line search alpha, max atom move = 1.0000000 1.2395266e-07
  Iterations, force evaluations = 319 638

MPI task timing breakdown:
Section |  min time  |  avg time  |  max time  |%varavg| %total
---------------------------------------------------------------
Pair    | 0.96614    | 2.6718     | 3.4849     |  44.1 | 72.60
Neigh   | 0          | 0          | 0          |   0.0 |  0.00
Comm    | 0.062677   | 0.5975     | 1.8119     |  65.3 | 16.24
Output  | 0          | 0          | 0          |   0.0 |  0.00
Modify  | 3.7945e-05 | 0.0052353  | 0.011201   |   3.4 |  0.14
Other   |            | 0.4056     |            |       | 11.02

Nlocal:        2776.45 ave        3956 max           0 min
Histogram: 8 4 4 0 4 12 8 0 30 34
Nghost:        3879.07 ave        5424 max         232 min
Histogram: 8 0 8 0 16 0 8 8 16 40
Neighs:        79213.4 ave      115331 max           0 min
Histogram: 8 4 4 0 10 6 8 8 24 32

Total # of neighbors = 8238190
Ave neighs/atom = 28.530429
Neighbor list builds = 0
Dangerous builds = 0
The dot product: 3.69652875228633e-11
Setting up cg style minimization ...
  Unit style    : metal
  Current step  : 3778
[...]

Nlocal:        2776.45 ave        3962 max           0 min
Histogram: 8 4 4 0 6 10 8 4 26 34
Nghost:        3879.12 ave        5424 max         232 min
Histogram: 8 0 8 0 16 0 8 8 16 40
Neighs:        79213.2 ave      115506 max           0 min
Histogram: 8 4 4 0 10 6 8 8 24 32

Total # of neighbors = 8238176
Ave neighs/atom = 28.530381
Neighbor list builds = 0
Dangerous builds = 0
The dot product: -1.43821328972847e-06
Setting atom values ...
  1 settings made for x
  1 settings made for y
  1 settings made for z
Setting up cg style minimization ...
  Unit style    : metal
  Current step  : 4638
Per MPI rank memory allocation (min/avg/max) = 5.441 | 5.816 | 6.074 Mbytes
Step PotEng KinEng TotEng v_fx v_fy v_fz 
    4638     -1152449            0     -1152449  0.091071171  0.015855228  0.067741412 
    4840     -1152449            0     -1152449 2.1565092e-05 3.2150995e-06 1.0064997e-05 
Loop time of 2.32787 on 104 procs for 202 steps with 288751 atoms

99.9% CPU use with 104 MPI tasks x 1 OpenMP threads

Minimization stats:
  Stopping criterion = energy tolerance
  Energy initial, next-to-last, final = 
     -1152448.97744229  -1152448.98039098  -1152448.98039098
  Force two-norm initial, final = 0.22169827 9.9398371e-05
  Force max component initial, final = 0.17473095 2.2346016e-05
  Final line search alpha, max atom move = 1.0000000 2.2346016e-05
  Iterations, force evaluations = 202 404

MPI task timing breakdown:
Section |  min time  |  avg time  |  max time  |%varavg| %total
---------------------------------------------------------------
Pair    | 0.61277    | 1.6942     | 2.2014     |  35.2 | 72.78
Neigh   | 0          | 0          | 0          |   0.0 |  0.00
Comm    | 0.04332    | 0.38185    | 1.1737     |  52.1 | 16.40
Output  | 0          | 0          | 0          |   0.0 |  0.00
Modify  | 2.4222e-05 | 0.0033282  | 0.0071437  |   2.7 |  0.14
Other   |            | 0.2485     |            |       | 10.68

Nlocal:        2776.45 ave        3962 max           0 min
Histogram: 8 4 4 0 6 10 8 4 26 34
Nghost:        3879.12 ave        5424 max         232 min
Histogram: 8 0 8 0 16 0 8 8 16 40
Neighs:        79213.3 ave      115505 max           0 min
Histogram: 8 4 4 0 10 6 8 8 24 32

Total # of neighbors = 8238179
Ave neighs/atom = 28.530391
Neighbor list builds = 0
Dangerous builds = 0
The dot product: 6.2124963621781e-07
Setting atom values ...
  1 settings made for x
  1 settings made for y
  1 settings made for z
Setting up cg style minimization ...
  Unit style    : metal
  Current step  : 4840
Per MPI rank memory allocation (min/avg/max) = 5.441 | 5.816 | 6.074 Mbytes
Step PotEng KinEng TotEng v_fx v_fy v_fz 
    4840   -1152448.9            0   -1152448.9  0.087221492  0.010563779  0.082067451 
    5000     -1152449            0     -1152449 0.0001303335 -4.1932907e-06 -0.00021588407 
    5081     -1152449            0     -1152449 1.6891161e-05 -2.3813997e-07 -2.2805337e-05 
Loop time of 2.77827 on 104 procs for 241 steps with 288751 atoms

99.9% CPU use with 104 MPI tasks x 1 OpenMP threads

Minimization stats:
  Stopping criterion = energy tolerance
  Energy initial, next-to-last, final = 
     -1152448.94207005  -1152448.97873074  -1152448.97873074
  Force two-norm initial, final = 0.22821884 0.00019322785
  Force max component initial, final = 0.18043202 3.4910678e-05
  Final line search alpha, max atom move = 1.0000000 3.4910678e-05
  Iterations, force evaluations = 241 481

MPI task timing breakdown:
Section |  min time  |  avg time  |  max time  |%varavg| %total
---------------------------------------------------------------
Pair    | 0.73019    | 2.0128     | 2.6307     |  38.2 | 72.45
Neigh   | 1.0339e-05 | 0.0029579  | 0.004283   |   2.2 |  0.11
Comm    | 0.045439   | 0.45129    | 1.3932     |  56.7 | 16.24
Output  | 9.8331e-05 | 0.00010648 | 0.0002422  |   0.0 |  0.00
Modify  | 2.8974e-05 | 0.003969   | 0.0084676  |   3.0 |  0.14
Other   |            | 0.3072     |            |       | 11.06

Nlocal:        2776.45 ave        3962 max           0 min
Histogram: 8 4 4 0 6 10 8 3 27 34
Nghost:        3879.13 ave        5424 max         232 min
Histogram: 8 0 8 0 16 0 8 8 16 40
Neighs:        79213.4 ave      115496 max           0 min
Histogram: 8 4 4 0 10 6 8 8 24 32

Total # of neighbors = 8238194
Ave neighs/atom = 28.530443
Neighbor list builds = 1
Dangerous builds = 0
The dot product: -9.33533175623409e-07
Setting atom values ...
  1 settings made for x
  1 settings made for y
  1 settings made for z
Setting up cg style minimization ...
  Unit style    : metal
  Current step  : 5081
Per MPI rank memory allocation (min/avg/max) = 5.441 | 5.816 | 6.074 Mbytes
Step PotEng KinEng TotEng v_fx v_fy v_fz 
    5081     -1152449            0     -1152449   0.06527098 -0.0070544395   0.13779231 
    5297     -1152449            0     -1152449 1.121204e-06 4.364059e-07 -7.4658622e-06 
Loop time of 2.49265 on 104 procs for 216 steps with 288751 atoms

99.9% CPU use with 104 MPI tasks x 1 OpenMP threads

Minimization stats:
  Stopping criterion = energy tolerance
  Energy initial, next-to-last, final = 
      -1152448.9562923  -1152448.96023352  -1152448.96023352
  Force two-norm initial, final = 0.25727156 7.7983035e-05
  Force max component initial, final = 0.19091159 1.2721353e-05
  Final line search alpha, max atom move = 1.0000000 1.2721353e-05
  Iterations, force evaluations = 216 432

MPI task timing breakdown:
Section |  min time  |  avg time  |  max time  |%varavg| %total
---------------------------------------------------------------
Pair    | 0.66347    | 1.8161     | 2.3474     |  36.1 | 72.86
Neigh   | 0          | 0          | 0          |   0.0 |  0.00
Comm    | 0.042178   | 0.40691    | 1.262      |  54.0 | 16.32
Output  | 0          | 0          | 0          |   0.0 |  0.00
Modify  | 2.6194e-05 | 0.0035614  | 0.0076322  |   2.8 |  0.14
Other   |            | 0.2661     |            |       | 10.68

Nlocal:        2776.45 ave        3962 max           0 min
Histogram: 8 4 4 0 6 10 8 4 26 34
Nghost:        3879.07 ave        5424 max         232 min
Histogram: 8 0 8 0 16 0 8 8 16 40
Neighs:        79213.3 ave      115499 max           0 min
Histogram: 8 4 4 0 10 6 8 8 24 32

Total # of neighbors = 8238183
Ave neighs/atom = 28.530405
Neighbor list builds = 0
Dangerous builds = 0
The dot product: -1.8942854844643e-07
Setting atom values ...
  1 settings made for x
  1 settings made for y
  1 settings made for z
Setting up cg style minimization ...
  Unit style    : metal
  Current step  : 5297
Per MPI rank memory allocation (min/avg/max) = 5.441 | 5.816 | 6.074 Mbytes
Step PotEng KinEng TotEng v_fx v_fy v_fz 
    5297   -1152448.9            0   -1152448.9  0.028735914 -0.0074140202  0.067554844 
    5451   -1152448.9            0   -1152448.9 -3.5632512e-06 -2.4509044e-06 2.3601309e-05 
Loop time of 1.78136 on 104 procs for 154 steps with 288751 atoms

99.9% CPU use with 104 MPI tasks x 1 OpenMP threads

Minimization stats:
  Stopping criterion = energy tolerance
  Energy initial, next-to-last, final = 
     -1152448.93775009  -1152448.94014506  -1152448.94014506
  Force two-norm initial, final = 0.22438589 0.00020244032
  Force max component initial, final = 0.1935448 7.3338755e-05
  Final line search alpha, max atom move = 1.0000000 7.3338755e-05
  Iterations, force evaluations = 154 308

MPI task timing breakdown:
Section |  min time  |  avg time  |  max time  |%varavg| %total
---------------------------------------------------------------
Pair    | 0.46583    | 1.2883     | 1.6897     |  30.6 | 72.32
Neigh   | 0          | 0          | 0          |   0.0 |  0.00
Comm    | 0.02649    | 0.28911    | 0.87653    |  45.2 | 16.23
Output  | 0          | 0          | 0          |   0.0 |  0.00
Modify  | 1.8715e-05 | 0.002543   | 0.0054538  |   2.4 |  0.14
Other   |            | 0.2014     |            |       | 11.31

Nlocal:        2776.45 ave        3961 max           0 min
Histogram: 8 4 4 0 6 10 8 4 26 34
Nghost:        3879.09 ave        5424 max         232 min
Histogram: 8 0 8 0 16 0 8 8 16 40
Neighs:        79213.3 ave      115480 max           0 min
Histogram: 8 4 4 0 10 6 8 8 24 32

Total # of neighbors = 8238184
Ave neighs/atom = 28.530409
Neighbor list builds = 0
Dangerous builds = 0
The dot product: 2.94684775895309e-07
Setting atom values ...
  1 settings made for x
  1 settings made for y
  1 settings made for z
Setting up cg style minimization ...
  Unit style    : metal
  Current step  : 5451
Per MPI rank memory allocation (min/avg/max) = 5.441 | 5.816 | 6.074 Mbytes
Step PotEng KinEng TotEng v_fx v_fy v_fz 
    5451   -1152448.9            0   -1152448.9  0.013234914 -0.0055193938  0.041046585 
    5607   -1152448.9            0   -1152448.9  4.72069e-07 -6.0422577e-07 4.6380771e-06 
Loop time of 1.80064 on 104 procs for 156 steps with 288751 atoms

99.9% CPU use with 104 MPI tasks x 1 OpenMP threads

Minimization stats:
  Stopping criterion = energy tolerance
  Energy initial, next-to-last, final = 
     -1152448.91771446  -1152448.92001696  -1152448.92001696
  Force two-norm initial, final = 0.2213745 0.00013812617
  Force max component initial, final = 0.19585838 4.7440181e-05
  Final line search alpha, max atom move = 1.0000000 4.7440181e-05
  Iterations, force evaluations = 156 312

MPI task timing breakdown:
Section |  min time  |  avg time  |  max time  |%varavg| %total
---------------------------------------------------------------
Pair    | 0.47078    | 1.3078     | 1.6965     |  31.0 | 72.63
Neigh   | 0          | 0          | 0          |   0.0 |  0.00
Comm    | 0.031723   | 0.29681    | 0.90773    |  45.5 | 16.48
Output  | 0          | 0          | 0          |   0.0 |  0.00
Modify  | 1.8925e-05 | 0.0025749  | 0.0055574  |   2.4 |  0.14
Other   |            | 0.1935     |            |       | 10.74

Nlocal:        2776.45 ave        3961 max           0 min
Histogram: 8 4 4 0 6 10 8 4 26 34
Nghost:        3879.07 ave        5424 max         232 min
Histogram: 8 0 8 0 16 0 8 8 16 40
Neighs:        79213.3 ave      115478 max           0 min
Histogram: 8 4 4 0 10 6 8 8 24 32

Total # of neighbors = 8238183
Ave neighs/atom = 28.530405
Neighbor list builds = 0
Dangerous builds = 0
The dot product: 3.92870073856841e-08
Setting atom values ...
  1 settings made for x
  1 settings made for y
  1 settings made for z
Setting up cg style minimization ...
  Unit style    : metal
  Current step  : 5607
Per MPI rank memory allocation (min/avg/max) = 5.441 | 5.816 | 6.074 Mbytes
Step PotEng KinEng TotEng v_fx v_fy v_fz 
    5607   -1152448.9            0   -1152448.9 0.0071836975 -0.0043654273  0.029550156 
    5769   -1152448.9            0   -1152448.9 -7.3487189e-06 -3.5781764e-06 2.6358454e-05 
Loop time of 1.90454 on 104 procs for 162 steps with 288751 atoms

99.9% CPU use with 104 MPI tasks x 1 OpenMP threads

Minimization stats:
  Stopping criterion = energy tolerance
  Energy initial, next-to-last, final = 
     -1152448.89772032  -1152448.89966152  -1152448.89966152
  Force two-norm initial, final = 0.22054213 0.00016218099
  Force max component initial, final = 0.19852165 2.6358454e-05
  Final line search alpha, max atom move = 1.0000000 2.6358454e-05
  Iterations, force evaluations = 162 324

MPI task timing breakdown:
Section |  min time  |  avg time  |  max time  |%varavg| %total
---------------------------------------------------------------
Pair    | 0.49112    | 1.3636     | 1.7769     |  31.3 | 71.60
Neigh   | 0          | 0          | 0          |   0.0 |  0.00
Comm    | 0.028663   | 0.3102     | 0.93522    |  46.4 | 16.29
Output  | 0          | 0          | 0          |   0.0 |  0.00
Modify  | 1.9306e-05 | 0.0026679  | 0.0057132  |   2.4 |  0.14
Other   |            | 0.2281     |            |       | 11.98

Nlocal:        2776.45 ave        3960 max           0 min
Histogram: 8 4 4 0 4 12 8 4 26 34
Nghost:        3879.07 ave        5424 max         232 min
Histogram: 8 0 8 0 16 0 8 8 16 40
Neighs:        79213.3 ave      115451 max           0 min
Histogram: 8 4 4 0 10 6 8 8 24 32

Total # of neighbors = 8238182
Ave neighs/atom = 28.530402
Neighbor list builds = 0
Dangerous builds = 0
The dot product: 1.13868129813713e-07
Setting atom values ...
  1 settings made for x
  1 settings made for y
  1 settings made for z
Setting up cg style minimization ...
  Unit style    : metal
  Current step  : 5769
Per MPI rank memory allocation (min/avg/max) = 5.441 | 5.816 | 6.074 Mbytes
Step PotEng KinEng TotEng v_fx v_fy v_fz 
    5769   -1152448.9            0   -1152448.9 0.0046790071 -0.0030181072  0.019413905 
    5939   -1152448.9            0   -1152448.9 -1.017065e-05 -2.841077e-06 2.0653697e-05 
Loop time of 1.94926 on 104 procs for 170 steps with 288751 atoms

99.9% CPU use with 104 MPI tasks x 1 OpenMP threads

Minimization stats:
  Stopping criterion = energy tolerance
  Energy initial, next-to-last, final = 
     -1152448.87613522  -1152448.87795157  -1152448.87795157
  Force two-norm initial, final = 0.21961516 0.00019821428
  Force max component initial, final = 0.2010227 2.0653697e-05
  Final line search alpha, max atom move = 1.0000000 2.0653697e-05
  Iterations, force evaluations = 170 340

MPI task timing breakdown:
Section |  min time  |  avg time  |  max time  |%varavg| %total
---------------------------------------------------------------
Pair    | 0.51304    | 1.427      | 1.8454     |  32.3 | 73.21
Neigh   | 0          | 0          | 0          |   0.0 |  0.00
Comm    | 0.036259   | 0.32038    | 1.0115     |  48.5 | 16.44
Output  | 0          | 0          | 0          |   0.0 |  0.00
Modify  | 2.0471e-05 | 0.002803   | 0.0059923  |   2.5 |  0.14
Other   |            | 0.1991     |            |       | 10.21

Nlocal:        2776.45 ave        3960 max           0 min
Histogram: 8 4 4 0 4 12 8 4 26 34
Nghost:        3879.07 ave        5424 max         232 min
Histogram: 8 0 8 0 16 0 8 8 16 40
Neighs:        79213.3 ave      115450 max           0 min
Histogram: 8 4 4 0 10 6 8 8 24 32

Total # of neighbors = 8238180
Ave neighs/atom = 28.530395
Neighbor list builds = 0
Dangerous builds = 0
The dot product: 4.16640636321595e-08
Setting atom values ...
  1 settings made for x
  1 settings made for y
  1 settings made for z
Setting up cg style minimization ...
  Unit style    : metal
  Current step  : 5939
Per MPI rank memory allocation (min/avg/max) = 5.441 | 5.816 | 6.074 Mbytes
Step PotEng KinEng TotEng v_fx v_fy v_fz 
    5939   -1152448.9            0   -1152448.9 0.0032086133 -0.0020572229  0.012962591 
    6000   -1152448.9            0   -1152448.9 0.00017711036 2.6162226e-05 -0.00019950349 
    6140   -1152448.9            0   -1152448.9 -1.6738486e-06 -4.0097807e-07 2.8922166e-06 
Loop time of 2.31677 on 104 procs for 201 steps with 288751 atoms

99.9% CPU use with 104 MPI tasks x 1 OpenMP threads

Minimization stats:
  Stopping criterion = energy tolerance
  Energy initial, next-to-last, final = 
     -1152448.85238012  -1152448.85431287  -1152448.85431287
  Force two-norm initial, final = 0.22371429 7.3706423e-05
  Force max component initial, final = 0.20358684 2.3156416e-05
  Final line search alpha, max atom move = 1.0000000 2.3156416e-05
  Iterations, force evaluations = 201 402

MPI task timing breakdown:
Section |  min time  |  avg time  |  max time  |%varavg| %total
---------------------------------------------------------------
Pair    | 0.60501    | 1.6818     | 2.1928     |  35.1 | 72.59
Neigh   | 0          | 0          | 0          |   0.0 |  0.00
Comm    | 0.040201   | 0.37809    | 1.1712     |  51.9 | 16.32
Output  | 0.0001501  | 0.00015588 | 0.00026407 |   0.0 |  0.01
Modify  | 2.4083e-05 | 0.0033145  | 0.0071308  |   2.7 |  0.14
Other   |            | 0.2534     |            |       | 10.94

Nlocal:        2776.45 ave        3960 max           0 min
Histogram: 8 4 4 0 4 12 8 4 26 34
Nghost:        3879.07 ave        5424 max         232 min
Histogram: 8 0 8 0 16 0 8 8 16 40
Neighs:        79213.3 ave      115449 max           0 min
Histogram: 8 4 4 0 10 6 8 8 24 32

Total # of neighbors = 8238179
Ave neighs/atom = 28.530391
Neighbor list builds = 0
Dangerous builds = 0
The dot product: 2.90731581347241e-09
Setting atom values ...
  1 settings made for x
  1 settings made for y
  1 settings made for z
Setting up cg style minimization ...
  Unit style    : metal
  Current step  : 6140
Per MPI rank memory allocation (min/avg/max) = 5.441 | 5.816 | 6.074 Mbytes
Step PotEng KinEng TotEng v_fx v_fy v_fz 
    6140   -1152448.8            0   -1152448.8 0.0024881161 -0.0015276666  0.009559592 
    6324   -1152448.8            0   -1152448.8 -2.1919758e-07 6.6172461e-07 -4.2715004e-06 
Loop time of 2.11608 on 104 procs for 184 steps with 288751 atoms

99.9% CPU use with 104 MPI tasks x 1 OpenMP threads

Minimization stats:
  Stopping criterion = energy tolerance
  Energy initial, next-to-last, final = 
     -1152448.82649332  -1152448.82853721  -1152448.82853721
  Force two-norm initial, final = 0.22835472 0.00013082649
  Force max component initial, final = 0.20615915 2.6850815e-05
  Final line search alpha, max atom move = 1.0000000 2.6850815e-05
  Iterations, force evaluations = 184 368

MPI task timing breakdown:
Section |  min time  |  avg time  |  max time  |%varavg| %total
---------------------------------------------------------------
Pair    | 0.55504    | 1.5416     | 2.0054     |  33.6 | 72.85
Neigh   | 0          | 0          | 0          |   0.0 |  0.00
Comm    | 0.043386   | 0.34738    | 1.0579     |  49.6 | 16.42
Output  | 0          | 0          | 0          |   0.0 |  0.00
Modify  | 2.2865e-05 | 0.0030299  | 0.0064906  |   2.6 |  0.14
Other   |            | 0.224      |            |       | 10.59

Nlocal:        2776.45 ave        3960 max           0 min
Histogram: 8 4 4 0 4 12 8 4 26 34
Nghost:        3879.07 ave        5424 max         232 min
Histogram: 8 0 8 0 16 0 8 8 16 40
Neighs:        79213.2 ave      115447 max           0 min
Histogram: 8 4 4 0 10 6 8 8 24 32

Total # of neighbors = 8238176
Ave neighs/atom = 28.530381
Neighbor list builds = 0
Dangerous builds = 0
The dot product: 9.88726433514793e-11
Setting up cg style minimization ...
  Unit style    : metal
  Current step  : 6324
Per MPI rank memory allocation (min/avg/max) = 5.441 | 5.816 | 6.074 Mbytes
Step PotEng KinEng TotEng v_fx v_fy v_fz 
    6324   -1152448.8            0   -1152448.8 -0.031078279   -1.3284583  -0.20420928 
    6616   -1152449.5            0   -1152449.5 6.3269171e-06 -1.6422453e-08 -1.8200103e-06 
Loop time of 3.37921 on 104 procs for 292 steps with 288751 atoms

99.9% CPU use with 104 MPI tasks x 1 OpenMP threads

Minimization stats:
  Stopping criterion = energy tolerance
  Energy initial, next-to-last, final = 
     -1152448.82853721  -1152449.45035286  -1152449.45035286
  Force two-norm initial, final = 1.3444214 3.6408174e-05
  Force max component initial, final = 1.3284583 7.5765883e-06
  Final line search alpha, max atom move = 1.0000000 7.5765883e-06
  Iterations, force evaluations = 292 579

MPI task timing breakdown:
Section |  min time  |  avg time  |  max time  |%varavg| %total
---------------------------------------------------------------
Pair    | 0.90746    | 2.4313     | 3.1663     |  41.3 | 71.95
Neigh   | 4.0341e-05 | 0.011844   | 0.017139   |   4.5 |  0.35
Comm    | 0.069198   | 0.54734    | 1.6832     |  61.9 | 16.20
Output  | 0          | 0          | 0          |   0.0 |  0.00
Modify  | 3.3664e-05 | 0.0031065  | 0.0080035  |   3.5 |  0.09
Other   |            | 0.3857     |            |       | 11.41

Nlocal:        2776.45 ave        3960 max           0 min
Histogram: 8 4 4 0 4 12 8 4 26 34
Nghost:        3879.07 ave        5424 max         232 min
Histogram: 8 0 8 0 16 0 8 8 16 40
Neighs:        79213.4 ave      115438 max           0 min
Histogram: 8 4 4 0 10 6 8 8 24 32

Total # of neighbors = 8238189
Ave neighs/atom = 28.530426
Neighbor list builds = 4
Dangerous builds = 0
