LAMMPS (29 Oct 2020)
OMP_NUM_THREADS environment is not set. Defaulting to 1 thread. (../comm.cpp:94)
  using 1 OpenMP thread(s) per MPI task
OMP_NUM_THREADS environment is not set. Defaulting to 1 thread. (../comm.cpp:94)
  using 1 OpenMP thread(s) per MPI task
Reading data file ...
  orthogonal box = (-122.39241 -121.13707 -37.090501) to (122.39241 121.13707 37.090501)
  13 by 4 by 2 MPI processor grid
  reading atoms ...
  288751 atoms
  read_data CPU = 0.486 seconds
199981 atoms in group inner
88770 atoms in group outer
1 atoms in group carbon
Neighbor list info ...
  update every 1 steps, delay 0 steps, check yes
  max neighbors/atom: 2000, page size: 100000
  master list distance cutoff = 5.6
  ghost atom cutoff = 5.6
  binsize = 2.8, bins = 88 87 27
  1 neighbor lists, perpetual/occasional/extra = 1 0 0
  (1) pair eam/alloy, perpetual
      attributes: half, newton on
      pair build: half/bin/atomonly/newton
      stencil: half/bin/3d/newton
      bin: standard
Setting up cg style minimization ...
  Unit style    : metal
  Current step  : 0
Per MPI rank memory allocation (min/avg/max) = 5.441 | 5.816 | 6.074 Mbytes
Step v_fx v_fy v_fz PotEng KinEng TotEng 
       0    25.837903  -0.40573576   -13.153562   -1152441.8            0   -1152441.8 
     232 -8.3931676e-06 1.3197538e-07 7.3784857e-06     -1152449            0     -1152449 
Loop time of 2.74166 on 104 procs for 232 steps with 288751 atoms

99.9% CPU use with 104 MPI tasks x 1 OpenMP threads

Minimization stats:
  Stopping criterion = energy tolerance
  Energy initial, next-to-last, final = 
     -1152441.81310753  -1152448.97218898  -1152448.97218898
  Force two-norm initial, final = 47.282334 0.00013617494
  Force max component initial, final = 32.855934 1.6161082e-05
  Final line search alpha, max atom move = 1.0000000 1.6161082e-05
  Iterations, force evaluations = 232 460

MPI task timing breakdown:
Section |  min time  |  avg time  |  max time  |%varavg| %total
---------------------------------------------------------------
Pair    | 0.73831    | 1.9468     | 2.5323     |  36.7 | 71.01
Neigh   | 9.1642e-05 | 0.024587   | 0.03655    |   6.5 |  0.90
Comm    | 0.051187   | 0.44709    | 1.3175     |  54.3 | 16.31
Output  | 0          | 0          | 0          |   0.0 |  0.00
Modify  | 2.581e-05  | 0.0024976  | 0.006533   |   3.1 |  0.09
Other   |            | 0.3206     |            |       | 11.69

Nlocal:        2776.45 ave        3953 max           0 min
Histogram: 8 4 4 0 4 12 8 0 30 34
Nghost:        3879.10 ave        5424 max         232 min
Histogram: 8 0 8 0 16 0 8 8 16 40
Neighs:        79213.6 ave      115219 max           0 min
Histogram: 8 4 4 0 10 6 8 8 24 32

Total # of neighbors = 8238211
Ave neighs/atom = 28.530502
Neighbor list builds = 8
Dangerous builds = 0
Setting atom values ...
  1 settings made for x
  1 settings made for y
  1 settings made for z
Setting up cg style minimization ...
  Unit style    : metal
  Current step  : 232
Per MPI rank memory allocation (min/avg/max) = 5.441 | 5.816 | 6.074 Mbytes
Step PotEng KinEng TotEng v_fx v_fy v_fz 
     232     -1152449            0     -1152449  0.019348437   -0.0194355 -0.013810955 
     349     -1152449            0     -1152449 -2.9403435e-05 3.8798328e-05 5.0561413e-05 
Loop time of 1.37379 on 104 procs for 117 steps with 288751 atoms

99.9% CPU use with 104 MPI tasks x 1 OpenMP threads

Minimization stats:
  Stopping criterion = energy tolerance
  Energy initial, next-to-last, final = 
     -1152448.97138214  -1152448.97192997  -1152448.97192997
  Force two-norm initial, final = 0.10753132 0.00019215501
  Force max component initial, final = 0.047306787 5.0561413e-05
  Final line search alpha, max atom move = 1.0000000 5.0561413e-05
  Iterations, force evaluations = 117 234

MPI task timing breakdown:
Section |  min time  |  avg time  |  max time  |%varavg| %total
---------------------------------------------------------------
Pair    | 0.35609    | 0.99098    | 1.2821     |  26.8 | 72.13
Neigh   | 0          | 0          | 0          |   0.0 |  0.00
Comm    | 0.024517   | 0.22052    | 0.66152    |  39.4 | 16.05
Output  | 0          | 0          | 0          |   0.0 |  0.00
Modify  | 1.4122e-05 | 0.0019378  | 0.0041534  |   2.1 |  0.14
Other   |            | 0.1603     |            |       | 11.67

Nlocal:        2776.45 ave        3952 max           0 min
Histogram: 8 4 4 0 4 12 8 1 29 34
Nghost:        3879.16 ave        5425 max         232 min
Histogram: 8 0 8 0 16 0 8 8 16 40
Neighs:        79213.5 ave      115181 max           0 min
Histogram: 8 4 4 0 10 6 8 8 24 32

Total # of neighbors = 8238205
Ave neighs/atom = 28.530481
Neighbor list builds = 0
Dangerous builds = 0
Setting atom values ...
  1 settings made for x
  1 settings made for y
  1 settings made for z
Setting up cg style minimization ...
  Unit style    : metal
  Current step  : 349
Per MPI rank memory allocation (min/avg/max) = 5.441 | 5.816 | 6.074 Mbytes
Step PotEng KinEng TotEng v_fx v_fy v_fz 
     349     -1152449            0     -1152449  0.029844472 -0.033175178 -0.027276148 
     534     -1152449            0     -1152449 -6.1868284e-06 8.8899881e-06 1.0906809e-05 
Loop time of 2.13257 on 104 procs for 185 steps with 288751 atoms

99.9% CPU use with 104 MPI tasks x 1 OpenMP threads

Minimization stats:
  Stopping criterion = energy tolerance
  Energy initial, next-to-last, final = 
     -1152448.96876656  -1152448.97028675  -1152448.97028675
  Force two-norm initial, final = 0.1795092 9.5190836e-05
  Force max component initial, final = 0.078428538 1.3850096e-05
  Final line search alpha, max atom move = 1.0000000 1.3850096e-05
  Iterations, force evaluations = 185 370

MPI task timing breakdown:
Section |  min time  |  avg time  |  max time  |%varavg| %total
---------------------------------------------------------------
Pair    | 0.55829    | 1.5474     | 2.0168     |  33.7 | 72.56
Neigh   | 0          | 0          | 0          |   0.0 |  0.00
Comm    | 0.035007   | 0.34425    | 1.0392     |  50.0 | 16.14
Output  | 0          | 0          | 0          |   0.0 |  0.00
Modify  | 2.1733e-05 | 0.0030476  | 0.0065459  |   2.6 |  0.14
Other   |            | 0.2378     |            |       | 11.15

Nlocal:        2776.45 ave        3952 max           0 min
Histogram: 8 4 4 0 4 12 8 1 29 34
Nghost:        3879.16 ave        5425 max         232 min
Histogram: 8 0 8 0 16 0 8 8 16 40
Neighs:        79213.5 ave      115178 max           0 min
Histogram: 8 4 4 0 10 6 8 8 24 32

Total # of neighbors = 8238202
Ave neighs/atom = 28.530471
Neighbor list builds = 0
Dangerous builds = 0
The dot product: 1.15155765919688e-08
Setting atom values ...
  1 settings made for x
  1 settings made for y
  1 settings made for z
Setting up cg style minimization ...
  Unit style    : metal
  Current step  : 534
Per MPI rank memory allocation (min/avg/max) = 5.441 | 5.816 | 6.074 Mbytes
Step PotEng KinEng TotEng v_fx v_fy v_fz 
     534     -1152449            0     -1152449  0.023814504 -0.032526129  -0.03361663 
     713     -1152449            0     -1152449 -1.9521857e-06 4.2551466e-06 6.519725e-06 
Loop time of 2.08797 on 104 procs for 179 steps with 288751 atoms

99.9% CPU use with 104 MPI tasks x 1 OpenMP threads

Minimization stats:
  Stopping criterion = energy tolerance
  Energy initial, next-to-last, final = 
     -1152448.96542671  -1152448.96698633  -1152448.96698633
  Force two-norm initial, final = 0.18100353 0.00014041404
  Force max component initial, final = 0.080071765 3.0102155e-05
  Final line search alpha, max atom move = 1.0000000 3.0102155e-05
  Iterations, force evaluations = 179 358

MPI task timing breakdown:
Section |  min time  |  avg time  |  max time  |%varavg| %total
---------------------------------------------------------------
Pair    | 0.54125    | 1.5074     | 1.9682     |  33.2 | 72.19
Neigh   | 0          | 0          | 0          |   0.0 |  0.00
Comm    | 0.033669   | 0.33917    | 1.0227     |  48.9 | 16.24
Output  | 0          | 0          | 0          |   0.0 |  0.00
Modify  | 2.1454e-05 | 0.0029591  | 0.0063328  |   2.6 |  0.14
Other   |            | 0.2385     |            |       | 11.42

Nlocal:        2776.45 ave        3952 max           0 min
Histogram: 8 4 4 0 4 12 8 1 29 34
Nghost:        3879.16 ave        5425 max         232 min
Histogram: 8 0 8 0 16 0 8 8 16 40
Neighs:        79213.5 ave      115175 max           0 min
Histogram: 8 4 4 0 10 6 8 8 24 32

Total # of neighbors = 8238203
Ave neighs/atom = 28.530474
Neighbor list builds = 0
Dangerous builds = 0
The dot product: 3.3173382071063e-09
Setting atom values ...
  1 settings made for x
  1 settings made for y
  1 settings made for z
Setting up cg style minimization ...
  Unit style    : metal
  Current step  : 713
Per MPI rank memory allocation (min/avg/max) = 5.441 | 5.816 | 6.074 Mbytes
Step PotEng KinEng TotEng v_fx v_fy v_fz 
     713     -1152449            0     -1152449  0.016182224  -0.03064524 -0.041459626 
     910     -1152449            0     -1152449 -5.0961119e-06 8.3256679e-06 9.9341611e-06 
Loop time of 2.28265 on 104 procs for 197 steps with 288751 atoms

99.9% CPU use with 104 MPI tasks x 1 OpenMP threads

Minimization stats:
  Stopping criterion = energy tolerance
  Energy initial, next-to-last, final = 
     -1152448.96034297  -1152448.96194493  -1152448.96194493
  Force two-norm initial, final = 0.18256695 7.7095158e-05
  Force max component initial, final = 0.081088547 1.2467660e-05
  Final line search alpha, max atom move = 1.0000000 1.2467660e-05
  Iterations, force evaluations = 197 394

MPI task timing breakdown:
Section |  min time  |  avg time  |  max time  |%varavg| %total
---------------------------------------------------------------
Pair    | 0.59547    | 1.6466     | 2.1584     |  34.7 | 72.13
Neigh   | 0          | 0          | 0          |   0.0 |  0.00
Comm    | 0.035545   | 0.36861    | 1.104      |  51.3 | 16.15
Output  | 0          | 0          | 0          |   0.0 |  0.00
Modify  | 2.3762e-05 | 0.0032544  | 0.0069794  |   2.7 |  0.14
Other   |            | 0.2642     |            |       | 11.57

Nlocal:        2776.45 ave        3952 max           0 min
Histogram: 8 4 4 0 4 12 8 2 28 34
Nghost:        3879.16 ave        5425 max         232 min
Histogram: 8 0 8 0 16 0 8 8 16 40
Neighs:        79213.5 ave      115172 max           0 min
Histogram: 8 4 4 0 10 6 8 8 24 32

Total # of neighbors = 8238205
Ave neighs/atom = 28.530481
Neighbor list builds = 0
Dangerous builds = 0
The dot product: -4.57447997193062e-09
Setting atom values ...
  1 settings made for x
  1 settings made for y
  1 settings made for z
Setting up cg style minimization ...
  Unit style    : metal
  Current step  : 910
Per MPI rank memory allocation (min/avg/max) = 5.441 | 5.816 | 6.074 Mbytes
Step PotEng KinEng TotEng v_fx v_fy v_fz 
     910     -1152449            0     -1152449 0.0061271002 -0.026283054 -0.054770509 
    1000     -1152449            0     -1152449 3.6656163e-05 -5.9212874e-05 -7.1339937e-05 
    1045     -1152449            0     -1152449 -1.6007808e-05 2.6027808e-05 3.1597349e-05 
Loop time of 1.56264 on 104 procs for 135 steps with 288751 atoms

99.9% CPU use with 104 MPI tasks x 1 OpenMP threads

Minimization stats:
  Stopping criterion = energy tolerance
  Energy initial, next-to-last, final = 
     -1152448.95356417  -1152448.95524048  -1152448.95524048
  Force two-norm initial, final = 0.18468618 0.0001450359
  Force max component initial, final = 0.081217737 3.1597349e-05
  Final line search alpha, max atom move = 1.0000000 3.1597349e-05
  Iterations, force evaluations = 135 270

MPI task timing breakdown:
Section |  min time  |  avg time  |  max time  |%varavg| %total
---------------------------------------------------------------
Pair    | 0.4094     | 1.1365     | 1.4735     |  28.8 | 72.73
Neigh   | 0          | 0          | 0          |   0.0 |  0.00
Comm    | 0.023201   | 0.25217    | 0.76163    |  42.6 | 16.14
Output  | 0.00015578 | 0.00016158 | 0.00027992 |   0.0 |  0.01
Modify  | 1.6012e-05 | 0.0022285  | 0.0048036  |   2.2 |  0.14
Other   |            | 0.1716     |            |       | 10.98

Nlocal:        2776.45 ave        3952 max           0 min
Histogram: 8 4 4 0 4 12 8 2 28 34
Nghost:        3879.18 ave        5425 max         232 min
Histogram: 8 0 8 0 16 0 8 8 16 40
Neighs:        79213.5 ave      115167 max           0 min
Histogram: 8 4 4 0 10 6 8 8 24 32

Total # of neighbors = 8238207
Ave neighs/atom = 28.530488
Neighbor list builds = 0
Dangerous builds = 0
The dot product: -1.08475277971146e-07
Setting atom values ...
  1 settings made for x
  1 settings made for y
  1 settings made for z
Setting up cg style minimization ...
  Unit style    : metal
  Current step  : 1045
Per MPI rank memory allocation (min/avg/max) = 5.441 | 5.816 | 6.074 Mbytes
Step PotEng KinEng TotEng v_fx v_fy v_fz 
    1045   -1152448.9            0   -1152448.9 -0.0049040511  -0.01673471 -0.076303572 
    1218   -1152448.9            0   -1152448.9 -1.1889234e-05 1.9272445e-05 2.7644234e-05 
Loop time of 2.00466 on 104 procs for 173 steps with 288751 atoms

99.9% CPU use with 104 MPI tasks x 1 OpenMP threads

Minimization stats:
  Stopping criterion = energy tolerance
  Energy initial, next-to-last, final = 
      -1152448.9453553  -1152448.94721934  -1152448.94721934
  Force two-norm initial, final = 0.1893297 0.00013373122
  Force max component initial, final = 0.079845003 3.9651769e-05
  Final line search alpha, max atom move = 1.0000000 3.9651769e-05
  Iterations, force evaluations = 173 346

MPI task timing breakdown:
Section |  min time  |  avg time  |  max time  |%varavg| %total
---------------------------------------------------------------
Pair    | 0.52029    | 1.448      | 1.8919     |  32.5 | 72.23
Neigh   | 0          | 0          | 0          |   0.0 |  0.00
Comm    | 0.0316     | 0.32463    | 0.98547    |  48.0 | 16.19
Output  | 0          | 0          | 0          |   0.0 |  0.00
Modify  | 2.0958e-05 | 0.0028507  | 0.0061133  |   2.5 |  0.14
Other   |            | 0.2292     |            |       | 11.43

Nlocal:        2776.45 ave        3952 max           0 min
Histogram: 8 4 4 0 4 12 8 2 28 34
Nghost:        3879.18 ave        5425 max         232 min
Histogram: 8 0 8 0 16 0 8 8 16 40
Neighs:        79213.5 ave      115167 max           0 min
Histogram: 8 4 4 0 10 6 8 8 24 32

Total # of neighbors = 8238208
Ave neighs/atom = 28.530492
Neighbor list builds = 0
Dangerous builds = 0
The dot product: -2.3996632804107e-07
Setting atom values ...
  1 settings made for x
  1 settings made for y
  1 settings made for z
Setting up cg style minimization ...
  Unit style    : metal
  Current step  : 1218
Per MPI rank memory allocation (min/avg/max) = 5.441 | 5.816 | 6.074 Mbytes
Step PotEng KinEng TotEng v_fx v_fy v_fz 
    1218   -1152448.9            0   -1152448.9 -0.0094922039 -0.00065155635  -0.09813884 
    1435   -1152448.9            0   -1152448.9 -7.0198839e-09 5.8130172e-07 5.0954036e-06 
Loop time of 2.50762 on 104 procs for 217 steps with 288751 atoms

99.9% CPU use with 104 MPI tasks x 1 OpenMP threads

Minimization stats:
  Stopping criterion = energy tolerance
  Energy initial, next-to-last, final = 
     -1152448.93620729  -1152448.93842305  -1152448.93842305
  Force two-norm initial, final = 0.1954712 8.0882657e-05
  Force max component initial, final = 0.09813884 2.7568468e-05
  Final line search alpha, max atom move = 1.0000000 2.7568468e-05
  Iterations, force evaluations = 217 434

MPI task timing breakdown:
Section |  min time  |  avg time  |  max time  |%varavg| %total
---------------------------------------------------------------
Pair    | 0.65493    | 1.8215     | 2.3673     |  36.4 | 72.64
Neigh   | 0          | 0          | 0          |   0.0 |  0.00
Comm    | 0.039518   | 0.403      | 1.2243     |  54.5 | 16.07
Output  | 0          | 0          | 0          |   0.0 |  0.00
Modify  | 2.5579e-05 | 0.0035764  | 0.007677   |   2.8 |  0.14
Other   |            | 0.2795     |            |       | 11.15

Nlocal:        2776.45 ave        3952 max           0 min
Histogram: 8 4 4 0 4 12 8 2 28 34
Nghost:        3879.14 ave        5425 max         232 min
Histogram: 8 0 8 0 16 0 8 8 16 40
Neighs:        79213.5 ave      115168 max           0 min
Histogram: 8 4 4 0 10 6 8 8 24 32

Total # of neighbors = 8238204
Ave neighs/atom = 28.530478
Neighbor list builds = 0
Dangerous builds = 0
The dot product: -1.03232970328687e-07
Setting atom values ...
  1 settings made for x
  1 settings made for y
  1 settings made for z
Setting up cg style minimization ...
  Unit style    : metal
  Current step  : 1435
Per MPI rank memory allocation (min/avg/max) = 5.441 | 5.816 | 6.074 Mbytes
Step PotEng KinEng TotEng v_fx v_fy v_fz 
    1435   -1152448.9            0   -1152448.9 -0.0038201661  0.018851495  -0.10991734 
    1998   -1152448.9            0   -1152448.9 -6.6515994e-06 6.2911921e-06 1.6012501e-05 
Loop time of 6.50701 on 104 procs for 563 steps with 288751 atoms

99.9% CPU use with 104 MPI tasks x 1 OpenMP threads

Minimization stats:
  Stopping criterion = energy tolerance
  Energy initial, next-to-last, final = 
     -1152448.92657106  -1152448.92927827  -1152448.92927827
  Force two-norm initial, final = 0.19734042 9.2528124e-05
  Force max component initial, final = 0.10991734 2.6619700e-05
  Final line search alpha, max atom move = 1.0000000 2.6619700e-05
  Iterations, force evaluations = 563 1126

MPI task timing breakdown:
Section |  min time  |  avg time  |  max time  |%varavg| %total
---------------------------------------------------------------
Pair    | 1.6973     | 4.7039     | 6.1448     |  58.7 | 72.29
Neigh   | 0          | 0          | 0          |   0.0 |  0.00
Comm    | 0.10647    | 1.0517     | 3.2035     |  86.8 | 16.16
Output  | 0          | 0          | 0          |   0.0 |  0.00
Modify  | 6.6465e-05 | 0.0092553  | 0.020457   |   4.5 |  0.14
Other   |            | 0.7421     |            |       | 11.40

Nlocal:        2776.45 ave        3951 max           0 min
Histogram: 8 4 4 0 4 12 8 2 28 34
Nghost:        3879.16 ave        5425 max         232 min
Histogram: 8 0 8 0 16 0 8 8 16 40
Neighs:        79213.5 ave      115160 max           0 min
Histogram: 8 4 4 0 10 6 8 8 24 32

Total # of neighbors = 8238208
Ave neighs/atom = 28.530492
Neighbor list builds = 0
Dangerous builds = 0
The dot product: -4.30611084473827e-07
Setting atom values ...
  1 settings made for x
  1 settings made for y
  1 settings made for z
Setting up cg style minimization ...
  Unit style    : metal
  Current step  : 1998
Per MPI rank memory allocation (min/avg/max) = 5.441 | 5.816 | 6.074 Mbytes
Step PotEng KinEng TotEng v_fx v_fy v_fz 
    1998   -1152448.9            0   -1152448.9  0.014140488  0.041112918   -0.1205256 
    2000   -1152448.9            0   -1152448.9 0.0085737777 0.0015069576 -0.027074443 
    2226   -1152448.9            0   -1152448.9 -1.8868312e-05 1.3965353e-05 2.5637851e-05 
Loop time of 2.64667 on 104 procs for 228 steps with 288751 atoms

99.9% CPU use with 104 MPI tasks x 1 OpenMP threads

Minimization stats:
  Stopping criterion = energy tolerance
  Energy initial, next-to-last, final = 
     -1152448.91671365  -1152448.92039481  -1152448.92039481
  Force two-norm initial, final = 0.20079236 0.00015194651
  Force max component initial, final = 0.1205256 4.6021342e-05
  Final line search alpha, max atom move = 1.0000000 4.6021342e-05
  Iterations, force evaluations = 228 456

MPI task timing breakdown:
Section |  min time  |  avg time  |  max time  |%varavg| %total
---------------------------------------------------------------
Pair    | 0.68741    | 1.9189     | 2.4874     |  37.4 | 72.50
Neigh   | 0          | 0          | 0          |   0.0 |  0.00
Comm    | 0.045884   | 0.42615    | 1.2955     |  55.5 | 16.10
Output  | 8.6699e-05 | 9.6684e-05 | 0.00014769 |   0.0 |  0.00
Modify  | 2.6984e-05 | 0.0037543  | 0.0080473  |   2.9 |  0.14
Other   |            | 0.2978     |            |       | 11.25

Nlocal:        2776.45 ave        3951 max           0 min
Histogram: 8 4 4 0 4 12 8 2 28 34
Nghost:        3879.08 ave        5424 max         232 min
Histogram: 8 0 8 0 16 0 8 8 16 40
Neighs:        79213.5 ave      115160 max           0 min
Histogram: 8 4 4 0 10 6 8 8 24 32

Total # of neighbors = 8238199
Ave neighs/atom = 28.530461
Neighbor list builds = 0
Dangerous builds = 0
The dot product: -8.40586892754584e-07
Setting atom values ...
  1 settings made for x
  1 settings made for y
  1 settings made for z
Setting up cg style minimization ...
  Unit style    : metal
  Current step  : 2226
Per MPI rank memory allocation (min/avg/max) = 5.441 | 5.816 | 6.074 Mbytes
Step PotEng KinEng TotEng v_fx v_fy v_fz 
    2226   -1152448.9            0   -1152448.9  0.032364005   0.06371243  -0.11013237 
    2467   -1152448.9            0   -1152448.9 -1.9166528e-05 8.5334194e-07 2.8958502e-05 
Loop time of 2.79173 on 104 procs for 241 steps with 288751 atoms

99.9% CPU use with 104 MPI tasks x 1 OpenMP threads

Minimization stats:
  Stopping criterion = energy tolerance
  Energy initial, next-to-last, final = 
     -1152448.90716114  -1152448.92005637  -1152448.92005637
  Force two-norm initial, final = 0.19806973 0.00026184922
  Force max component initial, final = 0.11013237 8.4192930e-05
  Final line search alpha, max atom move = 1.0000000 8.4192930e-05
  Iterations, force evaluations = 241 482

MPI task timing breakdown:
Section |  min time  |  avg time  |  max time  |%varavg| %total
---------------------------------------------------------------
Pair    | 0.72962    | 2.0208     | 2.6228     |  38.4 | 72.38
Neigh   | 1.0995e-05 | 0.0029504  | 0.0042624  |   2.2 |  0.11
Comm    | 0.042553   | 0.44752    | 1.3651     |  57.6 | 16.03
Output  | 0          | 0          | 0          |   0.0 |  0.00
Modify  | 2.8152e-05 | 0.003967   | 0.0085233  |   3.0 |  0.14
Other   |            | 0.3165     |            |       | 11.34

Nlocal:        2776.45 ave        3957 max           0 min
Histogram: 8 4 4 0 4 12 8 2 28 34
Nghost:        3879.10 ave        5425 max         232 min
Histogram: 8 0 8 0 16 0 8 8 16 40
Neighs:        79213.4 ave      115349 max           0 min
Histogram: 8 4 4 0 10 6 8 8 24 32

Total # of neighbors = 8238193
Ave neighs/atom = 28.530440
Neighbor list builds = 1
Dangerous builds = 0
The dot product: -5.31420080744603e-06
Setting atom values ...
  1 settings made for x
  1 settings made for y
  1 settings made for z
Setting up cg style minimization ...
  Unit style    : metal
  Current step  : 2467
Per MPI rank memory allocation (min/avg/max) = 5.441 | 5.816 | 6.074 Mbytes
Step PotEng KinEng TotEng v_fx v_fy v_fz 
    2467   -1152448.9            0   -1152448.9    0.1848215    0.1820803   -0.1022344 
    2683   -1152448.9            0   -1152448.9 -5.6939157e-05 -2.3356499e-06 2.1578968e-05 
Loop time of 2.52467 on 104 procs for 216 steps with 288751 atoms

99.9% CPU use with 104 MPI tasks x 1 OpenMP threads

Minimization stats:
  Stopping criterion = energy tolerance
  Energy initial, next-to-last, final = 
      -1152448.9103379  -1152448.92599355  -1152448.92599355
  Force two-norm initial, final = 0.32154626 0.00027061502
  Force max component initial, final = 0.1848215 0.00011269783
  Final line search alpha, max atom move = 1.0000000 0.00011269783
  Iterations, force evaluations = 216 432

MPI task timing breakdown:
Section |  min time  |  avg time  |  max time  |%varavg| %total
---------------------------------------------------------------
Pair    | 0.65869    | 1.8172     | 2.3677     |  36.3 | 71.98
Neigh   | 1.2034e-05 | 0.0029656  | 0.0042955  |   2.2 |  0.12
Comm    | 0.037882   | 0.4059     | 1.2331     |  53.8 | 16.08
Output  | 0          | 0          | 0          |   0.0 |  0.00
Modify  | 2.5146e-05 | 0.0035651  | 0.0076196  |   2.8 |  0.14
Other   |            | 0.295      |            |       | 11.68

Nlocal:        2776.45 ave        3957 max           0 min
Histogram: 8 4 4 0 4 12 8 2 28 34
Nghost:        3879.09 ave        5425 max         232 min
Histogram: 8 0 8 0 16 0 8 8 16 40
Neighs:        79213.5 ave      115357 max           0 min
Histogram: 8 4 4 0 10 6 8 8 24 32

Total # of neighbors = 8238204
Ave neighs/atom = 28.530478
Neighbor list builds = 1
Dangerous builds = 1
The dot product: -4.35626890955897e-06
Setting atom values ...
  1 settings made for x
  1 settings made for y
  1 settings made for z
Setting up cg style minimization ...
  Unit style    : metal
  Current step  : 2683
Per MPI rank memory allocation (min/avg/max) = 5.441 | 5.816 | 6.074 Mbytes
Step PotEng KinEng TotEng v_fx v_fy v_fz 
    2683   -1152448.9            0   -1152448.9  0.022208806   0.10759671 0.00017450128 
    2918   -1152448.9            0   -1152448.9 4.1134999e-06 -5.6221052e-07 -5.0483285e-07 
Loop time of 2.73623 on 104 procs for 235 steps with 288751 atoms

99.9% CPU use with 104 MPI tasks x 1 OpenMP threads

Minimization stats:
  Stopping criterion = energy tolerance
  Energy initial, next-to-last, final = 
      -1152448.9161523  -1152448.91980414  -1152448.91980414
  Force two-norm initial, final = 0.20575259 3.7781063e-05
  Force max component initial, final = 0.10759671 9.2515395e-06
  Final line search alpha, max atom move = 1.0000000 9.2515395e-06
  Iterations, force evaluations = 235 470

MPI task timing breakdown:
Section |  min time  |  avg time  |  max time  |%varavg| %total
---------------------------------------------------------------
Pair    | 0.70948    | 1.9652     | 2.5839     |  37.9 | 71.82
Neigh   | 0          | 0          | 0          |   0.0 |  0.00
Comm    | 0.04446    | 0.4426     | 1.3245     |  55.5 | 16.18
Output  | 0          | 0          | 0          |   0.0 |  0.00
Modify  | 2.7455e-05 | 0.0038722  | 0.0083052  |   2.9 |  0.14
Other   |            | 0.3245     |            |       | 11.86

Nlocal:        2776.45 ave        3957 max           0 min
Histogram: 8 4 4 0 4 12 8 2 28 34
Nghost:        3879.09 ave        5425 max         232 min
Histogram: 8 0 8 0 16 0 8 8 16 40
Neighs:        79213.4 ave      115341 max           0 min
Histogram: 8 4 4 0 10 6 8 8 24 32

Total # of neighbors = 8238197
Ave neighs/atom = 28.530454
Neighbor list builds = 0
Dangerous builds = 0
The dot product: 7.81580939858913e-08
Setting atom values ...
  1 settings made for x
  1 settings made for y
  1 settings made for z
Setting up cg style minimization ...
  Unit style    : metal
  Current step  : 2918
Per MPI rank memory allocation (min/avg/max) = 5.441 | 5.816 | 6.074 Mbytes
Step PotEng KinEng TotEng v_fx v_fy v_fz 
    2918   -1152448.9            0   -1152448.9  -0.04328589  0.051092112 0.0072723296 
    3000   -1152448.9            0   -1152448.9 -0.00010357861 1.003944e-05 6.0491119e-06 
    3130   -1152448.9            0   -1152448.9 -4.9746433e-06 1.0882576e-06 3.5184085e-07 
Loop time of 2.44306 on 104 procs for 212 steps with 288751 atoms

99.9% CPU use with 104 MPI tasks x 1 OpenMP threads

Minimization stats:
  Stopping criterion = energy tolerance
  Energy initial, next-to-last, final = 
     -1152448.90857283  -1152448.91052728  -1152448.91052728
  Force two-norm initial, final = 0.19060541 7.2607894e-05
  Force max component initial, final = 0.086918335 4.9746433e-06
  Final line search alpha, max atom move = 1.0000000 4.9746433e-06
  Iterations, force evaluations = 212 424

MPI task timing breakdown:
Section |  min time  |  avg time  |  max time  |%varavg| %total
---------------------------------------------------------------
Pair    | 0.64008    | 1.7787     | 2.3142     |  36.0 | 72.81
Neigh   | 0          | 0          | 0          |   0.0 |  0.00
Comm    | 0.037131   | 0.39528    | 1.1924     |  53.3 | 16.18
Output  | 0.0001421  | 0.00014648 | 0.00024946 |   0.0 |  0.01
Modify  | 2.5185e-05 | 0.0034891  | 0.0074987  |   2.8 |  0.14
Other   |            | 0.2654     |            |       | 10.86

Nlocal:        2776.45 ave        3958 max           0 min
Histogram: 8 4 4 0 4 12 8 2 28 34
Nghost:        3879.10 ave        5426 max         232 min
Histogram: 8 0 8 0 16 0 8 8 16 40
Neighs:        79213.4 ave      115393 max           0 min
Histogram: 8 4 4 0 10 6 8 8 24 32

Total # of neighbors = 8238197
Ave neighs/atom = 28.530454
Neighbor list builds = 0
Dangerous builds = 0
The dot product: -2.0631932793399e-08
Setting atom values ...
  1 settings made for x
  1 settings made for y
  1 settings made for z
Setting up cg style minimization ...
  Unit style    : metal
  Current step  : 3130
Per MPI rank memory allocation (min/avg/max) = 5.441 | 5.816 | 6.074 Mbytes
Step PotEng KinEng TotEng v_fx v_fy v_fz 
    3130   -1152448.9            0   -1152448.9  -0.06580867  0.029457987 0.0057386702 
    3299   -1152448.9            0   -1152448.9 5.6360361e-05 -1.044876e-05 -3.0498935e-06 
Loop time of 1.96152 on 104 procs for 169 steps with 288751 atoms

99.9% CPU use with 104 MPI tasks x 1 OpenMP threads

Minimization stats:
  Stopping criterion = energy tolerance
  Energy initial, next-to-last, final = 
     -1152448.89780562   -1152448.8996231   -1152448.8996231
  Force two-norm initial, final = 0.19370967 0.00017930134
  Force max component initial, final = 0.085785046 6.1603168e-05
  Final line search alpha, max atom move = 1.0000000 6.1603168e-05
  Iterations, force evaluations = 169 338

MPI task timing breakdown:
Section |  min time  |  avg time  |  max time  |%varavg| %total
---------------------------------------------------------------
Pair    | 0.51199    | 1.4154     | 1.8539     |  32.1 | 72.16
Neigh   | 0          | 0          | 0          |   0.0 |  0.00
Comm    | 0.03255    | 0.31711    | 0.96197    |  47.6 | 16.17
Output  | 0          | 0          | 0          |   0.0 |  0.00
Modify  | 2.0218e-05 | 0.0027889  | 0.0059736  |   2.5 |  0.14
Other   |            | 0.2262     |            |       | 11.53

Nlocal:        2776.45 ave        3958 max           0 min
Histogram: 8 4 4 0 4 12 8 2 28 34
Nghost:        3879.11 ave        5426 max         232 min
Histogram: 8 0 8 0 16 0 8 8 16 40
Neighs:        79213.4 ave      115394 max           0 min
Histogram: 8 4 4 0 10 6 8 8 24 32

Total # of neighbors = 8238198
Ave neighs/atom = 28.530457
Neighbor list builds = 0
Dangerous builds = 0
The dot product: 9.34379582095323e-09
Setting atom values ...
  1 settings made for x
  1 settings made for y
  1 settings made for z
Setting up cg style minimization ...
  Unit style    : metal
  Current step  : 3299
Per MPI rank memory allocation (min/avg/max) = 5.441 | 5.816 | 6.074 Mbytes
Step PotEng KinEng TotEng v_fx v_fy v_fz 
    3299   -1152448.9            0   -1152448.9 -0.073870602   0.02009747 0.0048239782 
    3480   -1152448.9            0   -1152448.9 2.9268806e-05 -5.3771763e-06 -1.5635514e-06 
Loop time of 2.08627 on 104 procs for 181 steps with 288751 atoms

99.9% CPU use with 104 MPI tasks x 1 OpenMP threads

Minimization stats:
  Stopping criterion = energy tolerance
  Energy initial, next-to-last, final = 
     -1152448.88549741  -1152448.88735976  -1152448.88735976
  Force two-norm initial, final = 0.19581795 0.0001309507
  Force max component initial, final = 0.086174115 2.9268806e-05
  Final line search alpha, max atom move = 1.0000000 2.9268806e-05
  Iterations, force evaluations = 181 362

MPI task timing breakdown:
Section |  min time  |  avg time  |  max time  |%varavg| %total
---------------------------------------------------------------
Pair    | 0.54564    | 1.5182     | 1.9785     |  33.3 | 72.77
Neigh   | 0          | 0          | 0          |   0.0 |  0.00
Comm    | 0.032343   | 0.33772    | 1.0204     |  49.3 | 16.19
Output  | 0          | 0          | 0          |   0.0 |  0.00
Modify  | 2.2058e-05 | 0.0029788  | 0.0064038  |   2.6 |  0.14
Other   |            | 0.2273     |            |       | 10.90

Nlocal:        2776.45 ave        3958 max           0 min
Histogram: 8 4 4 0 4 12 8 3 27 34
Nghost:        3879.14 ave        5426 max         232 min
Histogram: 8 0 8 0 16 0 8 8 16 40
Neighs:        79213.4 ave      115376 max           0 min
Histogram: 8 4 4 0 10 6 8 8 24 32

Total # of neighbors = 8238198
Ave neighs/atom = 28.530457
Neighbor list builds = 0
Dangerous builds = 0
The dot product: 4.47164421750437e-09
Setting atom values ...
  1 settings made for x
  1 settings made for y
  1 settings made for z
Setting up cg style minimization ...
  Unit style    : metal
  Current step  : 3480
Per MPI rank memory allocation (min/avg/max) = 5.441 | 5.816 | 6.074 Mbytes
Step PotEng KinEng TotEng v_fx v_fy v_fz 
    3480   -1152448.9            0   -1152448.9 -0.074795274  0.015452195 0.0041990741 
    3629   -1152448.9            0   -1152448.9 -4.7136135e-05 8.2610208e-06 2.4442161e-06 
Loop time of 1.72078 on 104 procs for 149 steps with 288751 atoms

99.9% CPU use with 104 MPI tasks x 1 OpenMP threads

Minimization stats:
  Stopping criterion = energy tolerance
  Energy initial, next-to-last, final = 
     -1152448.87196166  -1152448.87432276  -1152448.87432276
  Force two-norm initial, final = 0.19630676 0.0001409252
  Force max component initial, final = 0.086718784 5.1237218e-05
  Final line search alpha, max atom move = 1.0000000 5.1237218e-05
  Iterations, force evaluations = 149 298

MPI task timing breakdown:
Section |  min time  |  avg time  |  max time  |%varavg| %total
---------------------------------------------------------------
Pair    | 0.45097    | 1.2463     | 1.6318     |  30.1 | 72.43
Neigh   | 0          | 0          | 0          |   0.0 |  0.00
Comm    | 0.0256     | 0.27795    | 0.84572    |  44.7 | 16.15
Output  | 0          | 0          | 0          |   0.0 |  0.00
Modify  | 1.7718e-05 | 0.0024639  | 0.0052732  |   2.3 |  0.14
Other   |            | 0.194      |            |       | 11.27

Nlocal:        2776.45 ave        3958 max           0 min
Histogram: 8 4 4 0 4 12 8 4 26 34
Nghost:        3879.14 ave        5426 max         232 min
Histogram: 8 0 8 0 16 0 8 8 16 40
Neighs:        79213.4 ave      115388 max           0 min
Histogram: 8 4 4 0 10 6 8 8 24 32

Total # of neighbors = 8238193
Ave neighs/atom = 28.530440
Neighbor list builds = 0
Dangerous builds = 0
The dot product: -7.49545358977358e-07
Setting atom values ...
  1 settings made for x
  1 settings made for y
  1 settings made for z
Setting up cg style minimization ...
  Unit style    : metal
  Current step  : 3629
Per MPI rank memory allocation (min/avg/max) = 5.441 | 5.816 | 6.074 Mbytes
Step PotEng KinEng TotEng v_fx v_fy v_fz 
    3629   -1152448.9            0   -1152448.9 -0.051908371  0.014631304 0.0013512182 
    3818   -1152448.9            0   -1152448.9 -3.3203014e-05 5.8419893e-06 3.843159e-07 
Loop time of 2.18855 on 104 procs for 189 steps with 288751 atoms

99.9% CPU use with 104 MPI tasks x 1 OpenMP threads

Minimization stats:
  Stopping criterion = energy tolerance
  Energy initial, next-to-last, final = 
     -1152448.85865183  -1152448.86109406  -1152448.86109406
  Force two-norm initial, final = 0.1924632 0.00015501046
  Force max component initial, final = 0.084525135 3.3203014e-05
  Final line search alpha, max atom move = 1.0000000 3.3203014e-05
  Iterations, force evaluations = 189 378

MPI task timing breakdown:
Section |  min time  |  avg time  |  max time  |%varavg| %total
---------------------------------------------------------------
Pair    | 0.56877    | 1.5892     | 2.068      |  34.1 | 72.61
Neigh   | 0          | 0          | 0          |   0.0 |  0.00
Comm    | 0.039117   | 0.35226    | 1.0726     |  50.5 | 16.10
Output  | 0          | 0          | 0          |   0.0 |  0.00
Modify  | 2.2216e-05 | 0.0031213  | 0.006671   |   2.6 |  0.14
Other   |            | 0.244      |            |       | 11.15

Nlocal:        2776.45 ave        3959 max           0 min
Histogram: 8 4 4 0 4 12 8 4 26 34
Nghost:        3879.11 ave        5426 max         232 min
Histogram: 8 0 8 0 16 0 8 8 16 40
Neighs:        79213.4 ave      115400 max           0 min
Histogram: 8 4 4 0 10 6 8 8 24 32

Total # of neighbors = 8238192
Ave neighs/atom = 28.530436
Neighbor list builds = 0
Dangerous builds = 0
The dot product: -5.28548476788852e-07
Setting atom values ...
  1 settings made for x
  1 settings made for y
  1 settings made for z
Setting up cg style minimization ...
  Unit style    : metal
  Current step  : 3818
Per MPI rank memory allocation (min/avg/max) = 5.441 | 5.816 | 6.074 Mbytes
Step PotEng KinEng TotEng v_fx v_fy v_fz 
    3818   -1152448.8            0   -1152448.8 -0.052828033  0.012674074 -0.00096985432 
    4000   -1152448.8            0   -1152448.8 -1.39489e-06 -3.0315763e-06 -4.7561003e-07 
    4008   -1152448.8            0   -1152448.8 -7.0435251e-06 2.3191467e-06 -4.5181507e-08 
Loop time of 2.1928 on 104 procs for 190 steps with 288751 atoms

99.9% CPU use with 104 MPI tasks x 1 OpenMP threads

Minimization stats:
  Stopping criterion = energy tolerance
  Energy initial, next-to-last, final = 
     -1152448.84442093   -1152448.8465022   -1152448.8465022
  Force two-norm initial, final = 0.19582398 0.0001167989
  Force max component initial, final = 0.088595935 8.3824901e-06
  Final line search alpha, max atom move = 1.0000000 8.3824901e-06
  Iterations, force evaluations = 190 380

MPI task timing breakdown:
Section |  min time  |  avg time  |  max time  |%varavg| %total
---------------------------------------------------------------
Pair    | 0.5738     | 1.5912     | 2.0795     |  34.2 | 72.56
Neigh   | 0          | 0          | 0          |   0.0 |  0.00
Comm    | 0.034152   | 0.3545     | 1.071      |  50.7 | 16.17
Output  | 0.00011196 | 0.00011432 | 0.00024682 |   0.0 |  0.01
Modify  | 2.2683e-05 | 0.0031343  | 0.0066928  |   2.6 |  0.14
Other   |            | 0.2439     |            |       | 11.12

Nlocal:        2776.45 ave        3959 max           0 min
Histogram: 8 4 4 0 4 12 8 4 26 34
Nghost:        3879.11 ave        5426 max         232 min
Histogram: 8 0 8 0 16 0 8 8 16 40
Neighs:        79213.4 ave      115396 max           0 min
Histogram: 8 4 4 0 10 6 8 8 24 32

Total # of neighbors = 8238192
Ave neighs/atom = 28.530436
Neighbor list builds = 0
Dangerous builds = 0
The dot product: -8.14237312841394e-08
Setting atom values ...
  1 settings made for x
  1 settings made for y
  1 settings made for z
Setting up cg style minimization ...
  Unit style    : metal
  Current step  : 4008
Per MPI rank memory allocation (min/avg/max) = 5.441 | 5.816 | 6.074 Mbytes
Step PotEng KinEng TotEng v_fx v_fy v_fz 
    4008   -1152448.8            0   -1152448.8 -0.060358179  0.010185585 -0.0032479709 
    4179   -1152448.8            0   -1152448.8 6.5424498e-05 -1.2376369e-05 3.3482407e-06 
Loop time of 1.99049 on 104 procs for 171 steps with 288751 atoms

99.9% CPU use with 104 MPI tasks x 1 OpenMP threads

Minimization stats:
  Stopping criterion = energy tolerance
  Energy initial, next-to-last, final = 
     -1152448.82845403  -1152448.83061156  -1152448.83061156
  Force two-norm initial, final = 0.19993029 0.00022055732
  Force max component initial, final = 0.093097197 6.5424498e-05
  Final line search alpha, max atom move = 1.0000000 6.5424498e-05
  Iterations, force evaluations = 171 342

MPI task timing breakdown:
Section |  min time  |  avg time  |  max time  |%varavg| %total
---------------------------------------------------------------
Pair    | 0.51772    | 1.4394     | 1.8845     |  32.4 | 72.32
Neigh   | 0          | 0          | 0          |   0.0 |  0.00
Comm    | 0.030445   | 0.32152    | 0.97625    |  47.9 | 16.15
Output  | 0          | 0          | 0          |   0.0 |  0.00
Modify  | 2.0724e-05 | 0.0028154  | 0.0060344  |   2.5 |  0.14
Other   |            | 0.2267     |            |       | 11.39

Nlocal:        2776.45 ave        3959 max           0 min
Histogram: 8 4 4 0 4 12 8 4 26 34
Nghost:        3879.03 ave        5425 max         232 min
Histogram: 8 0 8 0 16 0 8 8 16 40
Neighs:        79213.4 ave      115389 max           0 min
Histogram: 8 4 4 0 10 6 8 8 24 32

Total # of neighbors = 8238191
Ave neighs/atom = 28.530433
Neighbor list builds = 0
Dangerous builds = 0
The dot product: 7.09888550946211e-07
Setting atom values ...
  1 settings made for x
  1 settings made for y
  1 settings made for z
Setting up cg style minimization ...
  Unit style    : metal
  Current step  : 4179
Per MPI rank memory allocation (min/avg/max) = 5.441 | 5.816 | 6.074 Mbytes
Step PotEng KinEng TotEng v_fx v_fy v_fz 
    4179   -1152448.8            0   -1152448.8 -0.061532346 0.0078221157 -0.0050932434 
    4345   -1152448.8            0   -1152448.8 -5.787222e-05 1.3074416e-05 -4.0881814e-06 
Loop time of 1.93544 on 104 procs for 166 steps with 288751 atoms

99.9% CPU use with 104 MPI tasks x 1 OpenMP threads

Minimization stats:
  Stopping criterion = energy tolerance
  Energy initial, next-to-last, final = 
     -1152448.81130979  -1152448.81334076  -1152448.81334076
  Force two-norm initial, final = 0.20203808 0.00019033611
  Force max component initial, final = 0.097272385 6.2378212e-05
  Final line search alpha, max atom move = 1.0000000 6.2378212e-05
  Iterations, force evaluations = 166 332

MPI task timing breakdown:
Section |  min time  |  avg time  |  max time  |%varavg| %total
---------------------------------------------------------------
Pair    | 0.50252    | 1.3951     | 1.8358     |  32.0 | 72.08
Neigh   | 0          | 0          | 0          |   0.0 |  0.00
Comm    | 0.029039   | 0.31328    | 0.9484     |  47.3 | 16.19
Output  | 0          | 0          | 0          |   0.0 |  0.00
Modify  | 1.9667e-05 | 0.0027377  | 0.0058647  |   2.5 |  0.14
Other   |            | 0.2243     |            |       | 11.59

Nlocal:        2776.45 ave        3959 max           0 min
Histogram: 8 4 4 0 4 12 8 4 26 34
Nghost:        3879.07 ave        5425 max         232 min
Histogram: 8 0 8 0 16 0 8 8 16 40
Neighs:        79213.4 ave      115395 max           0 min
Histogram: 8 4 4 0 10 6 8 8 24 32

Total # of neighbors = 8238192
Ave neighs/atom = 28.530436
Neighbor list builds = 0
Dangerous builds = 0
The dot product: -3.5634199238162e-07
Setting atom values ...
  1 settings made for x
  1 settings made for y
  1 settings made for z
Setting up cg style minimization ...
  Unit style    : metal
  Current step  : 4345
Per MPI rank memory allocation (min/avg/max) = 5.441 | 5.816 | 6.074 Mbytes
Step PotEng KinEng TotEng v_fx v_fy v_fz 
    4345   -1152448.8            0   -1152448.8 -0.070482518 0.0083444499 -0.0067942693 
    4582   -1152448.8            0   -1152448.8 7.9827151e-06 -1.5671677e-06 6.9597384e-07 
Loop time of 2.7584 on 104 procs for 237 steps with 288751 atoms

99.9% CPU use with 104 MPI tasks x 1 OpenMP threads

Minimization stats:
  Stopping criterion = energy tolerance
  Energy initial, next-to-last, final = 
     -1152448.79264911  -1152448.79463557  -1152448.79463557
  Force two-norm initial, final = 0.20597977 2.1266693e-05
  Force max component initial, final = 0.099667699 8.1259388e-06
  Final line search alpha, max atom move = 1.0000000 8.1259388e-06
  Iterations, force evaluations = 237 474

MPI task timing breakdown:
Section |  min time  |  avg time  |  max time  |%varavg| %total
---------------------------------------------------------------
Pair    | 0.71229    | 1.9866     | 2.5916     |  38.1 | 72.02
Neigh   | 0          | 0          | 0          |   0.0 |  0.00
Comm    | 0.041698   | 0.44528    | 1.3444     |  55.8 | 16.14
Output  | 0          | 0          | 0          |   0.0 |  0.00
Modify  | 2.8366e-05 | 0.0039207  | 0.0084012  |   2.9 |  0.14
Other   |            | 0.3226     |            |       | 11.70

Nlocal:        2776.45 ave        3959 max           0 min
Histogram: 8 4 4 0 4 12 8 4 26 34
Nghost:        3879.07 ave        5425 max         232 min
Histogram: 8 0 8 0 16 0 8 8 16 40
Neighs:        79213.4 ave      115386 max           0 min
Histogram: 8 4 4 0 10 6 8 8 24 32

Total # of neighbors = 8238190
Ave neighs/atom = 28.530429
Neighbor list builds = 0
Dangerous builds = 0
The dot product: 2.06569571797579e-08
Setting atom values ...
  1 settings made for x
  1 settings made for y
  1 settings made for z
Setting up cg style minimization ...
  Unit style    : metal
  Current step  : 4582
Per MPI rank memory allocation (min/avg/max) = 5.441 | 5.816 | 6.074 Mbytes
Step PotEng KinEng TotEng v_fx v_fy v_fz 
    4582   -1152448.8            0   -1152448.8 -0.077234195 0.0085960208 -0.0078923995 
    4742   -1152448.8            0   -1152448.8 2.3593821e-06 -4.7769676e-06 -2.7607191e-07 
Loop time of 1.85345 on 104 procs for 160 steps with 288751 atoms

99.9% CPU use with 104 MPI tasks x 1 OpenMP threads

Minimization stats:
  Stopping criterion = energy tolerance
  Energy initial, next-to-last, final = 
     -1152448.77253933   -1152448.7744326   -1152448.7744326
  Force two-norm initial, final = 0.20852169 0.00016083807
  Force max component initial, final = 0.10048013 4.2180279e-05
  Final line search alpha, max atom move = 1.0000000 4.2180279e-05
  Iterations, force evaluations = 160 320

MPI task timing breakdown:
Section |  min time  |  avg time  |  max time  |%varavg| %total
---------------------------------------------------------------
Pair    | 0.48353    | 1.3391     | 1.758      |  31.3 | 72.25
Neigh   | 0          | 0          | 0          |   0.0 |  0.00
Comm    | 0.028427   | 0.29988    | 0.90891    |  46.2 | 16.18
Output  | 0          | 0          | 0          |   0.0 |  0.00
Modify  | 1.8951e-05 | 0.0026368  | 0.0056526  |   2.4 |  0.14
Other   |            | 0.2118     |            |       | 11.43

Nlocal:        2776.45 ave        3959 max           0 min
Histogram: 8 4 4 0 4 12 8 4 26 34
Nghost:        3879.07 ave        5426 max         232 min
Histogram: 8 0 8 0 16 0 8 8 16 40
Neighs:        79213.4 ave      115384 max           0 min
Histogram: 8 4 4 0 10 6 8 8 24 32

Total # of neighbors = 8238189
Ave neighs/atom = 28.530426
Neighbor list builds = 0
Dangerous builds = 0
The dot product: 5.28003454796493e-09
Setting atom values ...
  1 settings made for x
  1 settings made for y
  1 settings made for z
Setting up cg style minimization ...
  Unit style    : metal
  Current step  : 4742
Per MPI rank memory allocation (min/avg/max) = 5.441 | 5.816 | 6.074 Mbytes
Step PotEng KinEng TotEng v_fx v_fy v_fz 
    4742   -1152448.8            0   -1152448.8 -0.084252645 0.0083404926 -0.0085167483 
    4887   -1152448.8            0   -1152448.8 5.8569007e-05 -1.2302911e-05 5.1985366e-06 
Loop time of 1.675 on 104 procs for 145 steps with 288751 atoms

99.9% CPU use with 104 MPI tasks x 1 OpenMP threads

Minimization stats:
  Stopping criterion = energy tolerance
  Energy initial, next-to-last, final = 
     -1152448.75083708  -1152448.75270038  -1152448.75270038
  Force two-norm initial, final = 0.21061231 0.00023537563
  Force max component initial, final = 0.10000437 5.8569007e-05
  Final line search alpha, max atom move = 1.0000000 5.8569007e-05
  Iterations, force evaluations = 145 290

MPI task timing breakdown:
Section |  min time  |  avg time  |  max time  |%varavg| %total
---------------------------------------------------------------
Pair    | 0.43772    | 1.2197     | 1.5882     |  29.8 | 72.82
Neigh   | 0          | 0          | 0          |   0.0 |  0.00
Comm    | 0.025771   | 0.26942    | 0.8165     |  44.3 | 16.08
Output  | 0          | 0          | 0          |   0.0 |  0.00
Modify  | 1.7274e-05 | 0.0023939  | 0.005112   |   2.3 |  0.14
Other   |            | 0.1835     |            |       | 10.96

Nlocal:        2776.45 ave        3959 max           0 min
Histogram: 8 4 4 0 4 12 8 4 26 34
Nghost:        3879.11 ave        5426 max         232 min
Histogram: 8 0 8 0 16 0 8 8 16 40
Neighs:        79213.3 ave      115385 max           0 min
Histogram: 8 4 4 0 10 6 8 8 24 32

Total # of neighbors = 8238188
Ave neighs/atom = 28.530422
Neighbor list builds = 0
Dangerous builds = 0
The dot product: -2.04599725286018e-07
Setting atom values ...
  1 settings made for x
  1 settings made for y
  1 settings made for z
Setting up cg style minimization ...
  Unit style    : metal
  Current step  : 4887
Per MPI rank memory allocation (min/avg/max) = 5.441 | 5.816 | 6.074 Mbytes
Step PotEng KinEng TotEng v_fx v_fy v_fz 
    4887   -1152448.7            0   -1152448.7 -0.088638654 0.0082371298 -0.0083995786 
    5000   -1152448.7            0   -1152448.7 4.0112347e-05 8.0699196e-06 5.0668491e-06 
    5080   -1152448.7            0   -1152448.7 9.1942807e-06 -2.3977419e-06 7.0569015e-07 
Loop time of 2.24875 on 104 procs for 193 steps with 288751 atoms

99.9% CPU use with 104 MPI tasks x 1 OpenMP threads

Minimization stats:
  Stopping criterion = energy tolerance
  Energy initial, next-to-last, final = 
     -1152448.72760598  -1152448.72944684  -1152448.72944684
  Force two-norm initial, final = 0.21126109 4.1155536e-05
  Force max component initial, final = 0.09847844 9.1942807e-06
  Final line search alpha, max atom move = 1.0000000 9.1942807e-06
  Iterations, force evaluations = 193 386

MPI task timing breakdown:
Section |  min time  |  avg time  |  max time  |%varavg| %total
---------------------------------------------------------------
Pair    | 0.58249    | 1.6145     | 2.1179     |  34.3 | 71.80
Neigh   | 0          | 0          | 0          |   0.0 |  0.00
Comm    | 0.036919   | 0.36327    | 1.0974     |  50.7 | 16.15
Output  | 9.2874e-05 | 0.00010597 | 0.00023589 |   0.0 |  0.00
Modify  | 2.2627e-05 | 0.0031813  | 0.0068256  |   2.7 |  0.14
Other   |            | 0.2677     |            |       | 11.90

Nlocal:        2776.45 ave        3959 max           0 min
Histogram: 8 4 4 0 4 12 8 4 26 34
Nghost:        3879.11 ave        5426 max         232 min
Histogram: 8 0 8 0 16 0 8 8 16 40
Neighs:        79213.3 ave      115387 max           0 min
Histogram: 8 4 4 0 10 6 8 8 24 32

Total # of neighbors = 8238186
Ave neighs/atom = 28.530415
Neighbor list builds = 0
Dangerous builds = 0
The dot product: -4.48066311366091e-08
Setting atom values ...
  1 settings made for x
  1 settings made for y
  1 settings made for z
Setting up cg style minimization ...
  Unit style    : metal
  Current step  : 5080
Per MPI rank memory allocation (min/avg/max) = 5.441 | 5.816 | 6.074 Mbytes
Step PotEng KinEng TotEng v_fx v_fy v_fz 
    5080   -1152448.7            0   -1152448.7  -0.09104687  0.008795925 -0.0077337323 
    5245   -1152448.7            0   -1152448.7 -2.4315918e-05 4.7205644e-06 -1.8198212e-06 
Loop time of 1.951 on 104 procs for 165 steps with 288751 atoms

99.9% CPU use with 104 MPI tasks x 1 OpenMP threads

Minimization stats:
  Stopping criterion = energy tolerance
  Energy initial, next-to-last, final = 
     -1152448.70287344    -1152448.704687    -1152448.704687
  Force two-norm initial, final = 0.21094095 0.00010793072
  Force max component initial, final = 0.096422519 3.1699005e-05
  Final line search alpha, max atom move = 1.0000000 3.1699005e-05
  Iterations, force evaluations = 165 330

MPI task timing breakdown:
Section |  min time  |  avg time  |  max time  |%varavg| %total
---------------------------------------------------------------
Pair    | 0.49668    | 1.3947     | 1.8173     |  32.0 | 71.49
Neigh   | 0          | 0          | 0          |   0.0 |  0.00
Comm    | 0.03761    | 0.31661    | 0.93891    |  46.4 | 16.23
Output  | 0          | 0          | 0          |   0.0 |  0.00
Modify  | 2.066e-05  | 0.0027265  | 0.0058434  |   2.5 |  0.14
Other   |            | 0.2369     |            |       | 12.14

Nlocal:        2776.45 ave        3959 max           0 min
Histogram: 8 4 4 0 4 12 8 4 26 34
Nghost:        3879.11 ave        5426 max         232 min
Histogram: 8 0 8 0 16 0 8 8 16 40
Neighs:        79213.3 ave      115391 max           0 min
Histogram: 8 4 4 0 10 6 8 8 24 32

Total # of neighbors = 8238188
Ave neighs/atom = 28.530422
Neighbor list builds = 0
Dangerous builds = 0
The dot product: 1.45343605154331e-07
Setting atom values ...
  1 settings made for x
  1 settings made for y
  1 settings made for z
Setting up cg style minimization ...
  Unit style    : metal
  Current step  : 5245
Per MPI rank memory allocation (min/avg/max) = 5.441 | 5.816 | 6.074 Mbytes
Step PotEng KinEng TotEng v_fx v_fy v_fz 
    5245   -1152448.7            0   -1152448.7 -0.091970508  0.010230084 -0.0066872673 
    5398   -1152448.7            0   -1152448.7 7.3809881e-05 -1.1797824e-05 5.0078075e-06 
Loop time of 1.76589 on 104 procs for 153 steps with 288751 atoms

99.9% CPU use with 104 MPI tasks x 1 OpenMP threads

Minimization stats:
  Stopping criterion = energy tolerance
  Energy initial, next-to-last, final = 
     -1152448.67666321  -1152448.67844218  -1152448.67844218
  Force two-norm initial, final = 0.20990865 0.00018784599
  Force max component initial, final = 0.09396975 7.3809881e-05
  Final line search alpha, max atom move = 1.0000000 7.3809881e-05
  Iterations, force evaluations = 153 306

MPI task timing breakdown:
Section |  min time  |  avg time  |  max time  |%varavg| %total
---------------------------------------------------------------
Pair    | 0.45894    | 1.2795     | 1.6744     |  30.7 | 72.46
Neigh   | 0          | 0          | 0          |   0.0 |  0.00
Comm    | 0.027393   | 0.28405    | 0.85879    |  45.5 | 16.09
Output  | 0          | 0          | 0          |   0.0 |  0.00
Modify  | 1.8058e-05 | 0.0025204  | 0.0053922  |   2.4 |  0.14
Other   |            | 0.1998     |            |       | 11.31

Nlocal:        2776.45 ave        3959 max           0 min
Histogram: 8 4 4 0 4 12 8 4 26 34
Nghost:        3879.12 ave        5426 max         232 min
Histogram: 8 0 8 0 16 0 8 8 16 40
Neighs:        79213.3 ave      115384 max           0 min
Histogram: 8 4 4 0 10 6 8 8 24 32

Total # of neighbors = 8238186
Ave neighs/atom = 28.530415
Neighbor list builds = 0
Dangerous builds = 0
The dot product: -4.96321816188015e-07
Setting atom values ...
  1 settings made for x
  1 settings made for y
  1 settings made for z
Setting up cg style minimization ...
  Unit style    : metal
  Current step  : 5398
Per MPI rank memory allocation (min/avg/max) = 5.441 | 5.816 | 6.074 Mbytes
Step PotEng KinEng TotEng v_fx v_fy v_fz 
    5398   -1152448.6            0   -1152448.6  -0.09154368  0.012675814 -0.0053643412 
    5566   -1152448.7            0   -1152448.7 2.4605432e-06 4.5884511e-07 2.2170697e-07 
Loop time of 1.95881 on 104 procs for 168 steps with 288751 atoms

99.9% CPU use with 104 MPI tasks x 1 OpenMP threads

Minimization stats:
  Stopping criterion = energy tolerance
  Energy initial, next-to-last, final = 
      -1152448.6490025  -1152448.65073984  -1152448.65073984
  Force two-norm initial, final = 0.2082767 0.0001060314
  Force max component initial, final = 0.09154368 2.8510183e-05
  Final line search alpha, max atom move = 1.0000000 2.8510183e-05
  Iterations, force evaluations = 168 336

MPI task timing breakdown:
Section |  min time  |  avg time  |  max time  |%varavg| %total
---------------------------------------------------------------
Pair    | 0.50765    | 1.4126     | 1.853      |  32.1 | 72.12
Neigh   | 0          | 0          | 0          |   0.0 |  0.00
Comm    | 0.033025   | 0.31794    | 0.96652    |  47.2 | 16.23
Output  | 0          | 0          | 0          |   0.0 |  0.00
Modify  | 2.0195e-05 | 0.0027708  | 0.0059484  |   2.5 |  0.14
Other   |            | 0.2255     |            |       | 11.51

Nlocal:        2776.45 ave        3959 max           0 min
Histogram: 8 4 4 0 4 12 8 4 26 34
Nghost:        3879.12 ave        5426 max         232 min
Histogram: 8 0 8 0 16 0 8 8 16 40
Neighs:        79213.3 ave      115402 max           0 min
Histogram: 8 4 4 0 10 6 8 8 24 32

Total # of neighbors = 8238188
Ave neighs/atom = 28.530422
Neighbor list builds = 0
Dangerous builds = 0
The dot product: -1.89934125779838e-08
Setting atom values ...
  1 settings made for x
  1 settings made for y
  1 settings made for z
Setting up cg style minimization ...
  Unit style    : metal
  Current step  : 5566
Per MPI rank memory allocation (min/avg/max) = 5.441 | 5.816 | 6.074 Mbytes
Step PotEng KinEng TotEng v_fx v_fy v_fz 
    5566   -1152448.6            0   -1152448.6 -0.090106086     0.016444 -0.0038417045 
    5729   -1152448.6            0   -1152448.6 -1.3500919e-05 2.3077005e-06 -5.9039046e-07 
Loop time of 1.90054 on 104 procs for 163 steps with 288751 atoms

99.9% CPU use with 104 MPI tasks x 1 OpenMP threads

Minimization stats:
  Stopping criterion = energy tolerance
  Energy initial, next-to-last, final = 
     -1152448.61992118  -1152448.62161488  -1152448.62161488
  Force two-norm initial, final = 0.20652188 0.00012101974
  Force max component initial, final = 0.090106086 1.3500919e-05
  Final line search alpha, max atom move = 1.0000000 1.3500919e-05
  Iterations, force evaluations = 163 326

MPI task timing breakdown:
Section |  min time  |  avg time  |  max time  |%varavg| %total
---------------------------------------------------------------
Pair    | 0.49264    | 1.369      | 1.8035     |  31.7 | 72.03
Neigh   | 0          | 0          | 0          |   0.0 |  0.00
Comm    | 0.028574   | 0.30829    | 0.92897    |  46.6 | 16.22
Output  | 0          | 0          | 0          |   0.0 |  0.00
Modify  | 1.9532e-05 | 0.0026904  | 0.005768   |   2.4 |  0.14
Other   |            | 0.2206     |            |       | 11.60

Nlocal:        2776.45 ave        3959 max           0 min
Histogram: 8 4 4 0 4 12 8 4 26 34
Nghost:        3879.04 ave        5426 max         232 min
Histogram: 8 0 8 0 16 0 8 8 16 40
Neighs:        79213.3 ave      115394 max           0 min
Histogram: 8 4 4 0 10 6 8 8 24 32

Total # of neighbors = 8238188
Ave neighs/atom = 28.530422
Neighbor list builds = 0
Dangerous builds = 0
The dot product: 1.03251904970148e-07
Setting atom values ...
  1 settings made for x
  1 settings made for y
  1 settings made for z
Setting up cg style minimization ...
  Unit style    : metal
  Current step  : 5729
Per MPI rank memory allocation (min/avg/max) = 5.441 | 5.816 | 6.074 Mbytes
Step PotEng KinEng TotEng v_fx v_fy v_fz 
    5729   -1152448.6            0   -1152448.6 -0.087531038  0.021557633 -0.0021564955 
    5888   -1152448.6            0   -1152448.6 5.7187112e-05 -6.1219779e-06 2.1535175e-06 
Loop time of 1.84357 on 104 procs for 159 steps with 288751 atoms

99.9% CPU use with 104 MPI tasks x 1 OpenMP threads

Minimization stats:
  Stopping criterion = energy tolerance
  Energy initial, next-to-last, final = 
      -1152448.5894644  -1152448.59111551  -1152448.59111551
  Force two-norm initial, final = 0.20460704 0.00015233103
  Force max component initial, final = 0.087531038 6.3666043e-05
  Final line search alpha, max atom move = 1.0000000 6.3666043e-05
  Iterations, force evaluations = 159 318

MPI task timing breakdown:
Section |  min time  |  avg time  |  max time  |%varavg| %total
---------------------------------------------------------------
Pair    | 0.48051    | 1.3384     | 1.742      |  31.3 | 72.60
Neigh   | 0          | 0          | 0          |   0.0 |  0.00
Comm    | 0.028565   | 0.29654    | 0.89881    |  46.4 | 16.09
Output  | 0          | 0          | 0          |   0.0 |  0.00
Modify  | 1.9034e-05 | 0.0026236  | 0.0056216  |   2.4 |  0.14
Other   |            | 0.206      |            |       | 11.18

Nlocal:        2776.45 ave        3959 max           0 min
Histogram: 8 4 4 0 4 12 8 4 26 34
Nghost:        3879.05 ave        5426 max         232 min
Histogram: 8 0 8 0 16 0 8 8 16 40
Neighs:        79213.3 ave      115393 max           0 min
Histogram: 8 4 4 0 10 6 8 8 24 32

Total # of neighbors = 8238186
Ave neighs/atom = 28.530415
Neighbor list builds = 0
Dangerous builds = 0
The dot product: -4.63405049705261e-07
Setting atom values ...
  1 settings made for x
  1 settings made for y
  1 settings made for z
Setting up cg style minimization ...
  Unit style    : metal
  Current step  : 5888
Per MPI rank memory allocation (min/avg/max) = 5.441 | 5.816 | 6.074 Mbytes
Step PotEng KinEng TotEng v_fx v_fy v_fz 
    5888   -1152448.6            0   -1152448.6 -0.083817764  0.027600608 -0.00035760535 
    6000   -1152448.6            0   -1152448.6 7.8714837e-05 -4.6954628e-06 2.3434372e-06 
    6046   -1152448.6            0   -1152448.6 2.5513485e-05 -4.1068252e-06 5.1506746e-07 
Loop time of 1.83553 on 104 procs for 158 steps with 288751 atoms

99.9% CPU use with 104 MPI tasks x 1 OpenMP threads

Minimization stats:
  Stopping criterion = energy tolerance
  Energy initial, next-to-last, final = 
     -1152448.55773182   -1152448.5593456   -1152448.5593456
  Force two-norm initial, final = 0.20244686 0.00014442888
  Force max component initial, final = 0.087629123 5.5091165e-05
  Final line search alpha, max atom move = 1.0000000 5.5091165e-05
  Iterations, force evaluations = 158 316

MPI task timing breakdown:
Section |  min time  |  avg time  |  max time  |%varavg| %total
---------------------------------------------------------------
Pair    | 0.47835    | 1.3253     | 1.7411     |  31.1 | 72.20
Neigh   | 0          | 0          | 0          |   0.0 |  0.00
Comm    | 0.028032   | 0.29623    | 0.9003     |  46.1 | 16.14
Output  | 0.00010589 | 0.00010862 | 0.00022682 |   0.0 |  0.01
Modify  | 1.8659e-05 | 0.0026096  | 0.006123   |   2.4 |  0.14
Other   |            | 0.2113     |            |       | 11.51

Nlocal:        2776.45 ave        3959 max           0 min
Histogram: 8 4 4 0 4 12 8 4 26 34
Nghost:        3879.07 ave        5426 max         232 min
Histogram: 8 0 8 0 16 0 8 8 16 40
Neighs:        79213.4 ave      115394 max           0 min
Histogram: 8 4 4 0 10 6 8 8 24 32

Total # of neighbors = 8238192
Ave neighs/atom = 28.530436
Neighbor list builds = 0
Dangerous builds = 0
The dot product: -2.33884592933945e-07
Setting atom values ...
  1 settings made for x
  1 settings made for y
  1 settings made for z
Setting up cg style minimization ...
  Unit style    : metal
  Current step  : 6046
Per MPI rank memory allocation (min/avg/max) = 5.441 | 5.816 | 6.074 Mbytes
Step PotEng KinEng TotEng v_fx v_fy v_fz 
    6046   -1152448.5            0   -1152448.5 -0.079455831  0.044282343 0.0026389111 
    6305   -1152448.6            0   -1152448.6 -8.3261166e-05 1.4477818e-05 -4.419439e-07 
Loop time of 3.02714 on 104 procs for 259 steps with 288751 atoms

99.9% CPU use with 104 MPI tasks x 1 OpenMP threads

Minimization stats:
  Stopping criterion = energy tolerance
  Energy initial, next-to-last, final = 
     -1152448.52499499  -1152448.61413956  -1152448.61413956
  Force two-norm initial, final = 0.20313151 0.00025774645
  Force max component initial, final = 0.089348266 8.9311506e-05
  Final line search alpha, max atom move = 1.0000000 8.9311506e-05
  Iterations, force evaluations = 259 519

MPI task timing breakdown:
Section |  min time  |  avg time  |  max time  |%varavg| %total
---------------------------------------------------------------
Pair    | 0.79502    | 2.1827     | 2.8356     |  39.5 | 72.10
Neigh   | 3.0201e-05 | 0.0088792  | 0.012864   |   3.9 |  0.29
Comm    | 0.048018   | 0.48488    | 1.4859     |  59.2 | 16.02
Output  | 0          | 0          | 0          |   0.0 |  0.00
Modify  | 3.0368e-05 | 0.0042749  | 0.0091815  |   3.1 |  0.14
Other   |            | 0.3464     |            |       | 11.44

Nlocal:        2776.45 ave        3961 max           0 min
Histogram: 8 4 4 0 6 10 8 4 26 34
Nghost:        3879.12 ave        5427 max         232 min
Histogram: 8 0 8 0 16 0 8 8 16 40
Neighs:        79213.3 ave      115444 max           0 min
Histogram: 8 4 4 0 10 6 8 8 24 32

Total # of neighbors = 8238186
Ave neighs/atom = 28.530415
Neighbor list builds = 3
Dangerous builds = 0
The dot product: 7.89194786618424e-06
Setting atom values ...
  1 settings made for x
  1 settings made for y
  1 settings made for z
Setting up cg style minimization ...
  Unit style    : metal
  Current step  : 6305
Per MPI rank memory allocation (min/avg/max) = 5.441 | 5.816 | 6.074 Mbytes
Step PotEng KinEng TotEng v_fx v_fy v_fz 
    6305   -1152448.6            0   -1152448.6 -0.082843305   0.14110408  0.085562014 
    6694     -1152449            0     -1152449 5.4816737e-07 2.6308113e-06 1.5205213e-06 
Loop time of 4.50465 on 104 procs for 389 steps with 288751 atoms

99.9% CPU use with 104 MPI tasks x 1 OpenMP threads

Minimization stats:
  Stopping criterion = energy tolerance
  Energy initial, next-to-last, final = 
     -1152448.60746059  -1152448.99853786  -1152448.99853786
  Force two-norm initial, final = 0.23185608 1.3127479e-05
  Force max component initial, final = 0.14110408 3.1701217e-06
  Final line search alpha, max atom move = 1.0000000 3.1701217e-06
  Iterations, force evaluations = 389 776

MPI task timing breakdown:
Section |  min time  |  avg time  |  max time  |%varavg| %total
---------------------------------------------------------------
Pair    | 1.195      | 3.244      | 4.2357     |  48.1 | 72.01
Neigh   | 6.0572e-05 | 0.01775    | 0.025621   |   5.5 |  0.39
Comm    | 0.068518   | 0.72356    | 2.195      |  71.8 | 16.06
Output  | 0          | 0          | 0          |   0.0 |  0.00
Modify  | 4.5201e-05 | 0.0063829  | 0.013712   |   3.8 |  0.14
Other   |            | 0.513      |            |       | 11.39

Nlocal:        2776.45 ave        3955 max           0 min
Histogram: 8 4 4 0 4 12 8 0 30 34
Nghost:        3879.16 ave        5426 max         232 min
Histogram: 8 0 8 0 16 0 8 8 16 40
Neighs:        79213.6 ave      115274 max           0 min
Histogram: 8 4 4 0 10 6 8 8 24 32

Total # of neighbors = 8238219
Ave neighs/atom = 28.530530
Neighbor list builds = 6
Dangerous builds = 0
The dot product: 9.18648476182e-07
Setting atom values ...
  1 settings made for x
  1 settings made for y
  1 settings made for z
Setting up cg style minimization ...
  Unit style    : metal
  Current step  : 6694
Per MPI rank memory allocation (min/avg/max) = 5.441 | 5.816 | 6.074 Mbytes
Step PotEng KinEng TotEng v_fx v_fy v_fz 
    6694     -1152449            0     -1152449   0.58762719  -0.10793951  -0.81103695 
    6953   -1152449.2            0   -1152449.2 -1.915458e-05 1.2259121e-05 3.9973387e-05 
Loop time of 2.98351 on 104 procs for 259 steps with 288751 atoms

99.9% CPU use with 104 MPI tasks x 1 OpenMP threads

Minimization stats:
  Stopping criterion = energy tolerance
  Energy initial, next-to-last, final = 
      -1152449.0221013  -1152449.18281889  -1152449.18281889
  Force two-norm initial, final = 1.0189801 0.00013662769
  Force max component initial, final = 0.81103695 3.9973387e-05
  Final line search alpha, max atom move = 1.0000000 3.9973387e-05
  Iterations, force evaluations = 259 518

MPI task timing breakdown:
Section |  min time  |  avg time  |  max time  |%varavg| %total
---------------------------------------------------------------
Pair    | 0.78902    | 2.1794     | 2.8198     |  39.7 | 73.05
Neigh   | 2.0317e-05 | 0.0059821  | 0.0087995  |   3.2 |  0.20
Comm    | 0.057309   | 0.47987    | 1.4564     |  59.6 | 16.08
Output  | 0          | 0          | 0          |   0.0 |  0.00
Modify  | 3.1267e-05 | 0.00426    | 0.0091309  |   3.1 |  0.14
Other   |            | 0.314      |            |       | 10.52

Nlocal:        2776.45 ave        3944 max           0 min
Histogram: 8 4 4 0 4 12 8 2 26 36
Nghost:        3879.12 ave        5424 max         232 min
Histogram: 8 0 8 0 16 0 8 8 16 40
Neighs:        79213.5 ave      114893 max           0 min
Histogram: 8 4 4 0 10 6 8 8 22 34

Total # of neighbors = 8238206
Ave neighs/atom = 28.530485
Neighbor list builds = 2
Dangerous builds = 0
The dot product: -1.36031043626555e-05
Setting atom values ...
  1 settings made for x
  1 settings made for y
  1 settings made for z
Setting up cg style minimization ...
  Unit style    : metal
  Current step  : 6953
Per MPI rank memory allocation (min/avg/max) = 5.441 | 5.816 | 6.074 Mbytes
Step PotEng KinEng TotEng v_fx v_fy v_fz 
    6953   -1152449.2            0   -1152449.2  -0.36217638  0.088675168    0.2460225 
    7000   -1152449.2            0   -1152449.2 -0.0011364146 -0.0011999768 -0.00077711917 
    7194   -1152449.2            0   -1152449.2 -8.9865362e-06 -6.9699873e-06 -3.5053599e-06 
Loop time of 2.77103 on 104 procs for 241 steps with 288751 atoms

99.9% CPU use with 104 MPI tasks x 1 OpenMP threads

Minimization stats:
  Stopping criterion = energy tolerance
  Energy initial, next-to-last, final = 
     -1152449.20672511  -1152449.23265035  -1152449.23265035
  Force two-norm initial, final = 0.47742454 7.7854440e-05
  Force max component initial, final = 0.36217638 1.2618489e-05
  Final line search alpha, max atom move = 1.0000000 1.2618489e-05
  Iterations, force evaluations = 241 482

MPI task timing breakdown:
Section |  min time  |  avg time  |  max time  |%varavg| %total
---------------------------------------------------------------
Pair    | 0.73282    | 2.0136     | 2.6146     |  38.2 | 72.67
Neigh   | 1.0293e-05 | 0.0029669  | 0.0043075  |   2.2 |  0.11
Comm    | 0.048599   | 0.44684    | 1.3593     |  57.3 | 16.13
Output  | 0.00013085 | 0.00013732 | 0.00024483 |   0.0 |  0.00
Modify  | 2.8717e-05 | 0.0039673  | 0.008506   |   3.0 |  0.14
Other   |            | 0.3035     |            |       | 10.95

Nlocal:        2776.45 ave        3934 max           0 min
Histogram: 8 4 4 0 4 12 8 0 28 36
Nghost:        3879.22 ave        5426 max         232 min
Histogram: 8 0 8 0 16 0 8 8 16 40
Neighs:        79213.4 ave      114613 max           0 min
Histogram: 8 4 4 0 8 8 8 8 20 36

Total # of neighbors = 8238196
Ave neighs/atom = 28.530450
Neighbor list builds = 1
Dangerous builds = 0
The dot product: 6.19498587489597e-07
Setting atom values ...
  1 settings made for x
  1 settings made for y
  1 settings made for z
Setting up cg style minimization ...
  Unit style    : metal
  Current step  : 7194
Per MPI rank memory allocation (min/avg/max) = 5.441 | 5.816 | 6.074 Mbytes
Step PotEng KinEng TotEng v_fx v_fy v_fz 
    7194   -1152449.3            0   -1152449.3  0.082007234 -0.0019116207 -0.052615908 
    7469   -1152449.3            0   -1152449.3 -9.1863198e-07 -2.326032e-06 -2.1391943e-06 
Loop time of 3.222 on 104 procs for 275 steps with 288751 atoms

99.9% CPU use with 104 MPI tasks x 1 OpenMP threads

Minimization stats:
  Stopping criterion = energy tolerance
  Energy initial, next-to-last, final = 
     -1152449.25405093  -1152449.25847372  -1152449.25847372
  Force two-norm initial, final = 0.18615806 1.1002475e-05
  Force max component initial, final = 0.088033689 2.9550564e-06
  Final line search alpha, max atom move = 1.0000000 2.9550564e-06
  Iterations, force evaluations = 275 550

MPI task timing breakdown:
Section |  min time  |  avg time  |  max time  |%varavg| %total
---------------------------------------------------------------
Pair    | 0.82879    | 2.3135     | 3.0105     |  41.1 | 71.80
Neigh   | 0          | 0          | 0          |   0.0 |  0.00
Comm    | 0.047185   | 0.52026    | 1.5651     |  60.5 | 16.15
Output  | 0          | 0          | 0          |   0.0 |  0.00
Modify  | 3.2917e-05 | 0.0045354  | 0.0097208  |   3.2 |  0.14
Other   |            | 0.3837     |            |       | 11.91

Nlocal:        2776.45 ave        3937 max           0 min
Histogram: 8 4 4 0 4 12 8 0 28 36
Nghost:        3879.18 ave        5426 max         232 min
Histogram: 8 0 8 0 16 0 8 8 16 40
Neighs:        79213.5 ave      114683 max           0 min
Histogram: 8 4 4 0 8 8 8 8 22 34

Total # of neighbors = 8238204
Ave neighs/atom = 28.530478
Neighbor list builds = 0
Dangerous builds = 0
The dot product: 1.35841756696842e-08
Setting atom values ...
  1 settings made for x
  1 settings made for y
  1 settings made for z
Setting up cg style minimization ...
  Unit style    : metal
  Current step  : 7469
Per MPI rank memory allocation (min/avg/max) = 5.441 | 5.816 | 6.074 Mbytes
Step PotEng KinEng TotEng v_fx v_fy v_fz 
    7469   -1152449.3            0   -1152449.3  -0.06390233 0.0071854373    0.0428365 
    7659   -1152449.3            0   -1152449.3 1.0411804e-05 1.6618708e-05 1.3053301e-05 
Loop time of 2.19545 on 104 procs for 190 steps with 288751 atoms

99.9% CPU use with 104 MPI tasks x 1 OpenMP threads

Minimization stats:
  Stopping criterion = energy tolerance
  Energy initial, next-to-last, final = 
     -1152449.27894094  -1152449.28053837  -1152449.28053837
  Force two-norm initial, final = 0.17866366 8.4078558e-05
  Force max component initial, final = 0.089192393 2.1186019e-05
  Final line search alpha, max atom move = 1.0000000 2.1186019e-05
  Iterations, force evaluations = 190 380

MPI task timing breakdown:
Section |  min time  |  avg time  |  max time  |%varavg| %total
---------------------------------------------------------------
Pair    | 0.57075    | 1.5896     | 2.078      |  34.1 | 72.41
Neigh   | 0          | 0          | 0          |   0.0 |  0.00
Comm    | 0.032724   | 0.35552    | 1.0801     |  50.5 | 16.19
Output  | 0          | 0          | 0          |   0.0 |  0.00
Modify  | 2.2109e-05 | 0.0031337  | 0.0067003  |   2.6 |  0.14
Other   |            | 0.2472     |            |       | 11.26

Nlocal:        2776.45 ave        3936 max           0 min
Histogram: 8 4 4 0 4 12 8 0 28 36
Nghost:        3879.18 ave        5426 max         232 min
Histogram: 8 0 8 0 16 0 8 8 16 40
Neighs:        79213.5 ave      114668 max           0 min
Histogram: 8 4 4 0 8 8 8 8 22 34

Total # of neighbors = 8238201
Ave neighs/atom = 28.530467
Neighbor list builds = 0
Dangerous builds = 0
The dot product: -3.9876931563817e-08
Setting atom values ...
  1 settings made for x
  1 settings made for y
  1 settings made for z
Setting up cg style minimization ...
  Unit style    : metal
  Current step  : 7659
Per MPI rank memory allocation (min/avg/max) = 5.441 | 5.816 | 6.074 Mbytes
Step PotEng KinEng TotEng v_fx v_fy v_fz 
    7659   -1152449.3            0   -1152449.3 -0.018602135 0.0074015265  0.018801146 
    7863   -1152449.3            0   -1152449.3 -8.0663912e-06 6.5145576e-06 1.1896953e-05 
Loop time of 2.34021 on 104 procs for 204 steps with 288751 atoms

99.9% CPU use with 104 MPI tasks x 1 OpenMP threads

Minimization stats:
  Stopping criterion = energy tolerance
  Energy initial, next-to-last, final = 
     -1152449.29955643  -1152449.30099852  -1152449.30099852
  Force two-norm initial, final = 0.16259471 6.6858627e-05
  Force max component initial, final = 0.089131501 1.5358112e-05
  Final line search alpha, max atom move = 1.0000000 1.5358112e-05
  Iterations, force evaluations = 204 408

MPI task timing breakdown:
Section |  min time  |  avg time  |  max time  |%varavg| %total
---------------------------------------------------------------
Pair    | 0.61238    | 1.7102     | 2.2174     |  35.3 | 73.08
Neigh   | 0          | 0          | 0          |   0.0 |  0.00
Comm    | 0.03616    | 0.37886    | 1.153      |  52.6 | 16.19
Output  | 0          | 0          | 0          |   0.0 |  0.00
Modify  | 2.3831e-05 | 0.0033669  | 0.0072102  |   2.7 |  0.14
Other   |            | 0.2478     |            |       | 10.59

Nlocal:        2776.45 ave        3936 max           0 min
Histogram: 8 4 4 0 4 12 8 0 28 36
Nghost:        3879.20 ave        5426 max         232 min
Histogram: 8 0 8 0 16 0 8 8 16 40
Neighs:        79213.5 ave      114673 max           0 min
Histogram: 8 4 4 0 8 8 8 8 22 34

Total # of neighbors = 8238202
Ave neighs/atom = 28.530471
Neighbor list builds = 0
Dangerous builds = 0
The dot product: -5.82239313671119e-08
Setting atom values ...
  1 settings made for x
  1 settings made for y
  1 settings made for z
Setting up cg style minimization ...
  Unit style    : metal
  Current step  : 7863
Per MPI rank memory allocation (min/avg/max) = 5.441 | 5.816 | 6.074 Mbytes
Step PotEng KinEng TotEng v_fx v_fy v_fz 
    7863   -1152449.3            0   -1152449.3 -0.031119343 0.0080163173  0.026249151 
    8000   -1152449.3            0   -1152449.3 3.8961101e-05 7.5881278e-07 -2.0666855e-05 
    8045   -1152449.3            0   -1152449.3 9.9211916e-07 -3.792893e-06 -4.8334657e-06 
Loop time of 2.1059 on 104 procs for 182 steps with 288751 atoms

99.9% CPU use with 104 MPI tasks x 1 OpenMP threads

Minimization stats:
  Stopping criterion = energy tolerance
  Energy initial, next-to-last, final = 
     -1152449.31867711  -1152449.32008711  -1152449.32008711
  Force two-norm initial, final = 0.16582208 0.00011526677
  Force max component initial, final = 0.089174536 2.4194357e-05
  Final line search alpha, max atom move = 1.0000000 2.4194357e-05
  Iterations, force evaluations = 182 364

MPI task timing breakdown:
Section |  min time  |  avg time  |  max time  |%varavg| %total
---------------------------------------------------------------
Pair    | 0.5477     | 1.5266     | 1.9906     |  33.4 | 72.49
Neigh   | 0          | 0          | 0          |   0.0 |  0.00
Comm    | 0.032074   | 0.33995    | 1.0364     |  49.6 | 16.14
Output  | 8.9092e-05 | 9.2701e-05 | 0.00021806 |   0.0 |  0.00
Modify  | 2.114e-05  | 0.0029968  | 0.0064175  |   2.6 |  0.14
Other   |            | 0.2363     |            |       | 11.22

Nlocal:        2776.45 ave        3936 max           0 min
Histogram: 8 4 4 0 4 12 8 0 28 36
Nghost:        3879.22 ave        5426 max         232 min
Histogram: 8 0 8 0 16 0 8 8 16 40
Neighs:        79213.5 ave      114672 max           0 min
Histogram: 8 4 4 0 8 8 8 8 22 34

Total # of neighbors = 8238199
Ave neighs/atom = 28.530461
Neighbor list builds = 0
Dangerous builds = 0
The dot product: 2.3878925029024e-09
Setting atom values ...
  1 settings made for x
  1 settings made for y
  1 settings made for z
Setting up cg style minimization ...
  Unit style    : metal
  Current step  : 8045
Per MPI rank memory allocation (min/avg/max) = 5.441 | 5.816 | 6.074 Mbytes
Step PotEng KinEng TotEng v_fx v_fy v_fz 
    8045   -1152449.3            0   -1152449.3 -0.028552861 0.0091208226  0.026034075 
    8217   -1152449.3            0   -1152449.3 9.1363414e-06 5.1931641e-06 8.3060143e-07 
Loop time of 1.984 on 104 procs for 172 steps with 288751 atoms

99.9% CPU use with 104 MPI tasks x 1 OpenMP threads

Minimization stats:
  Stopping criterion = energy tolerance
  Energy initial, next-to-last, final = 
     -1152449.33642846  -1152449.33785375  -1152449.33785375
  Force two-norm initial, final = 0.16569237 0.00017911701
  Force max component initial, final = 0.089181896 3.4303336e-05
  Final line search alpha, max atom move = 1.0000000 3.4303336e-05
  Iterations, force evaluations = 172 344

MPI task timing breakdown:
Section |  min time  |  avg time  |  max time  |%varavg| %total
---------------------------------------------------------------
Pair    | 0.51839    | 1.4477     | 1.8807     |  32.5 | 72.97
Neigh   | 0          | 0          | 0          |   0.0 |  0.00
Comm    | 0.030446   | 0.3197     | 0.9746     |  48.5 | 16.11
Output  | 0          | 0          | 0          |   0.0 |  0.00
Modify  | 2.0178e-05 | 0.002834   | 0.0060632  |   2.5 |  0.14
Other   |            | 0.2138     |            |       | 10.78

Nlocal:        2776.45 ave        3945 max           0 min
Histogram: 8 4 4 0 4 12 8 2 26 36
Nghost:        3879.18 ave        5425 max         232 min
Histogram: 8 0 8 0 16 0 8 8 16 40
Neighs:        79213.5 ave      114964 max           0 min
Histogram: 8 4 4 0 10 6 8 8 24 32

Total # of neighbors = 8238200
Ave neighs/atom = 28.530464
Neighbor list builds = 0
Dangerous builds = 0
The dot product: 1.86415798210455e-08
Setting atom values ...
  1 settings made for x
  1 settings made for y
  1 settings made for z
Setting up cg style minimization ...
  Unit style    : metal
  Current step  : 8217
Per MPI rank memory allocation (min/avg/max) = 5.441 | 5.816 | 6.074 Mbytes
Step PotEng KinEng TotEng v_fx v_fy v_fz 
    8217   -1152449.4            0   -1152449.4 -0.029726107 0.0099335311   0.02749765 
[...]

Nlocal:        2776.45 ave        3945 max           0 min
Histogram: 8 4 4 0 4 12 8 2 24 38
Nghost:        3879.38 ave        5426 max         232 min
Histogram: 8 0 8 0 16 0 8 8 16 40
Neighs:        79213.6 ave      114772 max           0 min
Histogram: 8 4 4 0 10 6 8 8 22 34

Total # of neighbors = 8238211
Ave neighs/atom = 28.530502
Neighbor list builds = 0
Dangerous builds = 0
The dot product: 7.73300184100219e-09
Setting atom values ...
  1 settings made for x
  1 settings made for y
  1 settings made for z
Setting up cg style minimization ...
  Unit style    : metal
  Current step  : 4729
Per MPI rank memory allocation (min/avg/max) = 5.441 | 5.816 | 6.074 Mbytes
Step PotEng KinEng TotEng v_fx v_fy v_fz 
    4729   -1152449.4            0   -1152449.4   0.03196116 -0.010522961 -0.014048828 
    4941   -1152449.4            0   -1152449.4 1.963967e-06 -1.336654e-07 -8.6779728e-07 
Loop time of 2.4449 on 104 procs for 212 steps with 288751 atoms

99.9% CPU use with 104 MPI tasks x 1 OpenMP threads

Minimization stats:
  Stopping criterion = energy tolerance
  Energy initial, next-to-last, final = 
     -1152449.37760134  -1152449.37949191  -1152449.37949191
  Force two-norm initial, final = 0.20018269 3.7888533e-05
  Force max component initial, final = 0.11048076 3.1713108e-06
  Final line search alpha, max atom move = 1.0000000 3.1713108e-06
  Iterations, force evaluations = 212 424

MPI task timing breakdown:
Section |  min time  |  avg time  |  max time  |%varavg| %total
---------------------------------------------------------------
Pair    | 0.64344    | 1.7807     | 2.3166     |  36.1 | 72.83
Neigh   | 0          | 0          | 0          |   0.0 |  0.00
Comm    | 0.036914   | 0.40273    | 1.2147     |  53.4 | 16.47
Output  | 0          | 0          | 0          |   0.0 |  0.00
Modify  | 2.5276e-05 | 0.003501   | 0.0074411  |   2.8 |  0.14
Other   |            | 0.2579     |            |       | 10.55

Nlocal:        2776.45 ave        3945 max           0 min
Histogram: 8 4 4 0 4 12 8 2 24 38
Nghost:        3879.45 ave        5427 max         232 min
Histogram: 8 0 8 0 16 0 8 8 16 40
Neighs:        79213.6 ave      114775 max           0 min
Histogram: 8 4 4 0 10 6 8 8 22 34

Total # of neighbors = 8238211
Ave neighs/atom = 28.530502
Neighbor list builds = 0
Dangerous builds = 0
The dot product: 6.00356359485957e-09
Setting atom values ...
  1 settings made for x
  1 settings made for y
  1 settings made for z
Setting up cg style minimization ...
  Unit style    : metal
  Current step  : 4941
Per MPI rank memory allocation (min/avg/max) = 5.441 | 5.816 | 6.074 Mbytes
Step PotEng KinEng TotEng v_fx v_fy v_fz 
    4941   -1152449.4            0   -1152449.4  0.030531556 -0.013611389  -0.01363679 
    5000   -1152449.4            0   -1152449.4 -0.00022589679 -1.3754729e-05 0.00010168244 
    5105   -1152449.4            0   -1152449.4 4.1823395e-05 -5.0637636e-08 -1.8808027e-05 
Loop time of 1.90227 on 104 procs for 164 steps with 288751 atoms

99.9% CPU use with 104 MPI tasks x 1 OpenMP threads

Minimization stats:
  Stopping criterion = energy tolerance
  Energy initial, next-to-last, final = 
     -1152449.36099411  -1152449.36286998  -1152449.36286998
  Force two-norm initial, final = 0.19988209 0.00023029516
  Force max component initial, final = 0.11269244 4.9789809e-05
  Final line search alpha, max atom move = 1.0000000 4.9789809e-05
  Iterations, force evaluations = 164 328

MPI task timing breakdown:
Section |  min time  |  avg time  |  max time  |%varavg| %total
---------------------------------------------------------------
Pair    | 0.49935    | 1.3807     | 1.7849     |  31.5 | 72.58
Neigh   | 0          | 0          | 0          |   0.0 |  0.00
Comm    | 0.028207   | 0.31168    | 0.9545     |  47.4 | 16.38
Output  | 9.7611e-05 | 0.00010388 | 0.00024069 |   0.0 |  0.01
Modify  | 1.9718e-05 | 0.0027006  | 0.005765   |   2.5 |  0.14
Other   |            | 0.2071     |            |       | 10.89

Nlocal:        2776.45 ave        3945 max           0 min
Histogram: 8 4 4 0 4 12 8 2 24 38
Nghost:        3879.41 ave        5427 max         232 min
Histogram: 8 0 8 0 16 0 8 8 16 40
Neighs:        79213.6 ave      114775 max           0 min
Histogram: 8 4 4 0 10 6 8 8 22 34

Total # of neighbors = 8238212
Ave neighs/atom = 28.530506
Neighbor list builds = 0
Dangerous builds = 0
The dot product: 1.20195553080657e-07
Setting atom values ...
  1 settings made for x
  1 settings made for y
  1 settings made for z
Setting up cg style minimization ...
  Unit style    : metal
  Current step  : 5105
Per MPI rank memory allocation (min/avg/max) = 5.441 | 5.816 | 6.074 Mbytes
Step PotEng KinEng TotEng v_fx v_fy v_fz 
    5105   -1152449.3            0   -1152449.3  0.029931857 -0.016443311 -0.013592054 
    5273   -1152449.3            0   -1152449.3 -4.2625634e-05 2.0307222e-06 1.9444676e-05 
Loop time of 1.95488 on 104 procs for 168 steps with 288751 atoms

99.9% CPU use with 104 MPI tasks x 1 OpenMP threads

Minimization stats:
  Stopping criterion = energy tolerance
  Energy initial, next-to-last, final = 
     -1152449.34251215  -1152449.34436565  -1152449.34436565
  Force two-norm initial, final = 0.19979014 0.00018622681
  Force max component initial, final = 0.11482214 5.4489797e-05
  Final line search alpha, max atom move = 1.0000000 5.4489797e-05
  Iterations, force evaluations = 168 336

MPI task timing breakdown:
Section |  min time  |  avg time  |  max time  |%varavg| %total
---------------------------------------------------------------
Pair    | 0.51267    | 1.4135     | 1.8415     |  32.1 | 72.30
Neigh   | 0          | 0          | 0          |   0.0 |  0.00
Comm    | 0.02885    | 0.3232     | 0.97778    |  47.2 | 16.53
Output  | 0          | 0          | 0          |   0.0 |  0.00
Modify  | 2.0129e-05 | 0.0027644  | 0.0058721  |   2.5 |  0.14
Other   |            | 0.2154     |            |       | 11.02

Nlocal:        2776.45 ave        3945 max           0 min
Histogram: 8 4 4 0 4 12 8 2 24 38
Nghost:        3879.47 ave        5427 max         232 min
Histogram: 8 0 8 0 16 0 8 8 16 40
Neighs:        79213.6 ave      114774 max           0 min
Histogram: 8 4 4 0 10 6 8 8 22 34

Total # of neighbors = 8238214
Ave neighs/atom = 28.530512
Neighbor list builds = 0
Dangerous builds = 0
The dot product: -1.30852220869441e-07
Setting atom values ...
  1 settings made for x
  1 settings made for y
  1 settings made for z
Setting up cg style minimization ...
  Unit style    : metal
  Current step  : 5273
Per MPI rank memory allocation (min/avg/max) = 5.441 | 5.816 | 6.074 Mbytes
Step PotEng KinEng TotEng v_fx v_fy v_fz 
    5273   -1152449.3            0   -1152449.3  0.029062789  -0.02078356 -0.013441095 
    5453   -1152449.3            0   -1152449.3 3.9592016e-05 -3.515418e-06 -1.8330614e-05 
Loop time of 2.07092 on 104 procs for 180 steps with 288751 atoms

99.9% CPU use with 104 MPI tasks x 1 OpenMP threads

Minimization stats:
  Stopping criterion = energy tolerance
  Energy initial, next-to-last, final = 
     -1152449.32222179  -1152449.32405357  -1152449.32405357
  Force two-norm initial, final = 0.20009807 0.0001348408
  Force max component initial, final = 0.1170314 3.9592016e-05
  Final line search alpha, max atom move = 1.0000000 3.9592016e-05
  Iterations, force evaluations = 180 360

MPI task timing breakdown:
Section |  min time  |  avg time  |  max time  |%varavg| %total
---------------------------------------------------------------
Pair    | 0.54603    | 1.5086     | 1.9563     |  33.2 | 72.85
Neigh   | 0          | 0          | 0          |   0.0 |  0.00
Comm    | 0.031113   | 0.33951    | 1.0311     |  49.3 | 16.39
Output  | 0          | 0          | 0          |   0.0 |  0.00
Modify  | 2.232e-05  | 0.0029687  | 0.0063362  |   2.6 |  0.14
Other   |            | 0.2198     |            |       | 10.61

Nlocal:        2776.45 ave        3945 max           0 min
Histogram: 8 4 4 0 4 12 8 2 24 38
Nghost:        3879.47 ave        5427 max         232 min
Histogram: 8 0 8 0 16 0 8 8 16 40
Neighs:        79213.6 ave      114764 max           0 min
Histogram: 8 4 4 0 10 6 8 8 22 34

Total # of neighbors = 8238215
Ave neighs/atom = 28.530516
Neighbor list builds = 0
Dangerous builds = 0
The dot product: 1.30352742445036e-07
Setting atom values ...
  1 settings made for x
  1 settings made for y
  1 settings made for z
Setting up cg style minimization ...
  Unit style    : metal
  Current step  : 5453
Per MPI rank memory allocation (min/avg/max) = 5.441 | 5.816 | 6.074 Mbytes
Step PotEng KinEng TotEng v_fx v_fy v_fz 
    5453   -1152449.3            0   -1152449.3  0.027189674 -0.029659615 -0.012935432 
    5691   -1152449.3            0   -1152449.3 1.8564892e-06 -7.5632582e-07 -8.7602291e-07 
Loop time of 2.75689 on 104 procs for 238 steps with 288751 atoms

99.9% CPU use with 104 MPI tasks x 1 OpenMP threads

Minimization stats:
  Stopping criterion = energy tolerance
  Energy initial, next-to-last, final = 
     -1152449.30023281  -1152449.30406363  -1152449.30406363
  Force two-norm initial, final = 0.20152942 3.9396289e-05
  Force max component initial, final = 0.119239 9.0581665e-06
  Final line search alpha, max atom move = 1.0000000 9.0581665e-06
  Iterations, force evaluations = 238 476

MPI task timing breakdown:
Section |  min time  |  avg time  |  max time  |%varavg| %total
---------------------------------------------------------------
Pair    | 0.7228     | 1.998      | 2.6104     |  38.2 | 72.47
Neigh   | 0          | 0          | 0          |   0.0 |  0.00
Comm    | 0.040969   | 0.45383    | 1.372      |  56.4 | 16.46
Output  | 0          | 0          | 0          |   0.0 |  0.00
Modify  | 2.836e-05  | 0.0039274  | 0.0083716  |   3.0 |  0.14
Other   |            | 0.3012     |            |       | 10.92

Nlocal:        2776.45 ave        3945 max           0 min
Histogram: 8 4 4 0 4 12 8 2 24 38
Nghost:        3879.49 ave        5427 max         232 min
Histogram: 8 0 8 0 16 0 8 8 16 40
Neighs:        79213.6 ave      114757 max           0 min
Histogram: 8 4 4 0 10 6 8 8 22 34

Total # of neighbors = 8238218
Ave neighs/atom = 28.530526
Neighbor list builds = 0
Dangerous builds = 0
The dot product: 3.52040478691722e-08
Setting atom values ...
  1 settings made for x
  1 settings made for y
  1 settings made for z
Setting up cg style minimization ...
  Unit style    : metal
  Current step  : 5691
Per MPI rank memory allocation (min/avg/max) = 5.441 | 5.816 | 6.074 Mbytes
Step PotEng KinEng TotEng v_fx v_fy v_fz 
    5691   -1152449.3            0   -1152449.3  -0.02818136  -0.20747917 -0.024287539 
    5924   -1152449.3            0   -1152449.3 6.109336e-05 -1.9611539e-05 -3.0265803e-05 
Loop time of 2.6956 on 104 procs for 233 steps with 288751 atoms

99.9% CPU use with 104 MPI tasks x 1 OpenMP threads

Minimization stats:
  Stopping criterion = energy tolerance
  Energy initial, next-to-last, final = 
     -1152449.28249731  -1152449.33931776  -1152449.33931776
  Force two-norm initial, final = 0.28515328 0.0002057563
  Force max component initial, final = 0.20747917 6.6442615e-05
  Final line search alpha, max atom move = 1.0000000 6.6442615e-05
  Iterations, force evaluations = 233 466

MPI task timing breakdown:
Section |  min time  |  avg time  |  max time  |%varavg| %total
---------------------------------------------------------------
Pair    | 0.71698    | 1.957      | 2.537      |  37.4 | 72.60
Neigh   | 2.0223e-05 | 0.0059199  | 0.0086124  |   3.2 |  0.22
Comm    | 0.040428   | 0.43962    | 1.3316     |  56.0 | 16.31
Output  | 0          | 0          | 0          |   0.0 |  0.00
Modify  | 2.7721e-05 | 0.0038332  | 0.0081397  |   2.9 |  0.14
Other   |            | 0.2893     |            |       | 10.73

Nlocal:        2776.45 ave        3946 max           0 min
Histogram: 8 4 4 0 4 12 8 2 24 38
Nghost:        3879.43 ave        5427 max         232 min
Histogram: 8 0 8 0 16 0 8 8 16 40
Neighs:        79213.4 ave      114789 max           0 min
Histogram: 8 4 4 0 10 6 8 8 22 34

Total # of neighbors = 8238191
Ave neighs/atom = 28.530433
Neighbor list builds = 2
Dangerous builds = 0
The dot product: -1.92171138954514e-07
Setting atom values ...
  1 settings made for x
  1 settings made for y
  1 settings made for z
Setting up cg style minimization ...
  Unit style    : metal
  Current step  : 5924
Per MPI rank memory allocation (min/avg/max) = 5.441 | 5.816 | 6.074 Mbytes
Step PotEng KinEng TotEng v_fx v_fy v_fz 
    5924   -1152449.3            0   -1152449.3 -0.040058099  -0.11014711 -0.062647159 
    6000   -1152449.3            0   -1152449.3 0.00014753925 -0.00020235879 -0.00017579404 
    6107   -1152449.3            0   -1152449.3 -4.4447179e-06 -2.8753603e-06 -7.0236231e-07 
Loop time of 2.11131 on 104 procs for 183 steps with 288751 atoms

99.9% CPU use with 104 MPI tasks x 1 OpenMP threads

Minimization stats:
  Stopping criterion = energy tolerance
  Energy initial, next-to-last, final = 
     -1152449.33419351  -1152449.33623556  -1152449.33623556
  Force two-norm initial, final = 0.19641275 9.3884699e-05
  Force max component initial, final = 0.11014711 1.1217933e-05
  Final line search alpha, max atom move = 1.0000000 1.1217933e-05
  Iterations, force evaluations = 183 366

MPI task timing breakdown:
Section |  min time  |  avg time  |  max time  |%varavg| %total
---------------------------------------------------------------
Pair    | 0.5586     | 1.5388     | 1.9959     |  33.5 | 72.88
Neigh   | 0          | 0          | 0          |   0.0 |  0.00
Comm    | 0.032523   | 0.34695    | 1.0491     |  49.6 | 16.43
Output  | 0.00014605 | 0.00015962 | 0.00030681 |   0.0 |  0.01
Modify  | 2.2845e-05 | 0.0030175  | 0.0064054  |   2.6 |  0.14
Other   |            | 0.2224     |            |       | 10.53

Nlocal:        2776.45 ave        3947 max           0 min
Histogram: 8 4 4 0 4 12 8 4 22 38
Nghost:        3879.51 ave        5428 max         232 min
Histogram: 8 0 8 0 16 0 8 8 16 40
Neighs:        79213.3 ave      114832 max           0 min
Histogram: 8 4 4 0 10 6 8 8 20 36

Total # of neighbors = 8238188
Ave neighs/atom = 28.530422
Neighbor list builds = 0
Dangerous builds = 0
The dot product: 8.85215287709268e-08
Setting atom values ...
  1 settings made for x
  1 settings made for y
  1 settings made for z
Setting up cg style minimization ...
  Unit style    : metal
  Current step  : 6107
Per MPI rank memory allocation (min/avg/max) = 5.441 | 5.816 | 6.074 Mbytes
Step PotEng KinEng TotEng v_fx v_fy v_fz 
    6107   -1152449.3            0   -1152449.3 -0.0096092997 -0.054523707 -0.036142788 
    6279   -1152449.3            0   -1152449.3 2.0813097e-05 2.4125256e-06 -3.7324327e-06 
Loop time of 1.99696 on 104 procs for 172 steps with 288751 atoms

99.9% CPU use with 104 MPI tasks x 1 OpenMP threads

Minimization stats:
  Stopping criterion = energy tolerance
  Energy initial, next-to-last, final = 
     -1152449.32993332  -1152449.33110486  -1152449.33110486
  Force two-norm initial, final = 0.15578986 0.000168889
  Force max component initial, final = 0.061698738 2.0813097e-05
  Final line search alpha, max atom move = 1.0000000 2.0813097e-05
  Iterations, force evaluations = 172 344

MPI task timing breakdown:
Section |  min time  |  avg time  |  max time  |%varavg| %total
---------------------------------------------------------------
Pair    | 0.52231    | 1.4426     | 1.8717     |  32.3 | 72.24
Neigh   | 0          | 0          | 0          |   0.0 |  0.00
Comm    | 0.031528   | 0.32314    | 0.98889    |  48.3 | 16.18
Output  | 0          | 0          | 0          |   0.0 |  0.00
Modify  | 2.1042e-05 | 0.0028326  | 0.0060405  |   2.5 |  0.14
Other   |            | 0.2284     |            |       | 11.44

Nlocal:        2776.45 ave        3946 max           0 min
Histogram: 8 4 4 0 4 12 8 2 24 38
Nghost:        3879.51 ave        5428 max         232 min
Histogram: 8 0 8 0 16 0 8 8 16 40
Neighs:        79213.3 ave      114804 max           0 min
Histogram: 8 4 4 0 10 6 8 8 22 34

Total # of neighbors = 8238186
Ave neighs/atom = 28.530415
Neighbor list builds = 0
Dangerous builds = 0
The dot product: -3.47159385203246e-08
Setting atom values ...
  1 settings made for x
  1 settings made for y
  1 settings made for z
Setting up cg style minimization ...
  Unit style    : metal
  Current step  : 6279
Per MPI rank memory allocation (min/avg/max) = 5.441 | 5.816 | 6.074 Mbytes
Step PotEng KinEng TotEng v_fx v_fy v_fz 
    6279   -1152449.3            0   -1152449.3 -0.0075815935 -0.049851122 -0.033900398 
    6564   -1152449.3            0   -1152449.3 -5.0096319e-08 1.6840872e-08 2.5119157e-08 
Loop time of 3.31165 on 104 procs for 285 steps with 288751 atoms

99.9% CPU use with 104 MPI tasks x 1 OpenMP threads

Minimization stats:
  Stopping criterion = energy tolerance
  Energy initial, next-to-last, final = 
     -1152449.32335839  -1152449.32448327  -1152449.32448327
  Force two-norm initial, final = 0.15206014 9.8493215e-07
  Force max component initial, final = 0.059778068 2.1076120e-07
  Final line search alpha, max atom move = 1.0000000 2.1076120e-07
  Iterations, force evaluations = 285 570

MPI task timing breakdown:
Section |  min time  |  avg time  |  max time  |%varavg| %total
---------------------------------------------------------------
Pair    | 0.86622    | 2.3985     | 3.1214     |  41.9 | 72.43
Neigh   | 0          | 0          | 0          |   0.0 |  0.00
Comm    | 0.051029   | 0.54618    | 1.6341     |  61.3 | 16.49
Output  | 0          | 0          | 0          |   0.0 |  0.00
Modify  | 3.3469e-05 | 0.0046888  | 0.0099751  |   3.2 |  0.14
Other   |            | 0.3623     |            |       | 10.94

Nlocal:        2776.45 ave        3946 max           0 min
Histogram: 8 4 4 0 4 12 8 2 24 38
Nghost:        3879.55 ave        5428 max         232 min
Histogram: 8 0 8 0 16 0 8 8 16 40
Neighs:        79213.3 ave      114788 max           0 min
Histogram: 8 4 4 0 10 6 8 8 22 34

Total # of neighbors = 8238188
Ave neighs/atom = 28.530422
Neighbor list builds = 0
Dangerous builds = 0
The dot product: -4.38562224781789e-11
Setting up cg style minimization ...
  Unit style    : metal
  Current step  : 6564
Per MPI rank memory allocation (min/avg/max) = 5.441 | 5.816 | 6.074 Mbytes
Step PotEng KinEng TotEng v_fx v_fy v_fz 
    6564   -1152449.3            0   -1152449.3  -0.07599046   0.21066198   -0.2927873 
    6786   -1152449.3            0   -1152449.3 -3.9520769e-05 4.587848e-06 2.5429505e-05 
Loop time of 2.58108 on 104 procs for 222 steps with 288751 atoms

99.9% CPU use with 104 MPI tasks x 1 OpenMP threads

Minimization stats:
  Stopping criterion = energy tolerance
  Energy initial, next-to-last, final = 
     -1152449.32448327  -1152449.34271995  -1152449.34271995
  Force two-norm initial, final = 0.36861554 0.00015128302
  Force max component initial, final = 0.2927873 3.9520769e-05
  Final line search alpha, max atom move = 1.0000000 3.9520769e-05
  Iterations, force evaluations = 222 444

MPI task timing breakdown:
Section |  min time  |  avg time  |  max time  |%varavg| %total
---------------------------------------------------------------
Pair    | 0.6763     | 1.8608     | 2.4123     |  36.7 | 72.09
Neigh   | 1.0188e-05 | 0.0029567  | 0.0042931  |   2.2 |  0.11
Comm    | 0.044694   | 0.42188    | 1.2793     |  54.2 | 16.35
Output  | 0          | 0          | 0          |   0.0 |  0.00
Modify  | 2.5089e-05 | 0.002379   | 0.0060683  |   3.1 |  0.09
Other   |            | 0.2931     |            |       | 11.35

Nlocal:        2776.45 ave        3946 max           0 min
Histogram: 8 4 4 0 4 12 8 2 24 38
Nghost:        3879.55 ave        5428 max         232 min
Histogram: 8 0 8 0 16 0 8 8 16 40
Neighs:        79213.4 ave      114787 max           0 min
Histogram: 8 4 4 0 10 6 8 8 22 34

Total # of neighbors = 8238193
Ave neighs/atom = 28.530440
Neighbor list builds = 1
Dangerous builds = 0
