LAMMPS (29 Oct 2020)
OMP_NUM_THREADS environment is not set. Defaulting to 1 thread. (../comm.cpp:94)
  using 1 OpenMP thread(s) per MPI task
OMP_NUM_THREADS environment is not set. Defaulting to 1 thread. (../comm.cpp:94)
  using 1 OpenMP thread(s) per MPI task
Reading data file ...
  orthogonal box = (-122.39241 -121.13707 -37.090501) to (122.39241 121.13707 37.090501)
  13 by 4 by 2 MPI processor grid
  reading atoms ...
  288751 atoms
  read_data CPU = 0.370 seconds
199981 atoms in group inner
88770 atoms in group outer
1 atoms in group carbon
Neighbor list info ...
  update every 1 steps, delay 0 steps, check yes
  max neighbors/atom: 2000, page size: 100000
  master list distance cutoff = 5.6
  ghost atom cutoff = 5.6
  binsize = 2.8, bins = 88 87 27
  1 neighbor lists, perpetual/occasional/extra = 1 0 0
  (1) pair eam/alloy, perpetual
      attributes: half, newton on
      pair build: half/bin/atomonly/newton
      stencil: half/bin/3d/newton
      bin: standard
Setting up cg style minimization ...
  Unit style    : metal
  Current step  : 0
Per MPI rank memory allocation (min/avg/max) = 5.441 | 5.816 | 6.074 Mbytes
Step v_fx v_fy v_fz PotEng KinEng TotEng 
       0   0.12986372   -30.119984    50.502853   -1152433.3            0   -1152433.3 
     179 -2.7375629e-06 -5.2793157e-06 1.8455393e-05   -1152449.5            0   -1152449.5 
Loop time of 2.10129 on 104 procs for 179 steps with 288751 atoms

99.8% CPU use with 104 MPI tasks x 1 OpenMP threads

Minimization stats:
  Stopping criterion = energy tolerance
  Energy initial, next-to-last, final = 
     -1152433.27242608  -1152449.45035272  -1152449.45035272
  Force two-norm initial, final = 88.090105 5.9871749e-05
  Force max component initial, final = 57.624396 1.8455393e-05
  Final line search alpha, max atom move = 1.0000000 1.8455393e-05
  Iterations, force evaluations = 179 350

MPI task timing breakdown:
Section |  min time  |  avg time  |  max time  |%varavg| %total
---------------------------------------------------------------
Pair    | 0.55408    | 1.4798     | 1.9143     |  32.2 | 70.42
Neigh   | 5.1576e-05 | 0.014657   | 0.021259   |   5.0 |  0.70
Comm    | 0.034339   | 0.33989    | 1.0047     |  47.4 | 16.18
Output  | 0          | 0          | 0          |   0.0 |  0.00
Modify  | 2.0434e-05 | 0.0019011  | 0.0048606  |   2.7 |  0.09
Other   |            | 0.265      |            |       | 12.61

Nlocal:        2776.45 ave        3960 max           0 min
Histogram: 8 4 4 0 4 12 8 2 28 34
Nghost:        3879.01 ave        5424 max         232 min
Histogram: 8 0 8 0 16 0 8 8 16 40
Neighs:        79213.5 ave      115433 max           0 min
Histogram: 8 4 4 0 10 6 8 8 24 32

Total # of neighbors = 8238208
Ave neighs/atom = 28.530492
Neighbor list builds = 5
Dangerous builds = 0
Setting atom values ...
  1 settings made for x
  1 settings made for y
  1 settings made for z
Setting up cg style minimization ...
  Unit style    : metal
  Current step  : 179
Per MPI rank memory allocation (min/avg/max) = 5.441 | 5.816 | 6.074 Mbytes
Step PotEng KinEng TotEng v_fx v_fy v_fz 
     179   -1152449.4            0   -1152449.4 -0.0077665146 0.0064519544 0.0012351057 
     290   -1152449.5            0   -1152449.5 -9.5179846e-06 -1.826488e-05 -8.2046704e-05 
Loop time of 1.33192 on 104 procs for 111 steps with 288751 atoms

99.8% CPU use with 104 MPI tasks x 1 OpenMP threads

Minimization stats:
  Stopping criterion = energy tolerance
  Energy initial, next-to-last, final = 
     -1152449.44945362  -1152449.45006284  -1152449.45006284
  Force two-norm initial, final = 0.11539684 0.00020355213
  Force max component initial, final = 0.05172762 8.2046704e-05
  Final line search alpha, max atom move = 1.0000000 8.2046704e-05
  Iterations, force evaluations = 111 222

MPI task timing breakdown:
Section |  min time  |  avg time  |  max time  |%varavg| %total
---------------------------------------------------------------
Pair    | 0.33634    | 0.94378    | 1.2302     |  26.3 | 70.86
Neigh   | 0          | 0          | 0          |   0.0 |  0.00
Comm    | 0.020556   | 0.21543    | 0.63156    |  37.9 | 16.17
Output  | 0          | 0          | 0          |   0.0 |  0.00
Modify  | 1.3121e-05 | 0.001853   | 0.0039419  |   2.0 |  0.14
Other   |            | 0.1709     |            |       | 12.83

Nlocal:        2776.45 ave        3961 max           0 min
Histogram: 8 4 4 0 6 10 8 2 28 34
Nghost:        3879.01 ave        5424 max         232 min
Histogram: 8 0 8 0 16 0 8 8 16 40
Neighs:        79213.4 ave      115455 max           0 min
Histogram: 8 4 4 0 10 6 8 8 24 32

Total # of neighbors = 8238198
Ave neighs/atom = 28.530457
Neighbor list builds = 0
Dangerous builds = 0
Setting atom values ...
  1 settings made for x
  1 settings made for y
  1 settings made for z
Setting up cg style minimization ...
  Unit style    : metal
  Current step  : 290
Per MPI rank memory allocation (min/avg/max) = 5.441 | 5.816 | 6.074 Mbytes
Step PotEng KinEng TotEng v_fx v_fy v_fz 
     290   -1152449.4            0   -1152449.4 -0.018712788  0.018058822 0.0025940284 
     400   -1152449.4            0   -1152449.4 4.0831302e-06 1.7914266e-05 8.5262425e-05 
Loop time of 1.29507 on 104 procs for 110 steps with 288751 atoms

99.9% CPU use with 104 MPI tasks x 1 OpenMP threads

Minimization stats:
  Stopping criterion = energy tolerance
  Energy initial, next-to-last, final = 
     -1152449.44670615  -1152449.44838203  -1152449.44838203
  Force two-norm initial, final = 0.19211452 0.00027540935
  Force max component initial, final = 0.080077733 8.5262425e-05
  Final line search alpha, max atom move = 1.0000000 8.5262425e-05
  Iterations, force evaluations = 110 220

MPI task timing breakdown:
Section |  min time  |  avg time  |  max time  |%varavg| %total
---------------------------------------------------------------
Pair    | 0.33384    | 0.92562    | 1.2053     |  26.0 | 71.47
Neigh   | 0          | 0          | 0          |   0.0 |  0.00
Comm    | 0.019814   | 0.2093     | 0.6249     |  38.2 | 16.16
Output  | 0          | 0          | 0          |   0.0 |  0.00
Modify  | 1.3783e-05 | 0.0018237  | 0.0038873  |   2.0 |  0.14
Other   |            | 0.1583     |            |       | 12.23

Nlocal:        2776.45 ave        3961 max           0 min
Histogram: 8 4 4 0 6 10 8 2 28 34
Nghost:        3879.01 ave        5426 max         232 min
Histogram: 8 0 8 0 16 0 8 8 16 40
Neighs:        79213.5 ave      115455 max           0 min
Histogram: 8 4 4 0 10 6 8 8 24 32

Total # of neighbors = 8238199
Ave neighs/atom = 28.530461
Neighbor list builds = 0
Dangerous builds = 0
The dot product: -1.09100479542953e-07
Setting atom values ...
  1 settings made for x
  1 settings made for y
  1 settings made for z
Setting up cg style minimization ...
  Unit style    : metal
  Current step  : 400
Per MPI rank memory allocation (min/avg/max) = 5.441 | 5.816 | 6.074 Mbytes
Step PotEng KinEng TotEng v_fx v_fy v_fz 
     400   -1152449.4            0   -1152449.4 -0.023612155  0.026784583  0.002758659 
     507   -1152449.4            0   -1152449.4 1.9576934e-06 4.1995811e-06 3.1317257e-05 
Loop time of 1.27817 on 104 procs for 107 steps with 288751 atoms

99.9% CPU use with 104 MPI tasks x 1 OpenMP threads

Minimization stats:
  Stopping criterion = energy tolerance
  Energy initial, next-to-last, final = 
     -1152449.44354924  -1152449.44522686  -1152449.44522686
  Force two-norm initial, final = 0.19235585 0.00023397706
  Force max component initial, final = 0.076110199 3.1317257e-05
  Final line search alpha, max atom move = 1.0000000 3.1317257e-05
  Iterations, force evaluations = 107 214

MPI task timing breakdown:
Section |  min time  |  avg time  |  max time  |%varavg| %total
---------------------------------------------------------------
Pair    | 0.32315    | 0.90931    | 1.1922     |  25.9 | 71.14
Neigh   | 0          | 0          | 0          |   0.0 |  0.00
Comm    | 0.019387   | 0.20974    | 0.61733    |  37.3 | 16.41
Output  | 0          | 0          | 0          |   0.0 |  0.00
Modify  | 1.2449e-05 | 0.0017795  | 0.0037558  |   2.0 |  0.14
Other   |            | 0.1573     |            |       | 12.31

Nlocal:        2776.45 ave        3960 max           0 min
Histogram: 8 4 4 0 4 12 8 2 28 34
Nghost:        3879.01 ave        5426 max         232 min
Histogram: 8 0 8 0 16 0 8 8 16 40
Neighs:        79213.5 ave      115424 max           0 min
Histogram: 8 4 4 0 10 6 8 8 24 32

Total # of neighbors = 8238201
Ave neighs/atom = 28.530467
Neighbor list builds = 0
Dangerous builds = 0
The dot product: -5.46080443929918e-08
Setting atom values ...
  1 settings made for x
  1 settings made for y
  1 settings made for z
Setting up cg style minimization ...
  Unit style    : metal
  Current step  : 507
Per MPI rank memory allocation (min/avg/max) = 5.441 | 5.816 | 6.074 Mbytes
Step PotEng KinEng TotEng v_fx v_fy v_fz 
     507   -1152449.4            0   -1152449.4 -0.025612464  0.033929229 0.0040175656 
     682   -1152449.4            0   -1152449.4 -1.3461274e-06 8.9790202e-07 -5.3018109e-06 
Loop time of 2.05706 on 104 procs for 175 steps with 288751 atoms

99.9% CPU use with 104 MPI tasks x 1 OpenMP threads

Minimization stats:
  Stopping criterion = energy tolerance
  Energy initial, next-to-last, final = 
     -1152449.43890915  -1152449.44057846  -1152449.44057846
  Force two-norm initial, final = 0.19192539 6.9130638e-05
  Force max component initial, final = 0.073471129 1.4217071e-05
  Final line search alpha, max atom move = 1.0000000 1.4217071e-05
  Iterations, force evaluations = 175 350

MPI task timing breakdown:
Section |  min time  |  avg time  |  max time  |%varavg| %total
---------------------------------------------------------------
Pair    | 0.52812    | 1.4691     | 1.9076     |  32.7 | 71.42
Neigh   | 0          | 0          | 0          |   0.0 |  0.00
Comm    | 0.03722    | 0.33189    | 0.99492    |  48.0 | 16.13
Output  | 0          | 0          | 0          |   0.0 |  0.00
Modify  | 2.0497e-05 | 0.0028991  | 0.0061809  |   2.5 |  0.14
Other   |            | 0.2532     |            |       | 12.31

Nlocal:        2776.45 ave        3960 max           0 min
Histogram: 8 4 4 0 4 12 8 2 28 34
Nghost:        3879.01 ave        5426 max         232 min
Histogram: 8 0 8 0 16 0 8 8 16 40
Neighs:        79213.5 ave      115424 max           0 min
Histogram: 8 4 4 0 10 6 8 8 24 32

Total # of neighbors = 8238201
Ave neighs/atom = 28.530467
Neighbor list builds = 0
Dangerous builds = 0
The dot product: 1.79952504001262e-08
Setting atom values ...
  1 settings made for x
  1 settings made for y
  1 settings made for z
Setting up cg style minimization ...
  Unit style    : metal
  Current step  : 682
Per MPI rank memory allocation (min/avg/max) = 5.441 | 5.816 | 6.074 Mbytes
Step PotEng KinEng TotEng v_fx v_fy v_fz 
     682   -1152449.4            0   -1152449.4 -0.025936847  0.039471145 0.0062511219 
     830   -1152449.4            0   -1152449.4 3.5460906e-07 9.2369101e-07 1.1595413e-05 
Loop time of 1.73519 on 104 procs for 148 steps with 288751 atoms

99.9% CPU use with 104 MPI tasks x 1 OpenMP threads

Minimization stats:
  Stopping criterion = energy tolerance
  Energy initial, next-to-last, final = 
     -1152449.43275234  -1152449.43440607  -1152449.43440607
  Force two-norm initial, final = 0.19101888 3.5661068e-05
  Force max component initial, final = 0.073803247 1.1595413e-05
  Final line search alpha, max atom move = 1.0000000 1.1595413e-05
  Iterations, force evaluations = 148 296

MPI task timing breakdown:
Section |  min time  |  avg time  |  max time  |%varavg| %total
---------------------------------------------------------------
Pair    | 0.4468     | 1.2499     | 1.6282     |  30.2 | 72.03
Neigh   | 0          | 0          | 0          |   0.0 |  0.00
Comm    | 0.02777    | 0.28152    | 0.83752    |  44.3 | 16.22
Output  | 0          | 0          | 0          |   0.0 |  0.00
Modify  | 1.8495e-05 | 0.0024541  | 0.00527    |   2.3 |  0.14
Other   |            | 0.2013     |            |       | 11.60

Nlocal:        2776.45 ave        3960 max           0 min
Histogram: 8 4 4 0 4 12 8 2 28 34
Nghost:        3879.01 ave        5426 max         232 min
Histogram: 8 0 8 0 16 0 8 8 16 40
Neighs:        79213.5 ave      115424 max           0 min
Histogram: 8 4 4 0 10 6 8 8 24 32

Total # of neighbors = 8238200
Ave neighs/atom = 28.530464
Neighbor list builds = 0
Dangerous builds = 0
The dot product: -1.8787446501965e-08
Setting atom values ...
  1 settings made for x
  1 settings made for y
  1 settings made for z
Setting up cg style minimization ...
  Unit style    : metal
  Current step  : 830
Per MPI rank memory allocation (min/avg/max) = 5.441 | 5.816 | 6.074 Mbytes
Step PotEng KinEng TotEng v_fx v_fy v_fz 
     830   -1152449.4            0   -1152449.4 -0.025538074  0.043958511 0.0091836309 
     957   -1152449.4            0   -1152449.4 -1.1585082e-06 -3.0569724e-07 -2.3300497e-05 
Loop time of 1.4981 on 104 procs for 127 steps with 288751 atoms

99.9% CPU use with 104 MPI tasks x 1 OpenMP threads

Minimization stats:
  Stopping criterion = energy tolerance
  Energy initial, next-to-last, final = 
     -1152449.42504371  -1152449.42667929  -1152449.42667929
  Force two-norm initial, final = 0.18989965 0.00010983529
  Force max component initial, final = 0.073473459 2.3300497e-05
  Final line search alpha, max atom move = 1.0000000 2.3300497e-05
  Iterations, force evaluations = 127 254

MPI task timing breakdown:
Section |  min time  |  avg time  |  max time  |%varavg| %total
---------------------------------------------------------------
Pair    | 0.38205    | 1.0694     | 1.3917     |  28.0 | 71.38
Neigh   | 0          | 0          | 0          |   0.0 |  0.00
Comm    | 0.023391   | 0.24374    | 0.73187    |  40.8 | 16.27
Output  | 0          | 0          | 0          |   0.0 |  0.00
Modify  | 1.4853e-05 | 0.0021058  | 0.0044736  |   2.2 |  0.14
Other   |            | 0.1828     |            |       | 12.20

Nlocal:        2776.45 ave        3959 max           0 min
Histogram: 8 4 4 0 4 12 8 2 28 34
Nghost:        3879.01 ave        5426 max         232 min
Histogram: 8 0 8 0 16 0 8 8 16 40
Neighs:        79213.5 ave      115390 max           0 min
Histogram: 8 4 4 0 10 6 8 8 24 32

Total # of neighbors = 8238202
Ave neighs/atom = 28.530471
Neighbor list builds = 0
Dangerous builds = 0
The dot product: 3.81554067837623e-08
Setting atom values ...
  1 settings made for x
  1 settings made for y
  1 settings made for z
Setting up cg style minimization ...
  Unit style    : metal
  Current step  : 957
Per MPI rank memory allocation (min/avg/max) = 5.441 | 5.816 | 6.074 Mbytes
Step PotEng KinEng TotEng v_fx v_fy v_fz 
     957   -1152449.4            0   -1152449.4 -0.024909086  0.047959845  0.012634283 
    1000   -1152449.4            0   -1152449.4 1.5228499e-05 -7.348754e-05 -0.00058917282 
    1069   -1152449.4            0   -1152449.4 -5.1352385e-06 1.3442515e-05 4.9407788e-05 
Loop time of 1.34797 on 104 procs for 112 steps with 288751 atoms

99.8% CPU use with 104 MPI tasks x 1 OpenMP threads

Minimization stats:
  Stopping criterion = energy tolerance
  Energy initial, next-to-last, final = 
      -1152449.4157581    -1152449.417375    -1152449.417375
  Force two-norm initial, final = 0.18873775 0.00022312596
  Force max component initial, final = 0.072541505 4.9407788e-05
  Final line search alpha, max atom move = 1.0000000 4.9407788e-05
  Iterations, force evaluations = 112 224

MPI task timing breakdown:
Section |  min time  |  avg time  |  max time  |%varavg| %total
---------------------------------------------------------------
Pair    | 0.34071    | 0.95294    | 1.2437     |  26.5 | 70.69
Neigh   | 0          | 0          | 0          |   0.0 |  0.00
Comm    | 0.023955   | 0.21813    | 0.63819    |  37.9 | 16.18
Output  | 0.00046868 | 0.00047245 | 0.00057617 |   0.0 |  0.04
Modify  | 1.2902e-05 | 0.001921   | 0.0083619  |   2.5 |  0.14
Other   |            | 0.1745     |            |       | 12.95

Nlocal:        2776.45 ave        3959 max           0 min
Histogram: 8 4 4 0 4 12 8 2 28 34
Nghost:        3879.01 ave        5427 max         232 min
Histogram: 8 0 8 0 16 0 8 8 16 40
Neighs:        79213.5 ave      115390 max           0 min
Histogram: 8 4 4 0 10 6 8 8 24 32

Total # of neighbors = 8238201
Ave neighs/atom = 28.530467
Neighbor list builds = 0
Dangerous builds = 0
The dot product: 2.51991013409983e-08
Setting atom values ...
  1 settings made for x
  1 settings made for y
  1 settings made for z
Setting up cg style minimization ...
  Unit style    : metal
  Current step  : 1069
Per MPI rank memory allocation (min/avg/max) = 5.441 | 5.816 | 6.074 Mbytes
Step PotEng KinEng TotEng v_fx v_fy v_fz 
    1069   -1152449.4            0   -1152449.4 -0.024303972  0.052073476  0.016758125 
    1248   -1152449.4            0   -1152449.4 -8.4105087e-07 1.0545451e-06 -1.1323564e-05 
Loop time of 2.07506 on 104 procs for 179 steps with 288751 atoms

99.9% CPU use with 104 MPI tasks x 1 OpenMP threads

Minimization stats:
  Stopping criterion = energy tolerance
  Energy initial, next-to-last, final = 
      -1152449.4048811  -1152449.40648225  -1152449.40648225
  Force two-norm initial, final = 0.1877811 5.6481540e-05
  Force max component initial, final = 0.071159576 1.1323564e-05
  Final line search alpha, max atom move = 1.0000000 1.1323564e-05
  Iterations, force evaluations = 179 358

MPI task timing breakdown:
Section |  min time  |  avg time  |  max time  |%varavg| %total
---------------------------------------------------------------
Pair    | 0.53605    | 1.5007     | 1.9485     |  33.1 | 72.32
Neigh   | 0          | 0          | 0          |   0.0 |  0.00
Comm    | 0.03136    | 0.33735    | 1.0236     |  49.2 | 16.26
Output  | 0          | 0          | 0          |   0.0 |  0.00
Modify  | 2.1895e-05 | 0.0029589  | 0.0063209  |   2.6 |  0.14
Other   |            | 0.2341     |            |       | 11.28

Nlocal:        2776.45 ave        3958 max           0 min
Histogram: 8 4 4 0 4 12 8 2 28 34
Nghost:        3879.01 ave        5425 max         232 min
Histogram: 8 0 8 0 16 0 8 8 16 40
Neighs:        79213.5 ave      115348 max           0 min
Histogram: 8 4 4 0 10 6 8 8 24 32

Total # of neighbors = 8238200
Ave neighs/atom = 28.530464
Neighbor list builds = 0
Dangerous builds = 0
The dot product: 1.44621946289193e-08
Setting atom values ...
  1 settings made for x
  1 settings made for y
  1 settings made for z
Setting up cg style minimization ...
  Unit style    : metal
  Current step  : 1248
Per MPI rank memory allocation (min/avg/max) = 5.441 | 5.816 | 6.074 Mbytes
Step PotEng KinEng TotEng v_fx v_fy v_fz 
    1248   -1152449.4            0   -1152449.4 -0.023819886  0.056913373  0.021530052 
    1424   -1152449.4            0   -1152449.4 3.5401744e-07 -6.9361771e-07 2.2526642e-06 
Loop time of 2.09418 on 104 procs for 176 steps with 288751 atoms

99.9% CPU use with 104 MPI tasks x 1 OpenMP threads

Minimization stats:
  Stopping criterion = energy tolerance
  Energy initial, next-to-last, final = 
     -1152449.39241359  -1152449.39400771  -1152449.39400771
  Force two-norm initial, final = 0.18716527 1.8892135e-05
  Force max component initial, final = 0.069097361 2.9233111e-06
  Final line search alpha, max atom move = 1.0000000 2.9233111e-06
  Iterations, force evaluations = 176 352

MPI task timing breakdown:
Section |  min time  |  avg time  |  max time  |%varavg| %total
---------------------------------------------------------------
Pair    | 0.52903    | 1.4921     | 1.9474     |  32.9 | 71.25
Neigh   | 0          | 0          | 0          |   0.0 |  0.00
Comm    | 0.034098   | 0.34322    | 1.0168     |  48.0 | 16.39
Output  | 0          | 0          | 0          |   0.0 |  0.00
Modify  | 2.0482e-05 | 0.0029144  | 0.0061923  |   2.5 |  0.14
Other   |            | 0.2559     |            |       | 12.22

Nlocal:        2776.45 ave        3958 max           0 min
Histogram: 8 4 4 0 4 12 8 2 28 34
Nghost:        3879.01 ave        5425 max         232 min
Histogram: 8 0 8 0 16 0 8 8 16 40
Neighs:        79213.4 ave      115348 max           0 min
Histogram: 8 4 4 0 10 6 8 8 24 32

Total # of neighbors = 8238198
Ave neighs/atom = 28.530457
Neighbor list builds = 0
Dangerous builds = 0
The dot product: -4.87146709778722e-09
Setting atom values ...
  1 settings made for x
  1 settings made for y
  1 settings made for z
Setting up cg style minimization ...
  Unit style    : metal
  Current step  : 1424
Per MPI rank memory allocation (min/avg/max) = 5.441 | 5.816 | 6.074 Mbytes
Step PotEng KinEng TotEng v_fx v_fy v_fz 
    1424   -1152449.4            0   -1152449.4 -0.023449583  0.063308023  0.027520082 
    1557   -1152449.4            0   -1152449.4 -4.4262395e-06 1.0722878e-05 -1.2660526e-05 
Loop time of 1.55372 on 104 procs for 133 steps with 288751 atoms

99.9% CPU use with 104 MPI tasks x 1 OpenMP threads

Minimization stats:
  Stopping criterion = energy tolerance
  Energy initial, next-to-last, final = 
     -1152449.37838056  -1152449.37998985  -1152449.37998985
  Force two-norm initial, final = 0.18738366 8.8694580e-05
  Force max component initial, final = 0.066316852 1.6677101e-05
  Final line search alpha, max atom move = 1.0000000 1.6677101e-05
  Iterations, force evaluations = 133 266

MPI task timing breakdown:
Section |  min time  |  avg time  |  max time  |%varavg| %total
---------------------------------------------------------------
Pair    | 0.40125    | 1.1211     | 1.458      |  28.7 | 72.16
Neigh   | 0          | 0          | 0          |   0.0 |  0.00
Comm    | 0.02448    | 0.25198    | 0.7585     |  42.3 | 16.22
Output  | 0          | 0          | 0          |   0.0 |  0.00
Modify  | 1.552e-05  | 0.0021986  | 0.0046776  |   2.2 |  0.14
Other   |            | 0.1784     |            |       | 11.48

Nlocal:        2776.45 ave        3958 max           0 min
Histogram: 8 4 4 0 4 12 8 2 28 34
Nghost:        3879.05 ave        5424 max         232 min
Histogram: 8 0 8 0 16 0 8 8 16 40
Neighs:        79213.4 ave      115348 max           0 min
Histogram: 8 4 4 0 10 6 8 8 24 32

Total # of neighbors = 8238198
Ave neighs/atom = 28.530457
Neighbor list builds = 0
Dangerous builds = 0
The dot product: 7.78934816731083e-08
Setting atom values ...
  1 settings made for x
  1 settings made for y
  1 settings made for z
Setting up cg style minimization ...
  Unit style    : metal
  Current step  : 1557
Per MPI rank memory allocation (min/avg/max) = 5.441 | 5.816 | 6.074 Mbytes
Step PotEng KinEng TotEng v_fx v_fy v_fz 
    1557   -1152449.4            0   -1152449.4 -0.023606705  0.074670756  0.038039106 
    1692   -1152449.4            0   -1152449.4 4.6796836e-07 -2.8167524e-06 -1.3951317e-05 
Loop time of 1.5849 on 104 procs for 135 steps with 288751 atoms

99.9% CPU use with 104 MPI tasks x 1 OpenMP threads

Minimization stats:
  Stopping criterion = energy tolerance
  Energy initial, next-to-last, final = 
      -1152449.3628685   -1152449.3646146   -1152449.3646146
  Force two-norm initial, final = 0.19053287 0.00010671028
  Force max component initial, final = 0.074670756 1.3951317e-05
  Final line search alpha, max atom move = 1.0000000 1.3951317e-05
  Iterations, force evaluations = 135 270

MPI task timing breakdown:
Section |  min time  |  avg time  |  max time  |%varavg| %total
---------------------------------------------------------------
Pair    | 0.40736    | 1.1415     | 1.4839     |  28.9 | 72.02
Neigh   | 0          | 0          | 0          |   0.0 |  0.00
Comm    | 0.024326   | 0.26033    | 0.77256    |  42.1 | 16.43
Output  | 0          | 0          | 0          |   0.0 |  0.00
Modify  | 1.5556e-05 | 0.0022324  | 0.0048018  |   2.2 |  0.14
Other   |            | 0.1808     |            |       | 11.41

Nlocal:        2776.45 ave        3957 max           0 min
Histogram: 8 4 4 0 4 12 8 2 28 34
Nghost:        3879.05 ave        5426 max         232 min
Histogram: 8 0 8 0 16 0 8 8 16 40
Neighs:        79213.4 ave      115326 max           0 min
Histogram: 8 4 4 0 10 6 8 8 24 32

Total # of neighbors = 8238197
Ave neighs/atom = 28.530454
Neighbor list builds = 0
Dangerous builds = 0
The dot product: -1.13660185460591e-07
Setting atom values ...
  1 settings made for x
  1 settings made for y
  1 settings made for z
Setting up cg style minimization ...
  Unit style    : metal
  Current step  : 1692
Per MPI rank memory allocation (min/avg/max) = 5.441 | 5.816 | 6.074 Mbytes
Step PotEng KinEng TotEng v_fx v_fy v_fz 
    1692   -1152449.3            0   -1152449.3 -0.023556916   0.10245155  0.062629348 
    1833   -1152449.4            0   -1152449.4 3.1186812e-06 -1.68256e-05 -2.2847073e-05 
Loop time of 1.63751 on 104 procs for 141 steps with 288751 atoms

99.9% CPU use with 104 MPI tasks x 1 OpenMP threads

Minimization stats:
  Stopping criterion = energy tolerance
  Energy initial, next-to-last, final = 
     -1152449.34635798  -1152449.35088438  -1152449.35088438
  Force two-norm initial, final = 0.20591878 0.000214222
  Force max component initial, final = 0.10245155 4.3119156e-05
  Final line search alpha, max atom move = 1.0000000 4.3119156e-05
  Iterations, force evaluations = 141 282

MPI task timing breakdown:
Section |  min time  |  avg time  |  max time  |%varavg| %total
---------------------------------------------------------------
Pair    | 0.42609    | 1.1835     | 1.5399     |  29.3 | 72.27
Neigh   | 0          | 0          | 0          |   0.0 |  0.00
Comm    | 0.028224   | 0.26614    | 0.80168    |  43.3 | 16.25
Output  | 0          | 0          | 0          |   0.0 |  0.00
Modify  | 1.6285e-05 | 0.0023293  | 0.0049542  |   2.3 |  0.14
Other   |            | 0.1856     |            |       | 11.33

Nlocal:        2776.45 ave        3958 max           0 min
Histogram: 8 4 4 0 4 12 8 2 28 34
Nghost:        3879.05 ave        5429 max         232 min
Histogram: 8 0 8 0 16 0 8 8 16 40
Neighs:        79213.4 ave      115348 max           0 min
Histogram: 8 4 4 0 10 6 8 8 24 32

Total # of neighbors = 8238192
Ave neighs/atom = 28.530436
Neighbor list builds = 0
Dangerous builds = 0
The dot product: -1.81174128392645e-06
Setting atom values ...
  1 settings made for x
  1 settings made for y
  1 settings made for z
Setting up cg style minimization ...
  Unit style    : metal
  Current step  : 1833
Per MPI rank memory allocation (min/avg/max) = 5.441 | 5.816 | 6.074 Mbytes
Step PotEng KinEng TotEng v_fx v_fy v_fz 
    1833   -1152449.3            0   -1152449.3  0.023711065   0.21793241   0.13883824 
    2000   -1152449.3            0   -1152449.3 -9.9668962e-06 -0.00013651169 -6.4874831e-05 
    2030   -1152449.3            0   -1152449.3 1.7417716e-05 -4.2651642e-06 7.814439e-05 
Loop time of 2.31674 on 104 procs for 197 steps with 288751 atoms

99.9% CPU use with 104 MPI tasks x 1 OpenMP threads

Minimization stats:
  Stopping criterion = energy tolerance
  Energy initial, next-to-last, final = 
     -1152449.33554325  -1152449.34591552  -1152449.34591552
  Force two-norm initial, final = 0.29926881 0.00025714969
  Force max component initial, final = 0.21793241 7.8144390e-05
  Final line search alpha, max atom move = 1.0000000 7.8144390e-05
  Iterations, force evaluations = 197 394

MPI task timing breakdown:
Section |  min time  |  avg time  |  max time  |%varavg| %total
---------------------------------------------------------------
Pair    | 0.59565    | 1.662      | 2.1666     |  34.7 | 71.74
Neigh   | 1.0207e-05 | 0.0029219  | 0.0042497  |   2.2 |  0.13
Comm    | 0.037891   | 0.37537    | 1.1168     |  51.2 | 16.20
Output  | 0.00031251 | 0.00032104 | 0.00046089 |   0.0 |  0.01
Modify  | 2.4445e-05 | 0.0032561  | 0.006964   |   2.7 |  0.14
Other   |            | 0.2729     |            |       | 11.78

Nlocal:        2776.45 ave        3959 max           0 min
Histogram: 8 4 4 0 4 12 8 2 28 34
Nghost:        3879.05 ave        5427 max         232 min
Histogram: 8 0 8 0 16 0 8 8 16 40
Neighs:        79213.4 ave      115392 max           0 min
Histogram: 8 4 4 0 10 6 8 8 24 32

Total # of neighbors = 8238196
Ave neighs/atom = 28.530450
Neighbor list builds = 1
Dangerous builds = 0
The dot product: 2.62348758724321e-06
Setting atom values ...
  1 settings made for x
  1 settings made for y
  1 settings made for z
Setting up cg style minimization ...
  Unit style    : metal
  Current step  : 2030
Per MPI rank memory allocation (min/avg/max) = 5.441 | 5.816 | 6.074 Mbytes
Step PotEng KinEng TotEng v_fx v_fy v_fz 
    2030   -1152449.3            0   -1152449.3  0.070529173   0.17561185  0.080221057 
    2359   -1152449.3            0   -1152449.3 -9.5639799e-07 -7.2479376e-07 -2.1326654e-06 
Loop time of 3.82811 on 104 procs for 329 steps with 288751 atoms

99.9% CPU use with 104 MPI tasks x 1 OpenMP threads

Minimization stats:
  Stopping criterion = energy tolerance
  Energy initial, next-to-last, final = 
     -1152449.33327671  -1152449.34468587  -1152449.34468587
  Force two-norm initial, final = 0.24764211 1.2145239e-05
  Force max component initial, final = 0.17561185 2.5714972e-06
  Final line search alpha, max atom move = 1.0000000 2.5714972e-06
  Iterations, force evaluations = 329 658

MPI task timing breakdown:
Section |  min time  |  avg time  |  max time  |%varavg| %total
---------------------------------------------------------------
Pair    | 0.9991     | 2.7617     | 3.5799     |  44.6 | 72.14
Neigh   | 1.0384e-05 | 0.0029332  | 0.0042629  |   2.2 |  0.08
Comm    | 0.059731   | 0.62367    | 1.8829     |  66.3 | 16.29
Output  | 0          | 0          | 0          |   0.0 |  0.00
Modify  | 3.9943e-05 | 0.0054344  | 0.011563   |   3.5 |  0.14
Other   |            | 0.4344     |            |       | 11.35

Nlocal:        2776.45 ave        3961 max           0 min
Histogram: 8 4 4 0 6 10 8 2 28 34
Nghost:        3879.03 ave        5424 max         232 min
Histogram: 8 0 8 0 16 0 8 8 16 40
Neighs:        79213.3 ave      115465 max           0 min
Histogram: 8 4 4 0 10 6 8 8 24 32

Total # of neighbors = 8238187
Ave neighs/atom = 28.530419
Neighbor list builds = 1
Dangerous builds = 0
The dot product: -2.15484788040087e-07
Setting atom values ...
  1 settings made for x
  1 settings made for y
  1 settings made for z
Setting up cg style minimization ...
  Unit style    : metal
  Current step  : 2359
Per MPI rank memory allocation (min/avg/max) = 5.441 | 5.816 | 6.074 Mbytes
Step PotEng KinEng TotEng v_fx v_fy v_fz 
    2359   -1152449.3            0   -1152449.3 -0.050001352 -0.030023896 -0.047978141 
    2466   -1152449.3            0   -1152449.3 5.7455168e-05 3.5347395e-05 5.4462412e-05 
Loop time of 1.28513 on 104 procs for 107 steps with 288751 atoms

99.8% CPU use with 104 MPI tasks x 1 OpenMP threads

Minimization stats:
  Stopping criterion = energy tolerance
  Energy initial, next-to-last, final = 
     -1152449.34688212  -1152449.34819095  -1152449.34819095
  Force two-norm initial, final = 0.14641715 0.00025706039
  Force max component initial, final = 0.050001352 6.3290908e-05
  Final line search alpha, max atom move = 1.0000000 6.3290908e-05
  Iterations, force evaluations = 107 214

MPI task timing breakdown:
Section |  min time  |  avg time  |  max time  |%varavg| %total
---------------------------------------------------------------
Pair    | 0.32598    | 0.90489    | 1.1747     |  25.5 | 70.41
Neigh   | 0          | 0          | 0          |   0.0 |  0.00
Comm    | 0.028628   | 0.20702    | 0.61303    |  37.8 | 16.11
Output  | 0          | 0          | 0          |   0.0 |  0.00
Modify  | 1.2406e-05 | 0.0017719  | 0.0038111  |   2.0 |  0.14
Other   |            | 0.1714     |            |       | 13.34

Nlocal:        2776.45 ave        3961 max           0 min
Histogram: 8 4 4 0 6 10 8 2 28 34
Nghost:        3879.07 ave        5424 max         232 min
Histogram: 8 0 8 0 16 0 8 8 16 40
Neighs:        79213.4 ave      115457 max           0 min
Histogram: 8 4 4 0 10 6 8 8 24 32

Total # of neighbors = 8238192
Ave neighs/atom = 28.530436
Neighbor list builds = 0
Dangerous builds = 0
The dot product: -9.31587899299164e-07
Setting atom values ...
  1 settings made for x
  1 settings made for y
  1 settings made for z
Setting up cg style minimization ...
  Unit style    : metal
  Current step  : 2466
Per MPI rank memory allocation (min/avg/max) = 5.441 | 5.816 | 6.074 Mbytes
Step PotEng KinEng TotEng v_fx v_fy v_fz 
    2466   -1152449.3            0   -1152449.3 -0.0066229152 0.0096665833 -0.017480868 
    2626   -1152449.4            0   -1152449.4 -4.7357871e-05 -7.928548e-06 -6.5782689e-05 
Loop time of 1.92564 on 104 procs for 160 steps with 288751 atoms

99.8% CPU use with 104 MPI tasks x 1 OpenMP threads

Minimization stats:
  Stopping criterion = energy tolerance
  Energy initial, next-to-last, final = 
     -1152449.34955242  -1152449.35045837  -1152449.35045837
  Force two-norm initial, final = 0.12490786 0.00021511928
  Force max component initial, final = 0.047679923 6.5782689e-05
  Final line search alpha, max atom move = 1.0000000 6.5782689e-05
  Iterations, force evaluations = 160 320

MPI task timing breakdown:
Section |  min time  |  avg time  |  max time  |%varavg| %total
---------------------------------------------------------------
Pair    | 0.4833     | 1.3504     | 1.7504     |  31.3 | 70.12
Neigh   | 0          | 0          | 0          |   0.0 |  0.00
Comm    | 0.03076    | 0.31084    | 0.91917    |  45.2 | 16.14
Output  | 0          | 0          | 0          |   0.0 |  0.00
Modify  | 1.8705e-05 | 0.0026476  | 0.0056386  |   2.4 |  0.14
Other   |            | 0.2618     |            |       | 13.60

Nlocal:        2776.45 ave        3961 max           0 min
Histogram: 8 4 4 0 6 10 8 2 28 34
Nghost:        3879.07 ave        5425 max         232 min
Histogram: 8 0 8 0 16 0 8 8 16 40
Neighs:        79213.4 ave      115447 max           0 min
Histogram: 8 4 4 0 10 6 8 8 24 32

Total # of neighbors = 8238193
Ave neighs/atom = 28.530440
Neighbor list builds = 0
Dangerous builds = 0
The dot product: -2.61114718115341e-08
Setting atom values ...
  1 settings made for x
  1 settings made for y
  1 settings made for z
Setting up cg style minimization ...
  Unit style    : metal
  Current step  : 2626
Per MPI rank memory allocation (min/avg/max) = 5.441 | 5.816 | 6.074 Mbytes
Step PotEng KinEng TotEng v_fx v_fy v_fz 
    2626   -1152449.4            0   -1152449.4 -0.010278712 0.0063025538 -0.020449425 
    2804   -1152449.4            0   -1152449.4 2.5027113e-05 -1.064728e-05 4.6158389e-05 
Loop time of 2.09958 on 104 procs for 178 steps with 288751 atoms

99.9% CPU use with 104 MPI tasks x 1 OpenMP threads

Minimization stats:
  Stopping criterion = energy tolerance
  Energy initial, next-to-last, final = 
     -1152449.35060891  -1152449.35151142  -1152449.35151142
  Force two-norm initial, final = 0.12563032 0.00014972695
  Force max component initial, final = 0.047105118 4.6158389e-05
  Final line search alpha, max atom move = 1.0000000 4.6158389e-05
  Iterations, force evaluations = 178 356

MPI task timing breakdown:
Section |  min time  |  avg time  |  max time  |%varavg| %total
---------------------------------------------------------------
Pair    | 0.53403    | 1.5059     | 1.9689     |  33.3 | 71.72
Neigh   | 0          | 0          | 0          |   0.0 |  0.00
Comm    | 0.035008   | 0.34336    | 1.0102     |  48.4 | 16.35
Output  | 0          | 0          | 0          |   0.0 |  0.00
Modify  | 2.0608e-05 | 0.0029486  | 0.0063014  |   2.6 |  0.14
Other   |            | 0.2474     |            |       | 11.78

Nlocal:        2776.45 ave        3961 max           0 min
Histogram: 8 4 4 0 6 10 8 2 28 34
Nghost:        3879.09 ave        5424 max         232 min
Histogram: 8 0 8 0 16 0 8 8 16 40
Neighs:        79213.4 ave      115465 max           0 min
Histogram: 8 4 4 0 10 6 8 8 24 32

Total # of neighbors = 8238189
Ave neighs/atom = 28.530426
Neighbor list builds = 0
Dangerous builds = 0
The dot product: -2.72130348493606e-08
Setting atom values ...
  1 settings made for x
  1 settings made for y
  1 settings made for z
Setting up cg style minimization ...
  Unit style    : metal
  Current step  : 2804
Per MPI rank memory allocation (min/avg/max) = 5.441 | 5.816 | 6.074 Mbytes
Step PotEng KinEng TotEng v_fx v_fy v_fz 
    2804   -1152449.4            0   -1152449.4 -0.0094545381 0.0065537099 -0.019457558 
    2980   -1152449.4            0   -1152449.4 -2.7728787e-05 -2.301105e-05 -2.4280322e-05 
Loop time of 2.04942 on 104 procs for 176 steps with 288751 atoms

99.9% CPU use with 104 MPI tasks x 1 OpenMP threads

Minimization stats:
  Stopping criterion = energy tolerance
  Energy initial, next-to-last, final = 
     -1152449.35035433  -1152449.35124958  -1152449.35124958
  Force two-norm initial, final = 0.1251331 0.00016763456
  Force max component initial, final = 0.046457764 3.6161763e-05
  Final line search alpha, max atom move = 1.0000000 3.6161763e-05
  Iterations, force evaluations = 176 352

MPI task timing breakdown:
Section |  min time  |  avg time  |  max time  |%varavg| %total
---------------------------------------------------------------
Pair    | 0.52877    | 1.4787     | 1.9312     |  33.0 | 72.15
Neigh   | 0          | 0          | 0          |   0.0 |  0.00
Comm    | 0.031605   | 0.33302    | 1.0035     |  48.6 | 16.25
Output  | 0          | 0          | 0          |   0.0 |  0.00
Modify  | 2.0076e-05 | 0.0029083  | 0.0061905  |   2.5 |  0.14
Other   |            | 0.2348     |            |       | 11.46

Nlocal:        2776.45 ave        3961 max           0 min
Histogram: 8 4 4 0 6 10 8 2 28 34
Nghost:        3879.01 ave        5424 max         232 min
Histogram: 8 0 8 0 16 0 8 8 16 40
Neighs:        79213.4 ave      115465 max           0 min
Histogram: 8 4 4 0 10 6 8 8 24 32

Total # of neighbors = 8238191
Ave neighs/atom = 28.530433
Neighbor list builds = 0
Dangerous builds = 0
The dot product: 6.45471798147637e-09
Setting atom values ...
  1 settings made for x
  1 settings made for y
  1 settings made for z
Setting up cg style minimization ...
  Unit style    : metal
  Current step  : 2980
Per MPI rank memory allocation (min/avg/max) = 5.441 | 5.816 | 6.074 Mbytes
Step PotEng KinEng TotEng v_fx v_fy v_fz 
    2980   -1152449.3            0   -1152449.3 -0.0085934211 0.0064312935 -0.018110759 
    3000   -1152449.3            0   -1152449.3 0.00055700627 0.00042626946 0.00051644156 
    3173   -1152449.3            0   -1152449.3 -9.6205101e-06 1.4684956e-07 -1.4775485e-05 
Loop time of 2.27375 on 104 procs for 193 steps with 288751 atoms

99.9% CPU use with 104 MPI tasks x 1 OpenMP threads

Minimization stats:
  Stopping criterion = energy tolerance
  Energy initial, next-to-last, final = 
     -1152449.34875566  -1152449.34963912  -1152449.34963912
  Force two-norm initial, final = 0.12427541 8.9249228e-05
  Force max component initial, final = 0.045836032 1.4775485e-05
  Final line search alpha, max atom move = 1.0000000 1.4775485e-05
  Iterations, force evaluations = 193 386

MPI task timing breakdown:
Section |  min time  |  avg time  |  max time  |%varavg| %total
---------------------------------------------------------------
Pair    | 0.58882    | 1.6349     | 2.1346     |  34.5 | 71.90
Neigh   | 0          | 0          | 0          |   0.0 |  0.00
Comm    | 0.037148   | 0.3737     | 1.11       |  50.4 | 16.44
Output  | 0.00016987 | 0.00017509 | 0.00025393 |   0.0 |  0.01
Modify  | 2.2429e-05 | 0.0031928  | 0.0068011  |   2.7 |  0.14
Other   |            | 0.2618     |            |       | 11.51

Nlocal:        2776.45 ave        3960 max           0 min
Histogram: 8 4 4 0 4 12 8 2 28 34
Nghost:        3879.01 ave        5424 max         232 min
Histogram: 8 0 8 0 16 0 8 8 16 40
Neighs:        79213.4 ave      115434 max           0 min
Histogram: 8 4 4 0 10 6 8 8 24 32

Total # of neighbors = 8238191
Ave neighs/atom = 28.530433
Neighbor list builds = 0
Dangerous builds = 0
The dot product: 6.89092964655583e-09
Setting atom values ...
  1 settings made for x
  1 settings made for y
  1 settings made for z
Setting up cg style minimization ...
  Unit style    : metal
  Current step  : 3173
Per MPI rank memory allocation (min/avg/max) = 5.441 | 5.816 | 6.074 Mbytes
Step PotEng KinEng TotEng v_fx v_fy v_fz 
    3173   -1152449.3            0   -1152449.3 -0.0076173619 0.0060932281 -0.016405635 
    3326   -1152449.3            0   -1152449.3 7.3012771e-05 4.6790406e-05 7.4877245e-05 
Loop time of 1.77941 on 104 procs for 153 steps with 288751 atoms

99.9% CPU use with 104 MPI tasks x 1 OpenMP threads

Minimization stats:
  Stopping criterion = energy tolerance
  Energy initial, next-to-last, final = 
     -1152449.34580263  -1152449.34667192  -1152449.34667192
  Force two-norm initial, final = 0.12326233 0.00030074075
  Force max component initial, final = 0.045144994 7.4877245e-05
  Final line search alpha, max atom move = 1.0000000 7.4877245e-05
  Iterations, force evaluations = 153 306

MPI task timing breakdown:
Section |  min time  |  avg time  |  max time  |%varavg| %total
---------------------------------------------------------------
Pair    | 0.46121    | 1.289      | 1.6737     |  30.8 | 72.44
Neigh   | 0          | 0          | 0          |   0.0 |  0.00
Comm    | 0.026888   | 0.29013    | 0.88212    |  45.6 | 16.30
Output  | 0          | 0          | 0          |   0.0 |  0.00
Modify  | 1.7697e-05 | 0.002528   | 0.0053777  |   2.4 |  0.14
Other   |            | 0.1977     |            |       | 11.11

Nlocal:        2776.45 ave        3960 max           0 min
Histogram: 8 4 4 0 4 12 8 2 28 34
Nghost:        3879.01 ave        5424 max         232 min
Histogram: 8 0 8 0 16 0 8 8 16 40
Neighs:        79213.4 ave      115434 max           0 min
Histogram: 8 4 4 0 10 6 8 8 24 32

Total # of neighbors = 8238190
Ave neighs/atom = 28.530429
Neighbor list builds = 0
Dangerous builds = 0
The dot product: -1.83113666283039e-08
Setting atom values ...
  1 settings made for x
  1 settings made for y
  1 settings made for z
Setting up cg style minimization ...
  Unit style    : metal
  Current step  : 3326
Per MPI rank memory allocation (min/avg/max) = 5.441 | 5.816 | 6.074 Mbytes
Step PotEng KinEng TotEng v_fx v_fy v_fz 
    3326   -1152449.3            0   -1152449.3 -0.0067097937 0.0054979251 -0.014590793 
    3505   -1152449.3            0   -1152449.3 -2.113968e-05 -1.5718166e-05 -1.9997684e-05 
Loop time of 2.08596 on 104 procs for 179 steps with 288751 atoms

99.9% CPU use with 104 MPI tasks x 1 OpenMP threads

Minimization stats:
  Stopping criterion = energy tolerance
  Energy initial, next-to-last, final = 
     -1152449.34148614  -1152449.34234285  -1152449.34234285
  Force two-norm initial, final = 0.12241046 0.00014298903
  Force max component initial, final = 0.044424849 2.6885750e-05
  Final line search alpha, max atom move = 1.0000000 2.6885750e-05
  Iterations, force evaluations = 179 358

MPI task timing breakdown:
Section |  min time  |  avg time  |  max time  |%varavg| %total
---------------------------------------------------------------
Pair    | 0.5402     | 1.5062     | 1.9568     |  33.0 | 72.21
Neigh   | 0          | 0          | 0          |   0.0 |  0.00
Comm    | 0.034629   | 0.33889    | 1.0114     |  48.8 | 16.25
Output  | 0          | 0          | 0          |   0.0 |  0.00
Modify  | 2.0514e-05 | 0.002959   | 0.0063148  |   2.6 |  0.14
Other   |            | 0.2379     |            |       | 11.41

Nlocal:        2776.45 ave        3960 max           0 min
Histogram: 8 4 4 0 4 12 8 2 28 34
Nghost:        3879.01 ave        5424 max         232 min
Histogram: 8 0 8 0 16 0 8 8 16 40
Neighs:        79213.4 ave      115434 max           0 min
Histogram: 8 4 4 0 10 6 8 8 24 32

Total # of neighbors = 8238191
Ave neighs/atom = 28.530433
Neighbor list builds = 0
Dangerous builds = 0
The dot product: 2.26803675319658e-09
Setting atom values ...
  1 settings made for x
  1 settings made for y
  1 settings made for z
Setting up cg style minimization ...
  Unit style    : metal
  Current step  : 3505
Per MPI rank memory allocation (min/avg/max) = 5.441 | 5.816 | 6.074 Mbytes
Step PotEng KinEng TotEng v_fx v_fy v_fz 
    3505   -1152449.3            0   -1152449.3 -0.0061884826 0.0044873626   -0.0130235 
    3687   -1152449.3            0   -1152449.3 -1.3868996e-05 -7.1034324e-06 -1.5656395e-05 
Loop time of 2.10759 on 104 procs for 182 steps with 288751 atoms

99.9% CPU use with 104 MPI tasks x 1 OpenMP threads

Minimization stats:
  Stopping criterion = energy tolerance
  Energy initial, next-to-last, final = 
     -1152449.33579223   -1152449.3366412   -1152449.3366412
  Force two-norm initial, final = 0.12196942 0.00012246043
  Force max component initial, final = 0.044162926 2.2289716e-05
  Final line search alpha, max atom move = 1.0000000 2.2289716e-05
  Iterations, force evaluations = 182 364

MPI task timing breakdown:
Section |  min time  |  avg time  |  max time  |%varavg| %total
---------------------------------------------------------------
Pair    | 0.54575    | 1.5257     | 1.9829     |  33.4 | 72.39
Neigh   | 0          | 0          | 0          |   0.0 |  0.00
Comm    | 0.031789   | 0.34391    | 1.0422     |  49.6 | 16.32
Output  | 0          | 0          | 0          |   0.0 |  0.00
Modify  | 2.0611e-05 | 0.0030109  | 0.0063886  |   2.6 |  0.14
Other   |            | 0.235      |            |       | 11.15

Nlocal:        2776.45 ave        3960 max           0 min
Histogram: 8 4 4 0 4 12 8 2 28 34
Nghost:        3879.05 ave        5424 max         232 min
Histogram: 8 0 8 0 16 0 8 8 16 40
Neighs:        79213.4 ave      115434 max           0 min
Histogram: 8 4 4 0 10 6 8 8 24 32

Total # of neighbors = 8238192
Ave neighs/atom = 28.530436
Neighbor list builds = 0
Dangerous builds = 0
The dot product: 3.5978287107623e-09
Setting atom values ...
  1 settings made for x
  1 settings made for y
  1 settings made for z
Setting up cg style minimization ...
  Unit style    : metal
  Current step  : 3687
Per MPI rank memory allocation (min/avg/max) = 5.441 | 5.816 | 6.074 Mbytes
Step PotEng KinEng TotEng v_fx v_fy v_fz 
    3687   -1152449.3            0   -1152449.3 -0.0058261553 0.0032418588 -0.011504697 
    3861   -1152449.3            0   -1152449.3 1.3584127e-05 4.8096596e-05 -1.7168601e-05 
Loop time of 2.01992 on 104 procs for 174 steps with 288751 atoms

99.9% CPU use with 104 MPI tasks x 1 OpenMP threads

Minimization stats:
  Stopping criterion = energy tolerance
  Energy initial, next-to-last, final = 
     -1152449.32870169  -1152449.32954799  -1152449.32954799
  Force two-norm initial, final = 0.12186707 0.00016840919
  Force max component initial, final = 0.044032738 4.8096596e-05
  Final line search alpha, max atom move = 1.0000000 4.8096596e-05
  Iterations, force evaluations = 174 348

MPI task timing breakdown:
Section |  min time  |  avg time  |  max time  |%varavg| %total
---------------------------------------------------------------
Pair    | 0.52297    | 1.4665     | 1.9039     |  32.6 | 72.60
Neigh   | 0          | 0          | 0          |   0.0 |  0.00
Comm    | 0.03103    | 0.32819    | 0.9823     |  48.5 | 16.25
Output  | 0          | 0          | 0          |   0.0 |  0.00
Modify  | 2.0566e-05 | 0.0028766  | 0.0062209  |   2.5 |  0.14
Other   |            | 0.2224     |            |       | 11.01

Nlocal:        2776.45 ave        3960 max           0 min
Histogram: 8 4 4 0 4 12 8 2 28 34
Nghost:        3879.05 ave        5424 max         232 min
Histogram: 8 0 8 0 16 0 8 8 16 40
Neighs:        79213.4 ave      115434 max           0 min
Histogram: 8 4 4 0 10 6 8 8 24 32

Total # of neighbors = 8238190
Ave neighs/atom = 28.530429
Neighbor list builds = 0
Dangerous builds = 0
The dot product: 1.05401289749485e-08
Setting atom values ...
  1 settings made for x
  1 settings made for y
  1 settings made for z
Setting up cg style minimization ...
  Unit style    : metal
  Current step  : 3861
Per MPI rank memory allocation (min/avg/max) = 5.441 | 5.816 | 6.074 Mbytes
Step PotEng KinEng TotEng v_fx v_fy v_fz 
    3861   -1152449.3            0   -1152449.3 -0.0057289957 0.0017563165 -0.010195098 
    4000   -1152449.3            0   -1152449.3 7.4990582e-05 2.6488775e-05 9.4268557e-05 
    4085   -1152449.3            0   -1152449.3 5.948418e-06 2.5436516e-06 7.1271721e-06 
Loop time of 2.59333 on 104 procs for 224 steps with 288751 atoms

99.9% CPU use with 104 MPI tasks x 1 OpenMP threads

Minimization stats:
  Stopping criterion = energy tolerance
  Energy initial, next-to-last, final = 
     -1152449.32018519   -1152449.3210351   -1152449.3210351
  Force two-norm initial, final = 0.12212949 2.6520508e-05
  Force max component initial, final = 0.043859734 7.1271721e-06
  Final line search alpha, max atom move = 1.0000000 7.1271721e-06
  Iterations, force evaluations = 224 448

MPI task timing breakdown:
Section |  min time  |  avg time  |  max time  |%varavg| %total
---------------------------------------------------------------
Pair    | 0.67895    | 1.8785     | 2.4411     |  36.9 | 72.43
Neigh   | 0          | 0          | 0          |   0.0 |  0.00
Comm    | 0.038821   | 0.42147    | 1.2812     |  55.0 | 16.25
Output  | 0.00015317 | 0.00016118 | 0.00029154 |   0.0 |  0.01
Modify  | 2.5528e-05 | 0.0037059  | 0.0078663  |   2.9 |  0.14
Other   |            | 0.2895     |            |       | 11.16

Nlocal:        2776.45 ave        3960 max           0 min
Histogram: 8 4 4 0 4 12 8 2 28 34
Nghost:        3879.01 ave        5424 max         232 min
Histogram: 8 0 8 0 16 0 8 8 16 40
Neighs:        79213.3 ave      115434 max           0 min
Histogram: 8 4 4 0 10 6 8 8 24 32

Total # of neighbors = 8238188
Ave neighs/atom = 28.530422
Neighbor list builds = 0
Dangerous builds = 0
The dot product: -2.19436980410464e-09
Setting atom values ...
  1 settings made for x
  1 settings made for y
  1 settings made for z
Setting up cg style minimization ...
  Unit style    : metal
  Current step  : 4085
Per MPI rank memory allocation (min/avg/max) = 5.441 | 5.816 | 6.074 Mbytes
Step PotEng KinEng TotEng v_fx v_fy v_fz 
    4085   -1152449.3            0   -1152449.3 -0.005933955 -9.2701619e-05 -0.0090565953 
    4286   -1152449.3            0   -1152449.3 1.1682688e-05 1.9647444e-05 2.3990144e-06 
Loop time of 2.38402 on 104 procs for 201 steps with 288751 atoms

99.9% CPU use with 104 MPI tasks x 1 OpenMP threads

Minimization stats:
  Stopping criterion = energy tolerance
  Energy initial, next-to-last, final = 
     -1152449.31021158  -1152449.31106818  -1152449.31106818
  Force two-norm initial, final = 0.12265844 7.4076696e-05
  Force max component initial, final = 0.043709249 1.9647444e-05
  Final line search alpha, max atom move = 1.0000000 1.9647444e-05
  Iterations, force evaluations = 201 402

MPI task timing breakdown:
Section |  min time  |  avg time  |  max time  |%varavg| %total
---------------------------------------------------------------
Pair    | 0.60293    | 1.7055     | 2.2371     |  35.5 | 71.54
Neigh   | 0          | 0          | 0          |   0.0 |  0.00
Comm    | 0.03588    | 0.39118    | 1.1512     |  51.2 | 16.41
Output  | 0          | 0          | 0          |   0.0 |  0.00
Modify  | 2.3142e-05 | 0.0033257  | 0.007113   |   2.7 |  0.14
Other   |            | 0.284      |            |       | 11.91

Nlocal:        2776.45 ave        3960 max           0 min
Histogram: 8 4 4 0 4 12 8 2 28 34
Nghost:        3879.01 ave        5424 max         232 min
Histogram: 8 0 8 0 16 0 8 8 16 40
Neighs:        79213.4 ave      115435 max           0 min
Histogram: 8 4 4 0 10 6 8 8 24 32

Total # of neighbors = 8238189
Ave neighs/atom = 28.530426
Neighbor list builds = 0
Dangerous builds = 0
The dot product: -4.00124373705921e-09
Setting atom values ...
  1 settings made for x
  1 settings made for y
  1 settings made for z
Setting up cg style minimization ...
  Unit style    : metal
  Current step  : 4286
Per MPI rank memory allocation (min/avg/max) = 5.441 | 5.816 | 6.074 Mbytes
Step PotEng KinEng TotEng v_fx v_fy v_fz 
    4286   -1152449.3            0   -1152449.3 -0.0064476445 -0.0020812116 -0.0082822819 
    4470   -1152449.3            0   -1152449.3 1.545801e-05 2.0284196e-05 7.7252143e-06 
Loop time of 2.13741 on 104 procs for 184 steps with 288751 atoms

99.9% CPU use with 104 MPI tasks x 1 OpenMP threads

Minimization stats:
  Stopping criterion = energy tolerance
  Energy initial, next-to-last, final = 
     -1152449.29875218  -1152449.29961506  -1152449.29961506
  Force two-norm initial, final = 0.12332228 0.00010937881
  Force max component initial, final = 0.043523747 2.0284196e-05
  Final line search alpha, max atom move = 1.0000000 2.0284196e-05
  Iterations, force evaluations = 184 368

MPI task timing breakdown:
Section |  min time  |  avg time  |  max time  |%varavg| %total
---------------------------------------------------------------
Pair    | 0.55075    | 1.5419     | 2.0083     |  33.6 | 72.14
Neigh   | 0          | 0          | 0          |   0.0 |  0.00
Comm    | 0.033813   | 0.34599    | 1.0429     |  49.7 | 16.19
Output  | 0          | 0          | 0          |   0.0 |  0.00
Modify  | 2.1256e-05 | 0.003044   | 0.0064587  |   2.6 |  0.14
Other   |            | 0.2465     |            |       | 11.53

Nlocal:        2776.45 ave        3960 max           0 min
Histogram: 8 4 4 0 4 12 8 2 28 34
Nghost:        3879.07 ave        5424 max         232 min
Histogram: 8 0 8 0 16 0 8 8 16 40
Neighs:        79213.4 ave      115439 max           0 min
Histogram: 8 4 4 0 10 6 8 8 24 32

Total # of neighbors = 8238189
Ave neighs/atom = 28.530426
Neighbor list builds = 0
Dangerous builds = 0
The dot product: -9.76099243526805e-09
Setting atom values ...
  1 settings made for x
  1 settings made for y
  1 settings made for z
Setting up cg style minimization ...
  Unit style    : metal
  Current step  : 4470
Per MPI rank memory allocation (min/avg/max) = 5.441 | 5.816 | 6.074 Mbytes
Step PotEng KinEng TotEng v_fx v_fy v_fz 
    4470   -1152449.3            0   -1152449.3 -0.0073750777 -0.0042032909 -0.0080445782 
    4684   -1152449.3            0   -1152449.3 6.6511381e-06 1.0126945e-06 9.4582335e-06 
Loop time of 2.5235 on 104 procs for 214 steps with 288751 atoms

99.9% CPU use with 104 MPI tasks x 1 OpenMP threads

Minimization stats:
  Stopping criterion = energy tolerance
  Energy initial, next-to-last, final = 
     -1152449.28578644   -1152449.2866517   -1152449.2866517
  Force two-norm initial, final = 0.1239813 3.7385432e-05
  Force max component initial, final = 0.04334068 9.4582335e-06
  Final line search alpha, max atom move = 1.0000000 9.4582335e-06
  Iterations, force evaluations = 214 428

MPI task timing breakdown:
Section |  min time  |  avg time  |  max time  |%varavg| %total
---------------------------------------------------------------
Pair    | 0.64135    | 1.8064     | 2.3785     |  36.4 | 71.59
Neigh   | 0          | 0          | 0          |   0.0 |  0.00
Comm    | 0.038004   | 0.41528    | 1.2291     |  52.8 | 16.46
Output  | 0          | 0          | 0          |   0.0 |  0.00
Modify  | 2.6145e-05 | 0.0035341  | 0.0075417  |   2.8 |  0.14
Other   |            | 0.2982     |            |       | 11.82

Nlocal:        2776.45 ave        3960 max           0 min
Histogram: 8 4 4 0 4 12 8 2 28 34
Nghost:        3879.12 ave        5424 max         232 min
Histogram: 8 0 8 0 16 0 8 8 16 40
Neighs:        79213.3 ave      115439 max           0 min
Histogram: 8 4 4 0 10 6 8 8 24 32

Total # of neighbors = 8238187
Ave neighs/atom = 28.530419
Neighbor list builds = 0
Dangerous builds = 0
The dot product: -5.31072577903994e-09
Setting atom values ...
  1 settings made for x
  1 settings made for y
  1 settings made for z
Setting up cg style minimization ...
  Unit style    : metal
  Current step  : 4684
Per MPI rank memory allocation (min/avg/max) = 5.441 | 5.816 | 6.074 Mbytes
Step PotEng KinEng TotEng v_fx v_fy v_fz 
    4684   -1152449.3            0   -1152449.3 -0.0088461023 -0.0063152044 -0.0086659785 
    4883   -1152449.3            0   -1152449.3 4.8362301e-06 6.8762508e-06 2.0237596e-06 
Loop time of 2.33577 on 104 procs for 199 steps with 288751 atoms

99.9% CPU use with 104 MPI tasks x 1 OpenMP threads

Minimization stats:
  Stopping criterion = energy tolerance
  Energy initial, next-to-last, final = 
     -1152449.27131086  -1152449.27217145  -1152449.27217145
  Force two-norm initial, final = 0.12454963 7.6685829e-05
  Force max component initial, final = 0.043150185 6.8762508e-06
  Final line search alpha, max atom move = 1.0000000 6.8762508e-06
  Iterations, force evaluations = 199 398

MPI task timing breakdown:
Section |  min time  |  avg time  |  max time  |%varavg| %total
---------------------------------------------------------------
Pair    | 0.59817    | 1.6766     | 2.1815     |  35.1 | 71.78
Neigh   | 0          | 0          | 0          |   0.0 |  0.00
Comm    | 0.035862   | 0.38061    | 1.1468     |  51.5 | 16.29
Output  | 0          | 0          | 0          |   0.0 |  0.00
Modify  | 2.2716e-05 | 0.0032887  | 0.00702    |   2.7 |  0.14
Other   |            | 0.2753     |            |       | 11.78

Nlocal:        2776.45 ave        3960 max           0 min
Histogram: 8 4 4 0 4 12 8 2 28 34
Nghost:        3879.11 ave        5424 max         232 min
Histogram: 8 0 8 0 16 0 8 8 16 40
Neighs:        79213.3 ave      115439 max           0 min
Histogram: 8 4 4 0 10 6 8 8 24 32

Total # of neighbors = 8238186
Ave neighs/atom = 28.530415
Neighbor list builds = 0
Dangerous builds = 0
The dot product: -6.60308221199872e-09
Setting atom values ...
  1 settings made for x
  1 settings made for y
  1 settings made for z
Setting up cg style minimization ...
  Unit style    : metal
  Current step  : 4883
Per MPI rank memory allocation (min/avg/max) = 5.441 | 5.816 | 6.074 Mbytes
Step PotEng KinEng TotEng v_fx v_fy v_fz 
    4883   -1152449.3            0   -1152449.3 -0.011015835 -0.0081400536 -0.010620644 
    5000   -1152449.3            0   -1152449.3 4.8927987e-05 3.984446e-05 4.4249595e-05 
    5060   -1152449.3            0   -1152449.3 1.9657191e-05 2.5839076e-05 9.9886498e-06 
Loop time of 2.05526 on 104 procs for 177 steps with 288751 atoms

99.9% CPU use with 104 MPI tasks x 1 OpenMP threads

Minimization stats:
  Stopping criterion = energy tolerance
  Energy initial, next-to-last, final = 
     -1152449.25535057  -1152449.25619829  -1152449.25619829
  Force two-norm initial, final = 0.12511751 0.00014656888
  Force max component initial, final = 0.044203823 2.5839076e-05
  Final line search alpha, max atom move = 1.0000000 2.5839076e-05
  Iterations, force evaluations = 177 354

MPI task timing breakdown:
Section |  min time  |  avg time  |  max time  |%varavg| %total
---------------------------------------------------------------
Pair    | 0.53333    | 1.4923     | 1.934      |  32.9 | 72.61
Neigh   | 0          | 0          | 0          |   0.0 |  0.00
Comm    | 0.034688   | 0.33615    | 1.0079     |  48.8 | 16.36
Output  | 0.00018589 | 0.00019393 | 0.00032066 |   0.0 |  0.01
Modify  | 2.0416e-05 | 0.0029224  | 0.0062749  |   2.6 |  0.14
Other   |            | 0.2237     |            |       | 10.88

Nlocal:        2776.45 ave        3960 max           0 min
Histogram: 8 4 4 0 4 12 8 2 28 34
Nghost:        3879.11 ave        5424 max         232 min
Histogram: 8 0 8 0 16 0 8 8 16 40
Neighs:        79213.3 ave      115442 max           0 min
Histogram: 8 4 4 0 10 6 8 8 24 32

Total # of neighbors = 8238187
Ave neighs/atom = 28.530419
Neighbor list builds = 0
Dangerous builds = 0
The dot product: -3.76123936156636e-08
Setting atom values ...
  1 settings made for x
  1 settings made for y
  1 settings made for z
Setting up cg style minimization ...
  Unit style    : metal
  Current step  : 5060
Per MPI rank memory allocation (min/avg/max) = 5.441 | 5.816 | 6.074 Mbytes
Step PotEng KinEng TotEng v_fx v_fy v_fz 
    5060   -1152449.2            0   -1152449.2 -0.014265761 -0.0095974394 -0.014593235 
    5222   -1152449.2            0   -1152449.2 -3.1046926e-05 -1.4378795e-05 -3.691681e-05 
Loop time of 1.88169 on 104 procs for 162 steps with 288751 atoms

99.9% CPU use with 104 MPI tasks x 1 OpenMP threads

Minimization stats:
  Stopping criterion = energy tolerance
  Energy initial, next-to-last, final = 
     -1152449.23798771  -1152449.23882382  -1152449.23882382
  Force two-norm initial, final = 0.12631903 0.00022624543
  Force max component initial, final = 0.047463728 3.6916810e-05
  Final line search alpha, max atom move = 1.0000000 3.6916810e-05
  Iterations, force evaluations = 162 324

MPI task timing breakdown:
Section |  min time  |  avg time  |  max time  |%varavg| %total
---------------------------------------------------------------
Pair    | 0.49783    | 1.3648     | 1.7648     |  31.3 | 72.53
Neigh   | 0          | 0          | 0          |   0.0 |  0.00
Comm    | 0.028149   | 0.30652    | 0.93084    |  46.9 | 16.29
Output  | 0          | 0          | 0          |   0.0 |  0.00
Modify  | 1.8493e-05 | 0.0026842  | 0.0057184  |   2.4 |  0.14
Other   |            | 0.2077     |            |       | 11.04

Nlocal:        2776.45 ave        3960 max           0 min
Histogram: 8 4 4 0 4 12 8 2 28 34
Nghost:        3879.09 ave        5424 max         232 min
Histogram: 8 0 8 0 16 0 8 8 16 40
Neighs:        79213.3 ave      115442 max           0 min
Histogram: 8 4 4 0 10 6 8 8 24 32

Total # of neighbors = 8238185
Ave neighs/atom = 28.530412
Neighbor list builds = 0
Dangerous builds = 0
The dot product: 1.06115977154996e-07
Setting atom values ...
  1 settings made for x
  1 settings made for y
  1 settings made for z
Setting up cg style minimization ...
  Unit style    : metal
  Current step  : 5222
Per MPI rank memory allocation (min/avg/max) = 5.441 | 5.816 | 6.074 Mbytes
Step PotEng KinEng TotEng v_fx v_fy v_fz 
    5222   -1152449.2            0   -1152449.2 -0.019357343 -0.010414384 -0.022077971 
    5489   -1152449.3            0   -1152449.3 -5.277102e-06 -2.3162572e-06 -6.4342134e-06 
Loop time of 3.08918 on 104 procs for 267 steps with 288751 atoms

99.9% CPU use with 104 MPI tasks x 1 OpenMP threads

Minimization stats:
  Stopping criterion = energy tolerance
  Energy initial, next-to-last, final = 
     -1152449.21945031  -1152449.25004267  -1152449.25004267
  Force two-norm initial, final = 0.13033827 7.7755766e-05
  Force max component initial, final = 0.050698796 7.1028988e-06
  Final line search alpha, max atom move = 1.0000000 7.1028988e-06
  Iterations, force evaluations = 267 532

MPI task timing breakdown:
Section |  min time  |  avg time  |  max time  |%varavg| %total
---------------------------------------------------------------
Pair    | 0.80203    | 2.2395     | 2.902      |  40.2 | 72.50
Neigh   | 1.0384e-05 | 0.0029365  | 0.0042741  |   2.2 |  0.10
Comm    | 0.047987   | 0.50108    | 1.5074     |  60.0 | 16.22
Output  | 0          | 0          | 0          |   0.0 |  0.00
Modify  | 3.031e-05  | 0.0043892  | 0.0094058  |   3.1 |  0.14
Other   |            | 0.3412     |            |       | 11.05

Nlocal:        2776.45 ave        3960 max           0 min
Histogram: 8 4 4 0 4 12 8 2 28 34
Nghost:        3879.09 ave        5424 max         232 min
Histogram: 8 0 8 0 16 0 8 8 16 40
Neighs:        79213.2 ave      115435 max           0 min
Histogram: 8 4 4 0 10 6 8 8 24 32

Total # of neighbors = 8238174
Ave neighs/atom = 28.530374
Neighbor list builds = 1
Dangerous builds = 0
The dot product: 6.21935186392313e-07
Setting atom values ...
  1 settings made for x
  1 settings made for y
  1 settings made for z
Setting up cg style minimization ...
  Unit style    : metal
  Current step  : 5489
Per MPI rank memory allocation (min/avg/max) = 5.441 | 5.816 | 6.074 Mbytes
Step PotEng KinEng TotEng v_fx v_fy v_fz 
    5489   -1152449.2            0   -1152449.2 -0.027989406 -0.033896322 -0.023821763 
    5702   -1152449.2            0   -1152449.2 -7.553432e-06 4.2523085e-06 -2.1013481e-05 
Loop time of 2.4641 on 104 procs for 213 steps with 288751 atoms

99.9% CPU use with 104 MPI tasks x 1 OpenMP threads

Minimization stats:
  Stopping criterion = energy tolerance
  Energy initial, next-to-last, final = 
     -1152449.24563919  -1152449.24930813  -1152449.24930813
  Force two-norm initial, final = 0.15068297 0.00018705621
  Force max component initial, final = 0.055800969 3.2418421e-05
  Final line search alpha, max atom move = 1.0000000 3.2418421e-05
  Iterations, force evaluations = 213 426

MPI task timing breakdown:
Section |  min time  |  avg time  |  max time  |%varavg| %total
---------------------------------------------------------------
Pair    | 0.63669    | 1.7821     | 2.3171     |  36.1 | 72.32
Neigh   | 0          | 0          | 0          |   0.0 |  0.00
Comm    | 0.037507   | 0.40085    | 1.2117     |  53.4 | 16.27
Output  | 0          | 0          | 0          |   0.0 |  0.00
Modify  | 2.415e-05  | 0.0035175  | 0.0074903  |   2.8 |  0.14
Other   |            | 0.2776     |            |       | 11.27

Nlocal:        2776.45 ave        3960 max           0 min
Histogram: 8 4 4 0 4 12 8 2 28 34
Nghost:        3879.05 ave        5424 max         232 min
Histogram: 8 0 8 0 16 0 8 8 16 40
Neighs:        79213.3 ave      115434 max           0 min
Histogram: 8 4 4 0 10 6 8 8 24 32

Total # of neighbors = 8238183
Ave neighs/atom = 28.530405
Neighbor list builds = 0
Dangerous builds = 0
The dot product: 5.15042473286794e-07
Setting atom values ...
  1 settings made for x
  1 settings made for y
  1 settings made for z
Setting up cg style minimization ...
  Unit style    : metal
  Current step  : 5702
Per MPI rank memory allocation (min/avg/max) = 5.441 | 5.816 | 6.074 Mbytes
Step PotEng KinEng TotEng v_fx v_fy v_fz 
    5702   -1152449.3            0   -1152449.3 -0.014982821 -0.038226624 0.0010005604 
    5927   -1152449.3            0   -1152449.3 -1.8432936e-06 -2.1248365e-06 -2.4749621e-06 
Loop time of 2.63306 on 104 procs for 225 steps with 288751 atoms

99.9% CPU use with 104 MPI tasks x 1 OpenMP threads

Minimization stats:
  Stopping criterion = energy tolerance
  Energy initial, next-to-last, final = 
     -1152449.25028581  -1152449.25219159  -1152449.25219159
  Force two-norm initial, final = 0.15356602 2.9567508e-05
  Force max component initial, final = 0.055008401 5.4657983e-06
  Final line search alpha, max atom move = 1.0000000 5.4657983e-06
  Iterations, force evaluations = 225 450

MPI task timing breakdown:
Section |  min time  |  avg time  |  max time  |%varavg| %total
---------------------------------------------------------------
Pair    | 0.67547    | 1.9018     | 2.4863     |  37.3 | 72.23
Neigh   | 0          | 0          | 0          |   0.0 |  0.00
Comm    | 0.042729   | 0.42931    | 1.2704     |  54.8 | 16.30
Output  | 0          | 0          | 0          |   0.0 |  0.00
Modify  | 2.5827e-05 | 0.0037125  | 0.007923   |   2.9 |  0.14
Other   |            | 0.2983     |            |       | 11.33

Nlocal:        2776.45 ave        3960 max           0 min
Histogram: 8 4 4 0 4 12 8 2 28 34
Nghost:        3879.12 ave        5424 max         232 min
Histogram: 8 0 8 0 16 0 8 8 16 40
Neighs:        79213.3 ave      115424 max           0 min
Histogram: 8 4 4 0 10 6 8 8 24 32

Total # of neighbors = 8238186
Ave neighs/atom = 28.530415
Neighbor list builds = 0
Dangerous builds = 0
The dot product: 4.10622025592242e-08
Setting atom values ...
  1 settings made for x
  1 settings made for y
  1 settings made for z
Setting up cg style minimization ...
  Unit style    : metal
  Current step  : 5927
Per MPI rank memory allocation (min/avg/max) = 5.441 | 5.816 | 6.074 Mbytes
Step PotEng KinEng TotEng v_fx v_fy v_fz 
    5927   -1152449.3            0   -1152449.3 -0.014277778 -0.049360497   0.01277506 
    6000   -1152449.3            0   -1152449.3 -3.2224248e-05 -1.2303156e-05 -7.1462708e-05 
    6044   -1152449.3            0   -1152449.3 -1.2837873e-05 -3.5200991e-07 -3.3074441e-05 
Loop time of 1.36817 on 104 procs for 117 steps with 288751 atoms

99.9% CPU use with 104 MPI tasks x 1 OpenMP threads

Minimization stats:
  Stopping criterion = energy tolerance
  Energy initial, next-to-last, final = 
     -1152449.25427327  -1152449.25547328  -1152449.25547328
  Force two-norm initial, final = 0.15226432 0.00011341345
  Force max component initial, final = 0.05546885 3.3074441e-05
  Final line search alpha, max atom move = 1.0000000 3.3074441e-05
  Iterations, force evaluations = 117 234

MPI task timing breakdown:
Section |  min time  |  avg time  |  max time  |%varavg| %total
---------------------------------------------------------------
Pair    | 0.35209    | 0.98319    | 1.2801     |  26.8 | 71.86
Neigh   | 0          | 0          | 0          |   0.0 |  0.00
Comm    | 0.020963   | 0.22202    | 0.66609    |  39.4 | 16.23
Output  | 0.00021989 | 0.00023039 | 0.00036924 |   0.0 |  0.02
Modify  | 1.3965e-05 | 0.0019362  | 0.0041448  |   2.1 |  0.14
Other   |            | 0.1608     |            |       | 11.75

Nlocal:        2776.45 ave        3960 max           0 min
Histogram: 8 4 4 0 4 12 8 2 28 34
Nghost:        3879.12 ave        5424 max         232 min
Histogram: 8 0 8 0 16 0 8 8 16 40
Neighs:        79213.3 ave      115424 max           0 min
Histogram: 8 4 4 0 10 6 8 8 24 32

Total # of neighbors = 8238182
Ave neighs/atom = 28.530402
Neighbor list builds = 0
Dangerous builds = 0
The dot product: 1.27048036065242e-07
Setting atom values ...
  1 settings made for x
  1 settings made for y
  1 settings made for z
Setting up cg style minimization ...
  Unit style    : metal
  Current step  : 6044
Per MPI rank memory allocation (min/avg/max) = 5.441 | 5.816 | 6.074 Mbytes
Step PotEng KinEng TotEng v_fx v_fy v_fz 
    6044   -1152449.3            0   -1152449.3 -0.013652306  -0.05747284  0.020545197 
    6290   -1152449.3            0   -1152449.3 8.5784407e-06 3.2001784e-06 1.9532433e-05 
Loop time of 2.93199 on 104 procs for 246 steps with 288751 atoms

99.9% CPU use with 104 MPI tasks x 1 OpenMP threads

Minimization stats:
  Stopping criterion = energy tolerance
  Energy initial, next-to-last, final = 
     -1152449.25693308  -1152449.29756257  -1152449.29756257
  Force two-norm initial, final = 0.15747643 0.00010369059
  Force max component initial, final = 0.05747284 1.9532433e-05
  Final line search alpha, max atom move = 1.0000000 1.9532433e-05
  Iterations, force evaluations = 246 491

MPI task timing breakdown:
Section |  min time  |  avg time  |  max time  |%varavg| %total
---------------------------------------------------------------
Pair    | 0.73949    | 2.0823     | 2.7219     |  39.1 | 71.02
Neigh   | 1.0338e-05 | 0.0029393  | 0.0042612  |   2.2 |  0.10
Comm    | 0.047048   | 0.47449    | 1.4098     |  56.9 | 16.18
Output  | 0          | 0          | 0          |   0.0 |  0.00
Modify  | 2.8216e-05 | 0.0040551  | 0.0086635  |   3.0 |  0.14
Other   |            | 0.3682     |            |       | 12.56

Nlocal:        2776.45 ave        3960 max           0 min
Histogram: 8 4 4 0 4 12 8 2 28 34
Nghost:        3879.12 ave        5424 max         232 min
Histogram: 8 0 8 0 16 0 8 8 16 40
Neighs:        79213.4 ave      115424 max           0 min
Histogram: 8 4 4 0 10 6 8 8 24 32

Total # of neighbors = 8238197
Ave neighs/atom = 28.530454
Neighbor list builds = 1
Dangerous builds = 0
The dot product: -1.35181482057785e-06
Setting atom values ...
  1 settings made for x
  1 settings made for y
  1 settings made for z
Setting up cg style minimization ...
  Unit style    : metal
  Current step  : 6290
Per MPI rank memory allocation (min/avg/max) = 5.441 | 5.816 | 6.074 Mbytes
Step PotEng KinEng TotEng v_fx v_fy v_fz 
    6290   -1152449.3            0   -1152449.3  0.028775051  0.058990715  0.058773714 
    6504   -1152449.3            0   -1152449.3 6.0904326e-06 -3.7571312e-06 2.1641638e-05 
Loop time of 2.48544 on 104 procs for 214 steps with 288751 atoms

99.9% CPU use with 104 MPI tasks x 1 OpenMP threads

Minimization stats:
  Stopping criterion = energy tolerance
  Energy initial, next-to-last, final = 
     -1152449.30887762  -1152449.31115918  -1152449.31115918
  Force two-norm initial, final = 0.16259511 7.7019317e-05
  Force max component initial, final = 0.058990715 2.3478493e-05
  Final line search alpha, max atom move = 1.0000000 2.3478493e-05
  Iterations, force evaluations = 214 428

MPI task timing breakdown:
Section |  min time  |  avg time  |  max time  |%varavg| %total
---------------------------------------------------------------
Pair    | 0.64038    | 1.7961     | 2.3331     |  36.3 | 72.26
Neigh   | 0          | 0          | 0          |   0.0 |  0.00
Comm    | 0.038283   | 0.40484    | 1.2276     |  53.6 | 16.29
Output  | 0          | 0          | 0          |   0.0 |  0.00
Modify  | 2.4197e-05 | 0.0035441  | 0.0080761  |   2.8 |  0.14
Other   |            | 0.281      |            |       | 11.31

Nlocal:        2776.45 ave        3960 max           0 min
Histogram: 8 4 4 0 4 12 8 6 24 34
Nghost:        3879.05 ave        5424 max         232 min
Histogram: 8 0 8 0 16 0 8 8 16 40
Neighs:        79213.4 ave      115431 max           0 min
Histogram: 8 4 4 0 10 6 8 8 24 32

Total # of neighbors = 8238197
Ave neighs/atom = 28.530454
Neighbor list builds = 0
Dangerous builds = 0
The dot product: 9.33010445901655e-08
Setting atom values ...
  1 settings made for x
  1 settings made for y
  1 settings made for z
Setting up cg style minimization ...
  Unit style    : metal
  Current step  : 6504
Per MPI rank memory allocation (min/avg/max) = 5.441 | 5.816 | 6.074 Mbytes
Step PotEng KinEng TotEng v_fx v_fy v_fz 
    6504   -1152449.3            0   -1152449.3 -0.006045855 -0.071122951  0.027076831 
    6682   -1152449.3            0   -1152449.3 4.2781139e-06 9.6452105e-07 1.2601212e-05 
Loop time of 2.07544 on 104 procs for 178 steps with 288751 atoms

99.9% CPU use with 104 MPI tasks x 1 OpenMP threads

Minimization stats:
  Stopping criterion = energy tolerance
  Energy initial, next-to-last, final = 
     -1152449.32050543  -1152449.32174981  -1152449.32174981
  Force two-norm initial, final = 0.16163369 0.00012591706
  Force max component initial, final = 0.071122951 1.2601212e-05
  Final line search alpha, max atom move = 1.0000000 1.2601212e-05
  Iterations, force evaluations = 178 356

MPI task timing breakdown:
Section |  min time  |  avg time  |  max time  |%varavg| %total
---------------------------------------------------------------
Pair    | 0.53402    | 1.5007     | 1.9581     |  33.1 | 72.31
Neigh   | 0          | 0          | 0          |   0.0 |  0.00
Comm    | 0.033792   | 0.33886    | 1.0116     |  48.7 | 16.33
Output  | 0          | 0          | 0          |   0.0 |  0.00
Modify  | 2.0233e-05 | 0.0029443  | 0.0063675  |   2.6 |  0.14
Other   |            | 0.2329     |            |       | 11.22

Nlocal:        2776.45 ave        3960 max           0 min
Histogram: 8 4 4 0 4 12 8 4 26 34
Nghost:        3879.05 ave        5427 max         232 min
Histogram: 8 0 8 0 16 0 8 8 16 40
Neighs:        79213.4 ave      115422 max           0 min
Histogram: 8 4 4 0 10 6 8 8 24 32

Total # of neighbors = 8238195
Ave neighs/atom = 28.530447
Neighbor list builds = 0
Dangerous builds = 0
The dot product: 2.05905200195671e-09
Setting atom values ...
  1 settings made for x
  1 settings made for y
  1 settings made for z
Setting up cg style minimization ...
  Unit style    : metal
  Current step  : 6682
Per MPI rank memory allocation (min/avg/max) = 5.441 | 5.816 | 6.074 Mbytes
Step PotEng KinEng TotEng v_fx v_fy v_fz 
    6682   -1152449.3            0   -1152449.3 -0.00049935317 -0.053805883  0.031397405 
    6817   -1152449.3            0   -1152449.3 -7.9148563e-06 3.0106517e-05 -4.2818753e-05 
Loop time of 1.57091 on 104 procs for 135 steps with 288751 atoms

99.9% CPU use with 104 MPI tasks x 1 OpenMP threads

Minimization stats:
  Stopping criterion = energy tolerance
  Energy initial, next-to-last, final = 
     -1152449.32952609  -1152449.33071026  -1152449.33071026
  Force two-norm initial, final = 0.15651618 0.00028630112
  Force max component initial, final = 0.054015546 6.0602400e-05
  Final line search alpha, max atom move = 1.0000000 6.0602400e-05
  Iterations, force evaluations = 135 270

MPI task timing breakdown:
Section |  min time  |  avg time  |  max time  |%varavg| %total
---------------------------------------------------------------
Pair    | 0.40616    | 1.1358     | 1.4747     |  28.9 | 72.30
Neigh   | 0          | 0          | 0          |   0.0 |  0.00
Comm    | 0.022894   | 0.25578    | 0.77555    |  42.7 | 16.28
Output  | 0          | 0          | 0          |   0.0 |  0.00
Modify  | 1.5649e-05 | 0.0022347  | 0.0047669  |   2.2 |  0.14
Other   |            | 0.1771     |            |       | 11.27

Nlocal:        2776.45 ave        3960 max           0 min
Histogram: 8 4 4 0 4 12 8 4 26 34
Nghost:        3879.11 ave        5429 max         232 min
Histogram: 8 0 8 0 16 0 8 8 16 40
Neighs:        79213.4 ave      115422 max           0 min
Histogram: 8 4 4 0 10 6 8 8 24 32

Total # of neighbors = 8238197
Ave neighs/atom = 28.530454
Neighbor list builds = 0
Dangerous builds = 0
The dot product: -1.53458417359765e-07
Setting atom values ...
  1 settings made for x
  1 settings made for y
  1 settings made for z
Setting up cg style minimization ...
  Unit style    : metal
  Current step  : 6817
Per MPI rank memory allocation (min/avg/max) = 5.441 | 5.816 | 6.074 Mbytes
Step PotEng KinEng TotEng v_fx v_fy v_fz 
    6817   -1152449.3            0   -1152449.3 -0.0012695406 -0.058213363  0.030882288 
    6994   -1152449.3            0   -1152449.3 -1.6410121e-05 -1.0763846e-05 -4.3783131e-05 
Loop time of 2.05169 on 104 procs for 177 steps with 288751 atoms

99.9% CPU use with 104 MPI tasks x 1 OpenMP threads

Minimization stats:
  Stopping criterion = energy tolerance
  Energy initial, next-to-last, final = 
     -1152449.33685311  -1152449.33806964  -1152449.33806964
  Force two-norm initial, final = 0.15883755 0.00015558989
  Force max component initial, final = 0.058213363 4.3783131e-05
  Final line search alpha, max atom move = 1.0000000 4.3783131e-05
  Iterations, force evaluations = 177 354

MPI task timing breakdown:
Section |  min time  |  avg time  |  max time  |%varavg| %total
---------------------------------------------------------------
Pair    | 0.53105    | 1.4932     | 1.9347     |  33.0 | 72.78
Neigh   | 0          | 0          | 0          |   0.0 |  0.00
Comm    | 0.032245   | 0.33632    | 1.0092     |  48.9 | 16.39
Output  | 0          | 0          | 0          |   0.0 |  0.00
Modify  | 2.0324e-05 | 0.0029264  | 0.0062635  |   2.5 |  0.14
Other   |            | 0.2192     |            |       | 10.68

Nlocal:        2776.45 ave        3960 max           0 min
Histogram: 8 4 4 0 4 12 8 4 26 34
Nghost:        3879.12 ave        5429 max         232 min
Histogram: 8 0 8 0 16 0 8 8 16 40
Neighs:        79213.4 ave      115422 max           0 min
Histogram: 8 4 4 0 10 6 8 8 24 32

Total # of neighbors = 8238197
Ave neighs/atom = 28.530454
Neighbor list builds = 0
Dangerous builds = 0
The dot product: -4.15281143426152e-08
Setting atom values ...
  1 settings made for x
  1 settings made for y
  1 settings made for z
Setting up cg style minimization ...
  Unit style    : metal
  Current step  : 6994
Per MPI rank memory allocation (min/avg/max) = 5.441 | 5.816 | 6.074 Mbytes
Step PotEng KinEng TotEng v_fx v_fy v_fz 
    6994   -1152449.3            0   -1152449.3 -0.001321847 -0.058797248  0.030060064 
    7000   -1152449.3            0   -1152449.3 -0.00015622388 -0.0015345308 0.00041469101 
    7170   -1152449.3            0   -1152449.3 1.1656373e-05 1.2242469e-05 2.8320258e-05 
[...]
Histogram: 8 0 8 0 16 0 8 8 16 40
Neighs:        79213.5 ave      115382 max           0 min
Histogram: 8 4 4 0 10 6 8 8 24 32

Total # of neighbors = 8238200
Ave neighs/atom = 28.530464
Neighbor list builds = 0
Dangerous builds = 0
The dot product: 4.67462437794736e-09
Setting atom values ...
  1 settings made for x
  1 settings made for y
  1 settings made for z
Setting up cg style minimization ...
  Unit style    : metal
  Current step  : 26650
Per MPI rank memory allocation (min/avg/max) = 5.441 | 5.816 | 6.074 Mbytes
Step PotEng KinEng TotEng v_fx v_fy v_fz 
   26650   -1152449.4            0   -1152449.4 -0.029758893 0.0082060295 -0.042294669 
   26866   -1152449.4            0   -1152449.4 -7.0287163e-06 -6.9272627e-06 -1.0002145e-05 
Loop time of 2.56248 on 104 procs for 216 steps with 288751 atoms

99.9% CPU use with 104 MPI tasks x 1 OpenMP threads

Minimization stats:
  Stopping criterion = energy tolerance
  Energy initial, next-to-last, final = 
     -1152449.43343259  -1152449.43488246  -1152449.43488246
  Force two-norm initial, final = 0.17370794 4.2712605e-05
  Force max component initial, final = 0.074377506 1.0754484e-05
  Final line search alpha, max atom move = 1.0000000 1.0754484e-05
  Iterations, force evaluations = 216 432

MPI task timing breakdown:
Section |  min time  |  avg time  |  max time  |%varavg| %total
---------------------------------------------------------------
Pair    | 0.64681    | 1.817      | 2.3997     |  36.7 | 70.91
Neigh   | 0          | 0          | 0          |   0.0 |  0.00
Comm    | 0.050713   | 0.42258    | 1.2481     |  52.3 | 16.49
Output  | 0          | 0          | 0          |   0.0 |  0.00
Modify  | 2.5594e-05 | 0.0035666  | 0.0076179  |   2.8 |  0.14
Other   |            | 0.3193     |            |       | 12.46

Nlocal:        2776.45 ave        3961 max           0 min
Histogram: 8 4 4 0 6 10 8 4 26 34
Nghost:        3879.09 ave        5424 max         232 min
Histogram: 8 0 8 0 16 0 8 8 16 40
Neighs:        79213.5 ave      115382 max           0 min
Histogram: 8 4 4 0 10 6 8 8 24 32

Total # of neighbors = 8238200
Ave neighs/atom = 28.530464
Neighbor list builds = 0
Dangerous builds = 0
The dot product: 4.91040766870564e-08
Setting atom values ...
  1 settings made for x
  1 settings made for y
  1 settings made for z
Setting up cg style minimization ...
  Unit style    : metal
  Current step  : 26866
Per MPI rank memory allocation (min/avg/max) = 5.441 | 5.816 | 6.074 Mbytes
Step PotEng KinEng TotEng v_fx v_fy v_fz 
   26866   -1152449.4            0   -1152449.4 -0.028435608  0.011987442 -0.040503457 
   27000   -1152449.4            0   -1152449.4 -4.1859359e-05  1.40052e-05 -5.963145e-05 
   27055   -1152449.4            0   -1152449.4 1.2660051e-05 7.3783946e-06 1.8058398e-05 
Loop time of 2.22038 on 104 procs for 189 steps with 288751 atoms

99.9% CPU use with 104 MPI tasks x 1 OpenMP threads

Minimization stats:
  Stopping criterion = energy tolerance
  Energy initial, next-to-last, final = 
      -1152449.4279414  -1152449.42934329  -1152449.42934329
  Force two-norm initial, final = 0.17102354 0.00011602399
  Force max component initial, final = 0.073578899 1.8058398e-05
  Final line search alpha, max atom move = 1.0000000 1.8058398e-05
  Iterations, force evaluations = 189 378

MPI task timing breakdown:
Section |  min time  |  avg time  |  max time  |%varavg| %total
---------------------------------------------------------------
Pair    | 0.56865    | 1.5881     | 2.0926     |  34.1 | 71.52
Neigh   | 0          | 0          | 0          |   0.0 |  0.00
Comm    | 0.033593   | 0.36432    | 1.0793     |  49.2 | 16.41
Output  | 0.00024538 | 0.00024846 | 0.00040749 |   0.0 |  0.01
Modify  | 2.2835e-05 | 0.0031286  | 0.0066569  |   2.6 |  0.14
Other   |            | 0.2646     |            |       | 11.92

Nlocal:        2776.45 ave        3961 max           0 min
Histogram: 8 4 4 0 6 10 8 4 26 34
Nghost:        3879.09 ave        5425 max         232 min
Histogram: 8 0 8 0 16 0 8 8 16 40
Neighs:        79213.5 ave      115383 max           0 min
Histogram: 8 4 4 0 10 6 8 8 24 32

Total # of neighbors = 8238205
Ave neighs/atom = 28.530481
Neighbor list builds = 0
Dangerous builds = 0
The dot product: -7.64803320146827e-08
Setting atom values ...
  1 settings made for x
  1 settings made for y
  1 settings made for z
Setting up cg style minimization ...
  Unit style    : metal
  Current step  : 27055
Per MPI rank memory allocation (min/avg/max) = 5.441 | 5.816 | 6.074 Mbytes
Step PotEng KinEng TotEng v_fx v_fy v_fz 
   27055   -1152449.4            0   -1152449.4 -0.026833634  0.016682106  -0.03829613 
   27241   -1152449.4            0   -1152449.4 -8.6123875e-06 4.0178373e-06 -1.2294474e-05 
Loop time of 2.17734 on 104 procs for 186 steps with 288751 atoms

99.9% CPU use with 104 MPI tasks x 1 OpenMP threads

Minimization stats:
  Stopping criterion = energy tolerance
  Energy initial, next-to-last, final = 
     -1152449.42084825  -1152449.42219597  -1152449.42219597
  Force two-norm initial, final = 0.1683107 0.00012126171
  Force max component initial, final = 0.072749123 1.3038004e-05
  Final line search alpha, max atom move = 1.0000000 1.3038004e-05
  Iterations, force evaluations = 186 372

MPI task timing breakdown:
Section |  min time  |  avg time  |  max time  |%varavg| %total
---------------------------------------------------------------
Pair    | 0.55845    | 1.5644     | 2.0497     |  33.9 | 71.85
Neigh   | 0          | 0          | 0          |   0.0 |  0.00
Comm    | 0.039782   | 0.35914    | 1.0724     |  48.8 | 16.49
Output  | 0          | 0          | 0          |   0.0 |  0.00
Modify  | 2.2823e-05 | 0.0030755  | 0.0065705  |   2.6 |  0.14
Other   |            | 0.2507     |            |       | 11.51

Nlocal:        2776.45 ave        3960 max           0 min
Histogram: 8 4 4 0 4 12 8 4 26 34
Nghost:        3879.12 ave        5426 max         232 min
Histogram: 8 0 8 0 16 0 8 8 16 40
Neighs:        79213.5 ave      115356 max           0 min
Histogram: 8 4 4 0 10 6 8 8 24 32

Total # of neighbors = 8238206
Ave neighs/atom = 28.530485
Neighbor list builds = 0
Dangerous builds = 0
The dot product: 4.56844886993569e-08
Setting atom values ...
  1 settings made for x
  1 settings made for y
  1 settings made for z
Setting up cg style minimization ...
  Unit style    : metal
  Current step  : 27241
Per MPI rank memory allocation (min/avg/max) = 5.441 | 5.816 | 6.074 Mbytes
Step PotEng KinEng TotEng v_fx v_fy v_fz 
   27241   -1152449.4            0   -1152449.4 -0.024868355  0.022680528 -0.035552192 
   27428   -1152449.4            0   -1152449.4 1.2628545e-06 1.8130394e-05 1.8510888e-06 
Loop time of 2.19999 on 104 procs for 187 steps with 288751 atoms

99.9% CPU use with 104 MPI tasks x 1 OpenMP threads

Minimization stats:
  Stopping criterion = energy tolerance
  Energy initial, next-to-last, final = 
      -1152449.4122217  -1152449.41351402  -1152449.41351402
  Force two-norm initial, final = 0.16594796 0.00011446585
  Force max component initial, final = 0.071944131 2.2147205e-05
  Final line search alpha, max atom move = 1.0000000 2.2147205e-05
  Iterations, force evaluations = 187 374

MPI task timing breakdown:
Section |  min time  |  avg time  |  max time  |%varavg| %total
---------------------------------------------------------------
Pair    | 0.56355    | 1.5716     | 2.068      |  33.9 | 71.44
Neigh   | 0          | 0          | 0          |   0.0 |  0.00
Comm    | 0.03589    | 0.3622     | 1.0705     |  48.8 | 16.46
Output  | 0          | 0          | 0          |   0.0 |  0.00
Modify  | 2.2924e-05 | 0.0030967  | 0.006632   |   2.6 |  0.14
Other   |            | 0.2631     |            |       | 11.96

Nlocal:        2776.45 ave        3960 max           0 min
Histogram: 8 4 4 0 4 12 8 4 26 34
Nghost:        3879.16 ave        5427 max         232 min
Histogram: 8 0 8 0 16 0 8 8 16 40
Neighs:        79213.5 ave      115349 max           0 min
Histogram: 8 4 4 0 10 6 8 8 24 32

Total # of neighbors = 8238207
Ave neighs/atom = 28.530488
Neighbor list builds = 0
Dangerous builds = 0
The dot product: 8.16893178115098e-09
Setting atom values ...
  1 settings made for x
  1 settings made for y
  1 settings made for z
Setting up cg style minimization ...
  Unit style    : metal
  Current step  : 27428
Per MPI rank memory allocation (min/avg/max) = 5.441 | 5.816 | 6.074 Mbytes
Step PotEng KinEng TotEng v_fx v_fy v_fz 
   27428   -1152449.4            0   -1152449.4  -0.02184495  0.031793305 -0.031279281 
   27607   -1152449.4            0   -1152449.4 9.700105e-06 1.1489952e-05 1.3938128e-05 
Loop time of 2.13322 on 104 procs for 179 steps with 288751 atoms

99.9% CPU use with 104 MPI tasks x 1 OpenMP threads

Minimization stats:
  Stopping criterion = energy tolerance
  Energy initial, next-to-last, final = 
     -1152449.40223798  -1152449.40349831  -1152449.40349831
  Force two-norm initial, final = 0.16488648 0.00012090045
  Force max component initial, final = 0.071643499 1.7392531e-05
  Final line search alpha, max atom move = 1.0000000 1.7392531e-05
  Iterations, force evaluations = 179 358

MPI task timing breakdown:
Section |  min time  |  avg time  |  max time  |%varavg| %total
---------------------------------------------------------------
Pair    | 0.53746    | 1.5137     | 2.0144     |  33.6 | 70.96
Neigh   | 0          | 0          | 0          |   0.0 |  0.00
Comm    | 0.030995   | 0.35436    | 1.0382     |  47.6 | 16.61
Output  | 0          | 0          | 0          |   0.0 |  0.00
Modify  | 2.1331e-05 | 0.0029546  | 0.0063591  |   2.6 |  0.14
Other   |            | 0.2622     |            |       | 12.29

Nlocal:        2776.45 ave        3960 max           0 min
Histogram: 8 4 4 0 4 12 8 4 26 34
Nghost:        3879.16 ave        5428 max         232 min
Histogram: 8 0 8 0 16 0 8 8 16 40
Neighs:        79213.5 ave      115349 max           0 min
Histogram: 8 4 4 0 10 6 8 8 24 32

Total # of neighbors = 8238204
Ave neighs/atom = 28.530478
Neighbor list builds = 0
Dangerous builds = 0
The dot product: -4.07414181172755e-09
Setting atom values ...
  1 settings made for x
  1 settings made for y
  1 settings made for z
Setting up cg style minimization ...
  Unit style    : metal
  Current step  : 27607
Per MPI rank memory allocation (min/avg/max) = 5.441 | 5.816 | 6.074 Mbytes
Step PotEng KinEng TotEng v_fx v_fy v_fz 
   27607   -1152449.4            0   -1152449.4 -0.018226611  0.042832566 -0.026184592 
   27657   -1152449.4            0   -1152449.4 -2.114129e-05 1.2913221e-05 -3.0377447e-05 
Loop time of 0.589143 on 104 procs for 50 steps with 288751 atoms

99.9% CPU use with 104 MPI tasks x 1 OpenMP threads

Minimization stats:
  Stopping criterion = energy tolerance
  Energy initial, next-to-last, final = 
     -1152449.39132571  -1152449.39281755  -1152449.39281755
  Force two-norm initial, final = 0.16744265 0.00018551667
  Force max component initial, final = 0.071374826 4.5664321e-05
  Final line search alpha, max atom move = 1.0000000 4.5664321e-05
  Iterations, force evaluations = 50 100

MPI task timing breakdown:
Section |  min time  |  avg time  |  max time  |%varavg| %total
---------------------------------------------------------------
Pair    | 0.15041    | 0.42263    | 0.55531    |  17.7 | 71.74
Neigh   | 0          | 0          | 0          |   0.0 |  0.00
Comm    | 0.009699   | 0.096538   | 0.28675    |  25.5 | 16.39
Output  | 0          | 0          | 0          |   0.0 |  0.00
Modify  | 6.5138e-06 | 0.00083622 | 0.0017834  |   0.0 |  0.14
Other   |            | 0.06914    |            |       | 11.74

Nlocal:        2776.45 ave        3960 max           0 min
Histogram: 8 4 4 0 4 12 8 4 26 34
Nghost:        3879.20 ave        5426 max         232 min
Histogram: 8 0 8 0 16 0 8 8 16 40
Neighs:        79213.5 ave      115352 max           0 min
Histogram: 8 4 4 0 10 6 8 8 24 32

Total # of neighbors = 8238204
Ave neighs/atom = 28.530478
Neighbor list builds = 0
Dangerous builds = 0
The dot product: 1.63135610084927e-07
Setting atom values ...
  1 settings made for x
  1 settings made for y
  1 settings made for z
Setting up cg style minimization ...
  Unit style    : metal
  Current step  : 27657
Per MPI rank memory allocation (min/avg/max) = 5.441 | 5.816 | 6.074 Mbytes
Step PotEng KinEng TotEng v_fx v_fy v_fz 
   27657   -1152449.4            0   -1152449.4 -0.015182654  0.053144812 -0.022132742 
   27831   -1152449.4            0   -1152449.4 -1.5443292e-05 -1.9471877e-05 -2.2095342e-05 
Loop time of 2.0944 on 104 procs for 174 steps with 288751 atoms

99.9% CPU use with 104 MPI tasks x 1 OpenMP threads

Minimization stats:
  Stopping criterion = energy tolerance
  Energy initial, next-to-last, final = 
     -1152449.38081111  -1152449.38279947  -1152449.38279947
  Force two-norm initial, final = 0.1713194 0.00015562459
  Force max component initial, final = 0.070074692 3.9941556e-05
  Final line search alpha, max atom move = 1.0000000 3.9941556e-05
  Iterations, force evaluations = 174 348

MPI task timing breakdown:
Section |  min time  |  avg time  |  max time  |%varavg| %total
---------------------------------------------------------------
Pair    | 0.5222     | 1.4703     | 1.9589     |  33.2 | 70.20
Neigh   | 0          | 0          | 0          |   0.0 |  0.00
Comm    | 0.031373   | 0.34528    | 1.009      |  46.7 | 16.49
Output  | 0          | 0          | 0          |   0.0 |  0.00
Modify  | 2.1446e-05 | 0.0028816  | 0.0061701  |   2.5 |  0.14
Other   |            | 0.2759     |            |       | 13.17

Nlocal:        2776.45 ave        3960 max           0 min
Histogram: 8 4 4 0 4 12 8 4 26 34
Nghost:        3879.20 ave        5426 max         232 min
Histogram: 8 0 8 0 16 0 8 8 16 40
Neighs:        79213.5 ave      115352 max           0 min
Histogram: 8 4 4 0 10 6 8 8 24 32

Total # of neighbors = 8238206
Ave neighs/atom = 28.530485
Neighbor list builds = 0
Dangerous builds = 0
The dot product: -3.41914178593396e-07
Setting atom values ...
  1 settings made for x
  1 settings made for y
  1 settings made for z
Setting up cg style minimization ...
  Unit style    : metal
  Current step  : 27831
Per MPI rank memory allocation (min/avg/max) = 5.441 | 5.816 | 6.074 Mbytes
Step PotEng KinEng TotEng v_fx v_fy v_fz 
   27831   -1152449.4            0   -1152449.4 -0.014789888  0.052415254 -0.022086913 
   27946   -1152449.4            0   -1152449.4 1.1070271e-06 2.9465706e-06  1.54537e-06 
Loop time of 1.38508 on 104 procs for 115 steps with 288751 atoms

99.9% CPU use with 104 MPI tasks x 1 OpenMP threads

Minimization stats:
  Stopping criterion = energy tolerance
  Energy initial, next-to-last, final = 
     -1152449.37165592   -1152449.3732907   -1152449.3732907
  Force two-norm initial, final = 0.16718968 8.9197474e-05
  Force max component initial, final = 0.070106809 8.7068946e-06
  Final line search alpha, max atom move = 1.0000000 8.7068946e-06
  Iterations, force evaluations = 115 230

MPI task timing breakdown:
Section |  min time  |  avg time  |  max time  |%varavg| %total
---------------------------------------------------------------
Pair    | 0.34616    | 0.97206    | 1.2724     |  26.8 | 70.18
Neigh   | 0          | 0          | 0          |   0.0 |  0.00
Comm    | 0.024331   | 0.22606    | 0.66341    |  37.9 | 16.32
Output  | 0          | 0          | 0          |   0.0 |  0.00
Modify  | 1.4246e-05 | 0.0019052  | 0.0040595  |   2.1 |  0.14
Other   |            | 0.1851     |            |       | 13.36

Nlocal:        2776.45 ave        3960 max           0 min
Histogram: 8 4 4 0 4 12 8 4 26 34
Nghost:        3879.20 ave        5428 max         232 min
Histogram: 8 0 8 0 16 0 8 8 16 40
Neighs:        79213.5 ave      115349 max           0 min
Histogram: 8 4 4 0 10 6 8 8 24 32

Total # of neighbors = 8238205
Ave neighs/atom = 28.530481
Neighbor list builds = 0
Dangerous builds = 0
The dot product: 3.49383717184892e-08
Setting atom values ...
  1 settings made for x
  1 settings made for y
  1 settings made for z
Setting up cg style minimization ...
  Unit style    : metal
  Current step  : 27946
Per MPI rank memory allocation (min/avg/max) = 5.441 | 5.816 | 6.074 Mbytes
Step PotEng KinEng TotEng v_fx v_fy v_fz 
   27946   -1152449.4            0   -1152449.4 -0.014723956  0.049282409   -0.0222911 
   28000   -1152449.4            0   -1152449.4 -6.1058387e-06 -5.0915997e-05 -7.6279021e-06 
   28046   -1152449.4            0   -1152449.4 -1.6951917e-05 -1.5135407e-05 -2.4036324e-05 
Loop time of 1.18683 on 104 procs for 100 steps with 288751 atoms

99.9% CPU use with 104 MPI tasks x 1 OpenMP threads

Minimization stats:
  Stopping criterion = energy tolerance
  Energy initial, next-to-last, final = 
     -1152449.36223393  -1152449.36367219  -1152449.36367219
  Force two-norm initial, final = 0.16286503 0.00012208947
  Force max component initial, final = 0.069758073 2.4036324e-05
  Final line search alpha, max atom move = 1.0000000 2.4036324e-05
  Iterations, force evaluations = 100 200

MPI task timing breakdown:
Section |  min time  |  avg time  |  max time  |%varavg| %total
---------------------------------------------------------------
Pair    | 0.30087    | 0.84359    | 1.1198     |  25.0 | 71.08
Neigh   | 0          | 0          | 0          |   0.0 |  0.00
Comm    | 0.022964   | 0.19741    | 0.57743    |  35.3 | 16.63
Output  | 0.00016037 | 0.00017044 | 0.00028809 |   0.0 |  0.01
Modify  | 1.2657e-05 | 0.0016553  | 0.0035511  |   1.9 |  0.14
Other   |            | 0.144      |            |       | 12.13

Nlocal:        2776.45 ave        3960 max           0 min
Histogram: 8 4 4 0 4 12 8 4 26 34
Nghost:        3879.20 ave        5427 max         232 min
Histogram: 8 0 8 0 16 0 8 8 16 40
Neighs:        79213.5 ave      115349 max           0 min
Histogram: 8 4 4 0 10 6 8 8 24 32

Total # of neighbors = 8238206
Ave neighs/atom = 28.530485
Neighbor list builds = 0
Dangerous builds = 0
The dot product: -1.13975907809849e-07
Setting atom values ...
  1 settings made for x
  1 settings made for y
  1 settings made for z
Setting up cg style minimization ...
  Unit style    : metal
  Current step  : 28046
Per MPI rank memory allocation (min/avg/max) = 5.441 | 5.816 | 6.074 Mbytes
Step PotEng KinEng TotEng v_fx v_fy v_fz 
   28046   -1152449.4            0   -1152449.4 -0.014190031  0.048052138 -0.021750986 
   28151   -1152449.4            0   -1152449.4 4.0222601e-05 3.5377444e-05 5.6892709e-05 
Loop time of 1.23779 on 104 procs for 105 steps with 288751 atoms

99.9% CPU use with 104 MPI tasks x 1 OpenMP threads

Minimization stats:
  Stopping criterion = energy tolerance
  Energy initial, next-to-last, final = 
     -1152449.35228109  -1152449.35365582  -1152449.35365582
  Force two-norm initial, final = 0.16004037 0.00025064195
  Force max component initial, final = 0.069192311 6.7477009e-05
  Final line search alpha, max atom move = 1.0000000 6.7477009e-05
  Iterations, force evaluations = 105 210

MPI task timing breakdown:
Section |  min time  |  avg time  |  max time  |%varavg| %total
---------------------------------------------------------------
Pair    | 0.31643    | 0.88526    | 1.1672     |  25.5 | 71.52
Neigh   | 0          | 0          | 0          |   0.0 |  0.00
Comm    | 0.01875    | 0.20273    | 0.60193    |  36.7 | 16.38
Output  | 0          | 0          | 0          |   0.0 |  0.00
Modify  | 1.3056e-05 | 0.0017432  | 0.0036986  |   2.0 |  0.14
Other   |            | 0.1481     |            |       | 11.96

Nlocal:        2776.45 ave        3960 max           0 min
Histogram: 8 4 4 0 4 12 8 4 26 34
Nghost:        3879.20 ave        5427 max         232 min
Histogram: 8 0 8 0 16 0 8 8 16 40
Neighs:        79213.5 ave      115349 max           0 min
Histogram: 8 4 4 0 10 6 8 8 24 32

Total # of neighbors = 8238203
Ave neighs/atom = 28.530474
Neighbor list builds = 0
Dangerous builds = 0
The dot product: 2.22143909656245e-07
