LAMMPS (29 Oct 2020)
OMP_NUM_THREADS environment is not set. Defaulting to 1 thread. (../comm.cpp:94)
  using 1 OpenMP thread(s) per MPI task
OMP_NUM_THREADS environment is not set. Defaulting to 1 thread. (../comm.cpp:94)
  using 1 OpenMP thread(s) per MPI task
Reading data file ...
  orthogonal box = (-122.39241 -121.13707 -37.090501) to (122.39241 121.13707 37.090501)
  13 by 4 by 2 MPI processor grid
  reading atoms ...
  288751 atoms
  read_data CPU = 0.437 seconds
199981 atoms in group inner
88770 atoms in group outer
1 atoms in group carbon
Neighbor list info ...
  update every 1 steps, delay 0 steps, check yes
  max neighbors/atom: 2000, page size: 100000
  master list distance cutoff = 5.6
  ghost atom cutoff = 5.6
  binsize = 2.8, bins = 88 87 27
  1 neighbor lists, perpetual/occasional/extra = 1 0 0
  (1) pair eam/alloy, perpetual
      attributes: half, newton on
      pair build: half/bin/atomonly/newton
      stencil: half/bin/3d/newton
      bin: standard
Setting up cg style minimization ...
  Unit style    : metal
  Current step  : 0
Per MPI rank memory allocation (min/avg/max) = 5.441 | 5.816 | 6.074 Mbytes
Step v_fx v_fy v_fz PotEng KinEng TotEng 
       0    26.543055  -0.83334065   -7.8331642   -1152441.8            0   -1152441.8 
     302 3.1303327e-06 1.4897923e-07 -4.5178977e-06     -1152449            0     -1152449 
Loop time of 3.61961 on 104 procs for 302 steps with 288751 atoms

99.8% CPU use with 104 MPI tasks x 1 OpenMP threads

Minimization stats:
  Stopping criterion = energy tolerance
  Energy initial, next-to-last, final = 
     -1152441.77709447  -1152448.97218902  -1152448.97218902
  Force two-norm initial, final = 45.354361 4.9861889e-05
  Force max component initial, final = 34.180530 1.1296283e-05
  Final line search alpha, max atom move = 1.0000000 1.1296283e-05
  Iterations, force evaluations = 302 600

MPI task timing breakdown:
Section |  min time  |  avg time  |  max time  |%varavg| %total
---------------------------------------------------------------
Pair    | 0.95064    | 2.5387     | 3.3017     |  42.2 | 70.14
Neigh   | 9.2932e-05 | 0.026326   | 0.038705   |   6.7 |  0.73
Comm    | 0.063604   | 0.58661    | 1.7136     |  61.1 | 16.21
Output  | 0          | 0          | 0          |   0.0 |  0.00
Modify  | 3.5032e-05 | 0.0032475  | 0.0082919  |   3.5 |  0.09
Other   |            | 0.4647     |            |       | 12.84

Nlocal:        2776.45 ave        3955 max           0 min
Histogram: 8 4 4 0 4 12 8 0 30 34
Nghost:        3879.13 ave        5425 max         232 min
Histogram: 8 0 8 0 16 0 8 8 16 40
Neighs:        79213.6 ave      115281 max           0 min
Histogram: 8 4 4 0 10 6 8 8 24 32

Total # of neighbors = 8238212
Ave neighs/atom = 28.530506
Neighbor list builds = 9
Dangerous builds = 0
Setting atom values ...
  1 settings made for x
  1 settings made for y
  1 settings made for z
Setting up cg style minimization ...
  Unit style    : metal
  Current step  : 302
Per MPI rank memory allocation (min/avg/max) = 5.441 | 5.816 | 6.074 Mbytes
Step PotEng KinEng TotEng v_fx v_fy v_fz 
     302     -1152449            0     -1152449 -0.010910841 -0.0092047462 0.0092957313 
     460     -1152449            0     -1152449 -2.0076206e-05 4.7039757e-07 3.1995536e-05 
Loop time of 1.88833 on 104 procs for 158 steps with 288751 atoms

99.9% CPU use with 104 MPI tasks x 1 OpenMP threads

Minimization stats:
  Stopping criterion = energy tolerance
  Energy initial, next-to-last, final = 
     -1152448.97163403   -1152448.9720416   -1152448.9720416
  Force two-norm initial, final = 0.085320013 0.00012468675
  Force max component initial, final = 0.041537561 4.3308118e-05
  Final line search alpha, max atom move = 1.0000000 4.3308118e-05
  Iterations, force evaluations = 158 316

MPI task timing breakdown:
Section |  min time  |  avg time  |  max time  |%varavg| %total
---------------------------------------------------------------
Pair    | 0.47977    | 1.3404     | 1.7484     |  31.3 | 70.99
Neigh   | 0          | 0          | 0          |   0.0 |  0.00
Comm    | 0.029666   | 0.30653    | 0.90899    |  45.0 | 16.23
Output  | 0          | 0          | 0          |   0.0 |  0.00
Modify  | 1.9127e-05 | 0.0026191  | 0.0055276  |   2.4 |  0.14
Other   |            | 0.2387     |            |       | 12.64

Nlocal:        2776.45 ave        3953 max           0 min
Histogram: 8 4 4 0 4 12 8 1 29 34
Nghost:        3879.16 ave        5425 max         232 min
Histogram: 8 0 8 0 16 0 8 8 16 40
Neighs:        79213.5 ave      115199 max           0 min
Histogram: 8 4 4 0 10 6 8 8 24 32

Total # of neighbors = 8238206
Ave neighs/atom = 28.530485
Neighbor list builds = 0
Dangerous builds = 0
Setting atom values ...
  1 settings made for x
  1 settings made for y
  1 settings made for z
Setting up cg style minimization ...
  Unit style    : metal
  Current step  : 460
Per MPI rank memory allocation (min/avg/max) = 5.441 | 5.816 | 6.074 Mbytes
Step PotEng KinEng TotEng v_fx v_fy v_fz 
     460     -1152449            0     -1152449 -0.0015513749 -0.015258088 -0.0053143305 
     646     -1152449            0     -1152449 3.3237758e-05 -5.4783049e-06 -3.3894421e-05 
Loop time of 2.18926 on 104 procs for 186 steps with 288751 atoms

99.9% CPU use with 104 MPI tasks x 1 OpenMP threads

Minimization stats:
  Stopping criterion = energy tolerance
  Energy initial, next-to-last, final = 
     -1152448.96966217  -1152448.97118787  -1152448.97118787
  Force two-norm initial, final = 0.15058173 0.00020929951
  Force max component initial, final = 0.083371113 4.4844058e-05
  Final line search alpha, max atom move = 1.0000000 4.4844058e-05
  Iterations, force evaluations = 186 372

MPI task timing breakdown:
Section |  min time  |  avg time  |  max time  |%varavg| %total
---------------------------------------------------------------
Pair    | 0.56538    | 1.5654     | 2.0404     |  33.8 | 71.50
Neigh   | 0          | 0          | 0          |   0.0 |  0.00
Comm    | 0.035255   | 0.35654    | 1.0574     |  49.0 | 16.29
Output  | 0          | 0          | 0          |   0.0 |  0.00
Modify  | 2.2002e-05 | 0.0030845  | 0.0065927  |   2.6 |  0.14
Other   |            | 0.2643     |            |       | 12.07

Nlocal:        2776.45 ave        3953 max           0 min
Histogram: 8 4 4 0 4 12 8 1 29 34
Nghost:        3879.16 ave        5425 max         232 min
Histogram: 8 0 8 0 16 0 8 8 16 40
Neighs:        79213.5 ave      115196 max           0 min
Histogram: 8 4 4 0 10 6 8 8 24 32

Total # of neighbors = 8238203
Ave neighs/atom = 28.530474
Neighbor list builds = 0
Dangerous builds = 0
The dot product: -2.64752759609314e-07
Setting atom values ...
  1 settings made for x
  1 settings made for y
  1 settings made for z
Setting up cg style minimization ...
  Unit style    : metal
  Current step  : 646
Per MPI rank memory allocation (min/avg/max) = 5.441 | 5.816 | 6.074 Mbytes
Step PotEng KinEng TotEng v_fx v_fy v_fz 
     646     -1152449            0     -1152449   0.01665638 -0.0096440437 -0.013324947 
     822     -1152449            0     -1152449 -9.3399498e-05 1.1582202e-05 6.6035867e-05 
Loop time of 2.09847 on 104 procs for 176 steps with 288751 atoms

99.9% CPU use with 104 MPI tasks x 1 OpenMP threads

Minimization stats:
  Stopping criterion = energy tolerance
  Energy initial, next-to-last, final = 
     -1152448.96792232  -1152448.97023159  -1152448.97023159
  Force two-norm initial, final = 0.15774896 0.00030547471
  Force max component initial, final = 0.087006867 0.00010109053
  Final line search alpha, max atom move = 1.0000000 0.00010109053
  Iterations, force evaluations = 176 352

MPI task timing breakdown:
Section |  min time  |  avg time  |  max time  |%varavg| %total
---------------------------------------------------------------
Pair    | 0.53442    | 1.4915     | 1.9531     |  33.0 | 71.08
Neigh   | 0          | 0          | 0          |   0.0 |  0.00
Comm    | 0.029545   | 0.3445     | 1.0261     |  47.7 | 16.42
Output  | 0          | 0          | 0          |   0.0 |  0.00
Modify  | 2.1354e-05 | 0.0029159  | 0.0061534  |   2.5 |  0.14
Other   |            | 0.2595     |            |       | 12.37

Nlocal:        2776.45 ave        3953 max           0 min
Histogram: 8 4 4 0 4 12 8 2 28 34
Nghost:        3879.16 ave        5425 max         232 min
Histogram: 8 0 8 0 16 0 8 8 16 40
Neighs:        79213.5 ave      115193 max           0 min
Histogram: 8 4 4 0 10 6 8 8 24 32

Total # of neighbors = 8238200
Ave neighs/atom = 28.530464
Neighbor list builds = 0
Dangerous builds = 0
The dot product: 1.16594378227479e-06
Setting atom values ...
  1 settings made for x
  1 settings made for y
  1 settings made for z
Setting up cg style minimization ...
  Unit style    : metal
  Current step  : 822
Per MPI rank memory allocation (min/avg/max) = 5.441 | 5.816 | 6.074 Mbytes
Step PotEng KinEng TotEng v_fx v_fy v_fz 
     822     -1152449            0     -1152449  0.031659804 -0.0059469347  -0.01426954 
    1000     -1152449            0     -1152449 4.0539985e-05 1.0867708e-06 -1.8485967e-05 
    1033     -1152449            0     -1152449 -3.9666335e-05 6.2596723e-07 1.8046043e-05 
Loop time of 2.47996 on 104 procs for 211 steps with 288751 atoms

99.9% CPU use with 104 MPI tasks x 1 OpenMP threads

Minimization stats:
  Stopping criterion = energy tolerance
  Energy initial, next-to-last, final = 
     -1152448.96696503  -1152448.96913838  -1152448.96913838
  Force two-norm initial, final = 0.17177576 0.00013997345
  Force max component initial, final = 0.088809627 3.9666335e-05
  Final line search alpha, max atom move = 1.0000000 3.9666335e-05
  Iterations, force evaluations = 211 422

MPI task timing breakdown:
Section |  min time  |  avg time  |  max time  |%varavg| %total
---------------------------------------------------------------
Pair    | 0.63567    | 1.7714     | 2.3154     |  36.0 | 71.43
Neigh   | 0          | 0          | 0          |   0.0 |  0.00
Comm    | 0.039147   | 0.40458    | 1.2141     |  52.1 | 16.31
Output  | 0.00032829 | 0.00033613 | 0.00048091 |   0.0 |  0.01
Modify  | 2.4982e-05 | 0.0034847  | 0.0074076  |   2.8 |  0.14
Other   |            | 0.3001     |            |       | 12.10

Nlocal:        2776.45 ave        3952 max           0 min
Histogram: 8 4 4 0 4 12 8 2 28 34
Nghost:        3879.22 ave        5425 max         232 min
Histogram: 8 0 8 0 16 0 8 8 16 40
Neighs:        79213.5 ave      115152 max           0 min
Histogram: 8 4 4 0 10 6 8 8 24 32

Total # of neighbors = 8238207
Ave neighs/atom = 28.530488
Neighbor list builds = 0
Dangerous builds = 0
The dot product: 2.86397502153058e-07
Setting atom values ...
  1 settings made for x
  1 settings made for y
  1 settings made for z
Setting up cg style minimization ...
  Unit style    : metal
  Current step  : 1033
Per MPI rank memory allocation (min/avg/max) = 5.441 | 5.816 | 6.074 Mbytes
Step PotEng KinEng TotEng v_fx v_fy v_fz 
    1033     -1152449            0     -1152449  0.038932134 -0.0054446473 -0.013316132 
    1444   -1152449.2            0   -1152449.2 1.5462124e-06 -2.0419533e-07 -5.2978114e-07 
Loop time of 4.85224 on 104 procs for 411 steps with 288751 atoms

99.9% CPU use with 104 MPI tasks x 1 OpenMP threads

Minimization stats:
  Stopping criterion = energy tolerance
  Energy initial, next-to-last, final = 
     -1152448.96519394  -1152449.19726978  -1152449.19726978
  Force two-norm initial, final = 0.17911606 6.4864555e-06
  Force max component initial, final = 0.087048569 1.8230317e-06
  Final line search alpha, max atom move = 1.0000000 1.8230317e-06
  Iterations, force evaluations = 411 822

MPI task timing breakdown:
Section |  min time  |  avg time  |  max time  |%varavg| %total
---------------------------------------------------------------
Pair    | 1.2588     | 3.4728     | 4.5258     |  50.0 | 71.57
Neigh   | 4.1749e-05 | 0.011712   | 0.017038   |   4.5 |  0.24
Comm    | 0.090117   | 0.78628    | 2.3401     |  73.2 | 16.20
Output  | 0          | 0          | 0          |   0.0 |  0.00
Modify  | 5.1644e-05 | 0.0067857  | 0.014424   |   3.9 |  0.14
Other   |            | 0.5746     |            |       | 11.84

Nlocal:        2776.45 ave        3943 max           0 min
Histogram: 8 4 4 0 4 12 8 2 24 38
Nghost:        3879.03 ave        5426 max         232 min
Histogram: 8 0 8 0 16 0 8 8 16 40
Neighs:        79214.1 ave      114814 max           0 min
Histogram: 8 4 4 0 10 6 8 8 22 34

Total # of neighbors = 8238270
Ave neighs/atom = 28.530706
Neighbor list builds = 4
Dangerous builds = 0
The dot product: -5.02971565642494e-08
Setting atom values ...
  1 settings made for x
  1 settings made for y
  1 settings made for z
Setting up cg style minimization ...
  Unit style    : metal
  Current step  : 1444
Per MPI rank memory allocation (min/avg/max) = 5.441 | 5.816 | 6.074 Mbytes
Step PotEng KinEng TotEng v_fx v_fy v_fz 
    1444   -1152449.2            0   -1152449.2  0.074000244 -0.010786004 -0.00077829566 
    1596   -1152449.2            0   -1152449.2 5.0493503e-05 -1.4283309e-06 -1.2000626e-06 
Loop time of 1.80743 on 104 procs for 152 steps with 288751 atoms

99.9% CPU use with 104 MPI tasks x 1 OpenMP threads

Minimization stats:
  Stopping criterion = energy tolerance
  Energy initial, next-to-last, final = 
     -1152449.19649467   -1152449.1991889   -1152449.1991889
  Force two-norm initial, final = 0.2078045 0.00020192381
  Force max component initial, final = 0.082331436 5.5886353e-05
  Final line search alpha, max atom move = 1.0000000 5.5886353e-05
  Iterations, force evaluations = 152 304

MPI task timing breakdown:
Section |  min time  |  avg time  |  max time  |%varavg| %total
---------------------------------------------------------------
Pair    | 0.46044    | 1.2784     | 1.6737     |  30.6 | 70.73
Neigh   | 0          | 0          | 0          |   0.0 |  0.00
Comm    | 0.025982   | 0.29572    | 0.87029    |  43.8 | 16.36
Output  | 0          | 0          | 0          |   0.0 |  0.00
Modify  | 1.844e-05  | 0.0025137  | 0.0053545  |   2.4 |  0.14
Other   |            | 0.2308     |            |       | 12.77

Nlocal:        2776.45 ave        3945 max           0 min
Histogram: 8 4 4 0 4 12 8 2 24 38
Nghost:        3879.36 ave        5429 max         232 min
Histogram: 8 0 8 0 16 0 8 8 16 40
Neighs:        79214.7 ave      114908 max           0 min
Histogram: 8 4 4 0 10 6 8 8 22 34

Total # of neighbors = 8238332
Ave neighs/atom = 28.530921
Neighbor list builds = 0
Dangerous builds = 0
The dot product: 4.48701789883978e-07
Setting atom values ...
  1 settings made for x
  1 settings made for y
  1 settings made for z
Setting up cg style minimization ...
  Unit style    : metal
  Current step  : 1596
Per MPI rank memory allocation (min/avg/max) = 5.441 | 5.816 | 6.074 Mbytes
Step PotEng KinEng TotEng v_fx v_fy v_fz 
    1596   -1152449.2            0   -1152449.2  0.038544282 -0.004978026 -0.0035426454 
    1843   -1152449.2            0   -1152449.2 2.347418e-06 1.4411662e-07 -2.4571007e-07 
Loop time of 2.90158 on 104 procs for 247 steps with 288751 atoms

99.9% CPU use with 104 MPI tasks x 1 OpenMP threads

Minimization stats:
  Stopping criterion = energy tolerance
  Energy initial, next-to-last, final = 
     -1152449.19779823  -1152449.20004531  -1152449.20004531
  Force two-norm initial, final = 0.19518185 1.8302266e-05
  Force max component initial, final = 0.085677926 2.5536354e-06
  Final line search alpha, max atom move = 1.0000000 2.5536354e-06
  Iterations, force evaluations = 247 494

MPI task timing breakdown:
Section |  min time  |  avg time  |  max time  |%varavg| %total
---------------------------------------------------------------
Pair    | 0.75057    | 2.0843     | 2.714      |  38.9 | 71.83
Neigh   | 0          | 0          | 0          |   0.0 |  0.00
Comm    | 0.047305   | 0.4727     | 1.4233     |  57.0 | 16.29
Output  | 0          | 0          | 0          |   0.0 |  0.00
Modify  | 3.0076e-05 | 0.0040869  | 0.0087135  |   3.0 |  0.14
Other   |            | 0.3405     |            |       | 11.73

Nlocal:        2776.45 ave        3943 max           0 min
Histogram: 8 4 4 0 4 12 8 2 24 38
Nghost:        3879.38 ave        5429 max         232 min
Histogram: 8 0 8 0 16 0 8 8 16 40
Neighs:        79214.7 ave      114848 max           0 min
Histogram: 8 4 4 0 10 6 8 8 22 34

Total # of neighbors = 8238326
Ave neighs/atom = 28.530900
Neighbor list builds = 0
Dangerous builds = 0
The dot product: 4.13616970218852e-09
Setting atom values ...
  1 settings made for x
  1 settings made for y
  1 settings made for z
Setting up cg style minimization ...
  Unit style    : metal
  Current step  : 1843
Per MPI rank memory allocation (min/avg/max) = 5.441 | 5.816 | 6.074 Mbytes
Step PotEng KinEng TotEng v_fx v_fy v_fz 
    1843   -1152449.2            0   -1152449.2  0.044347618 -0.0015480297 -0.0049813155 
    2000   -1152449.2            0   -1152449.2 0.0026180851 -0.00059085423 -0.00026775017 
    2298   -1152449.4            0   -1152449.4 -5.0377991e-06 2.5209267e-06 4.4226971e-07 
Loop time of 5.35542 on 104 procs for 455 steps with 288751 atoms

99.9% CPU use with 104 MPI tasks x 1 OpenMP threads

Minimization stats:
  Stopping criterion = energy tolerance
  Energy initial, next-to-last, final = 
     -1152449.19750305  -1152449.40226917  -1152449.40226917
  Force two-norm initial, final = 0.19665546 8.9710856e-05
  Force max component initial, final = 0.086137699 2.0129882e-05
  Final line search alpha, max atom move = 1.0000000 2.0129882e-05
  Iterations, force evaluations = 455 910

MPI task timing breakdown:
Section |  min time  |  avg time  |  max time  |%varavg| %total
---------------------------------------------------------------
Pair    | 1.4037     | 3.8253     | 4.9709     |  52.3 | 71.43
Neigh   | 9.4261e-05 | 0.026328   | 0.038398   |   6.7 |  0.49
Comm    | 0.085175   | 0.86852    | 2.6031     |  77.2 | 16.22
Output  | 0.00025437 | 0.00025737 | 0.00041249 |   0.0 |  0.00
Modify  | 5.5629e-05 | 0.0075182  | 0.016039   |   4.1 |  0.14
Other   |            | 0.6275     |            |       | 11.72

Nlocal:        2776.45 ave        3945 max           0 min
Histogram: 8 4 4 0 4 12 8 2 24 38
Nghost:        3879.58 ave        5429 max         232 min
Histogram: 8 0 8 0 16 0 8 8 16 40
Neighs:        79213.2 ave      114818 max           0 min
Histogram: 8 4 4 0 10 6 8 8 22 34

Total # of neighbors = 8238171
Ave neighs/atom = 28.530364
Neighbor list builds = 9
Dangerous builds = 0
The dot product: -3.69517439905463e-07
Setting atom values ...
  1 settings made for x
  1 settings made for y
  1 settings made for z
Setting up cg style minimization ...
  Unit style    : metal
  Current step  : 2298
Per MPI rank memory allocation (min/avg/max) = 5.441 | 5.816 | 6.074 Mbytes
Step PotEng KinEng TotEng v_fx v_fy v_fz 
    2298   -1152449.4            0   -1152449.4  -0.19330133   0.01431526   0.11247344 
    2502   -1152449.4            0   -1152449.4 -3.2674327e-05 -2.1586179e-06 1.9088146e-05 
Loop time of 2.41173 on 104 procs for 204 steps with 288751 atoms

99.9% CPU use with 104 MPI tasks x 1 OpenMP threads

Minimization stats:
  Stopping criterion = energy tolerance
  Energy initial, next-to-last, final = 
     -1152449.41061727   -1152449.4190815   -1152449.4190815
  Force two-norm initial, final = 0.29650988 0.00023722924
  Force max component initial, final = 0.19330133 3.3819236e-05
  Final line search alpha, max atom move = 1.0000000 3.3819236e-05
  Iterations, force evaluations = 204 408

MPI task timing breakdown:
Section |  min time  |  avg time  |  max time  |%varavg| %total
---------------------------------------------------------------
Pair    | 0.62172    | 1.7276     | 2.2593     |  35.3 | 71.63
Neigh   | 0          | 0          | 0          |   0.0 |  0.00
Comm    | 0.035128   | 0.39985    | 1.1936     |  51.7 | 16.58
Output  | 0          | 0          | 0          |   0.0 |  0.00
Modify  | 2.4677e-05 | 0.0033684  | 0.0071939  |   2.7 |  0.14
Other   |            | 0.2809     |            |       | 11.65

Nlocal:        2776.45 ave        3945 max           0 min
Histogram: 8 4 4 0 4 12 8 4 22 38
Nghost:        3879.53 ave        5429 max         232 min
Histogram: 8 0 8 0 16 0 8 8 16 40
Neighs:        79213.4 ave      114779 max           0 min
Histogram: 8 4 4 0 10 6 8 8 20 36

Total # of neighbors = 8238195
Ave neighs/atom = 28.530447
Neighbor list builds = 0
Dangerous builds = 0
The dot product: 2.18154095304921e-06
Setting atom values ...
  1 settings made for x
  1 settings made for y
  1 settings made for z
Setting up cg style minimization ...
  Unit style    : metal
  Current step  : 2502
Per MPI rank memory allocation (min/avg/max) = 5.441 | 5.816 | 6.074 Mbytes
Step PotEng KinEng TotEng v_fx v_fy v_fz 
    2502   -1152449.4            0   -1152449.4   0.15171615  -0.01250807 -0.036734922 
    2693   -1152449.4            0   -1152449.4 -1.3821621e-05 5.2441518e-06 3.261215e-06 
Loop time of 2.22976 on 104 procs for 191 steps with 288751 atoms

99.9% CPU use with 104 MPI tasks x 1 OpenMP threads

Minimization stats:
  Stopping criterion = energy tolerance
  Energy initial, next-to-last, final = 
     -1152449.42466226  -1152449.42911172  -1152449.42911172
  Force two-norm initial, final = 0.25626185 0.00015412059
  Force max component initial, final = 0.15171615 3.7264425e-05
  Final line search alpha, max atom move = 1.0000000 3.7264425e-05
  Iterations, force evaluations = 191 382

MPI task timing breakdown:
Section |  min time  |  avg time  |  max time  |%varavg| %total
---------------------------------------------------------------
Pair    | 0.57727    | 1.6093     | 2.0922     |  34.3 | 72.18
Neigh   | 0          | 0          | 0          |   0.0 |  0.00
Comm    | 0.032723   | 0.36554    | 1.1006     |  50.1 | 16.39
Output  | 0          | 0          | 0          |   0.0 |  0.00
Modify  | 2.3038e-05 | 0.0031561  | 0.0067     |   2.6 |  0.14
Other   |            | 0.2517     |            |       | 11.29

Nlocal:        2776.45 ave        3945 max           0 min
Histogram: 8 4 4 0 4 12 8 4 22 38
Nghost:        3879.59 ave        5428 max         232 min
Histogram: 8 0 8 0 16 0 8 8 16 40
Neighs:        79213.5 ave      114783 max           0 min
Histogram: 8 4 4 0 10 6 8 8 20 36

Total # of neighbors = 8238199
Ave neighs/atom = 28.530461
Neighbor list builds = 0
Dangerous builds = 0
The dot product: -4.88864165567889e-07
Setting atom values ...
  1 settings made for x
  1 settings made for y
  1 settings made for z
Setting up cg style minimization ...
  Unit style    : metal
  Current step  : 2693
Per MPI rank memory allocation (min/avg/max) = 5.441 | 5.816 | 6.074 Mbytes
Step PotEng KinEng TotEng v_fx v_fy v_fz 
    2693   -1152449.4            0   -1152449.4 -0.025336658 -0.0077690572  0.010656881 
    2834   -1152449.4            0   -1152449.4 5.3710848e-05 4.2020095e-06 -2.232658e-05 
Loop time of 1.65062 on 104 procs for 141 steps with 288751 atoms

99.9% CPU use with 104 MPI tasks x 1 OpenMP threads

Minimization stats:
  Stopping criterion = energy tolerance
  Energy initial, next-to-last, final = 
     -1152449.43307513   -1152449.4352776   -1152449.4352776
  Force two-norm initial, final = 0.20059428 0.00026161656
  Force max component initial, final = 0.10407713 6.7478930e-05
  Final line search alpha, max atom move = 1.0000000 6.7478930e-05
  Iterations, force evaluations = 141 282

MPI task timing breakdown:
Section |  min time  |  avg time  |  max time  |%varavg| %total
---------------------------------------------------------------
Pair    | 0.42535    | 1.1905     | 1.5498     |  29.5 | 72.12
Neigh   | 0          | 0          | 0          |   0.0 |  0.00
Comm    | 0.02479    | 0.26799    | 0.81231    |  43.3 | 16.24
Output  | 0          | 0          | 0          |   0.0 |  0.00
Modify  | 1.6911e-05 | 0.0023378  | 0.0049977  |   2.3 |  0.14
Other   |            | 0.1898     |            |       | 11.50

Nlocal:        2776.45 ave        3945 max           0 min
Histogram: 8 4 4 0 4 12 8 4 22 38
Nghost:        3879.57 ave        5428 max         232 min
Histogram: 8 0 8 0 16 0 8 8 16 40
Neighs:        79213.5 ave      114786 max           0 min
Histogram: 8 4 4 0 10 6 8 8 20 36

Total # of neighbors = 8238199
Ave neighs/atom = 28.530461
Neighbor list builds = 0
Dangerous builds = 0
The dot product: -6.75013864495827e-07
Setting atom values ...
  1 settings made for x
  1 settings made for y
  1 settings made for z
Setting up cg style minimization ...
  Unit style    : metal
  Current step  : 2834
Per MPI rank memory allocation (min/avg/max) = 5.441 | 5.816 | 6.074 Mbytes
Step PotEng KinEng TotEng v_fx v_fy v_fz 
    2834   -1152449.4            0   -1152449.4  0.037505907 -0.0014174636 -0.013496581 
    3000   -1152449.4            0   -1152449.4 1.6431832e-05 -1.9938643e-06 -5.8958114e-06 
    3110   -1152449.4            0   -1152449.4 1.722801e-07 -2.6893875e-08 -6.1739716e-08 
Loop time of 3.21617 on 104 procs for 276 steps with 288751 atoms

99.9% CPU use with 104 MPI tasks x 1 OpenMP threads

Minimization stats:
  Stopping criterion = energy tolerance
  Energy initial, next-to-last, final = 
     -1152449.43732926  -1152449.43930146  -1152449.43930146
  Force two-norm initial, final = 0.20396201 1.8241938e-06
  Force max component initial, final = 0.10175414 2.5642634e-07
  Final line search alpha, max atom move = 1.0000000 2.5642634e-07
  Iterations, force evaluations = 276 552

MPI task timing breakdown:
Section |  min time  |  avg time  |  max time  |%varavg| %total
---------------------------------------------------------------
Pair    | 0.83263    | 2.3159     | 3.0218     |  41.1 | 72.01
Neigh   | 0          | 0          | 0          |   0.0 |  0.00
Comm    | 0.047643   | 0.52829    | 1.582      |  60.0 | 16.43
Output  | 0.00028492 | 0.00029195 | 0.00046189 |   0.0 |  0.01
Modify  | 3.2589e-05 | 0.0045572  | 0.0096501  |   3.2 |  0.14
Other   |            | 0.3672     |            |       | 11.42

Nlocal:        2776.45 ave        3945 max           0 min
Histogram: 8 4 4 0 4 12 8 4 22 38
Nghost:        3879.53 ave        5428 max         232 min
Histogram: 8 0 8 0 16 0 8 8 16 40
Neighs:        79213.4 ave      114804 max           0 min
Histogram: 8 4 4 0 10 6 8 8 20 36

Total # of neighbors = 8238197
Ave neighs/atom = 28.530454
Neighbor list builds = 0
Dangerous builds = 0
The dot product: 6.59546076917002e-10
Setting atom values ...
  1 settings made for x
  1 settings made for y
  1 settings made for z
Setting up cg style minimization ...
  Unit style    : metal
  Current step  : 3110
Per MPI rank memory allocation (min/avg/max) = 5.441 | 5.816 | 6.074 Mbytes
Step PotEng KinEng TotEng v_fx v_fy v_fz 
    3110   -1152449.4            0   -1152449.4  0.027914844 -0.00040097732 -0.010484233 
    3271   -1152449.4            0   -1152449.4 -6.9572764e-05 -3.7554655e-06 2.6191093e-05 
Loop time of 1.91376 on 104 procs for 161 steps with 288751 atoms

99.9% CPU use with 104 MPI tasks x 1 OpenMP threads

Minimization stats:
  Stopping criterion = energy tolerance
  Energy initial, next-to-last, final = 
     -1152449.43942337  -1152449.44137042  -1152449.44137042
  Force two-norm initial, final = 0.20191124 0.00020914938
  Force max component initial, final = 0.10029773 6.9572764e-05
  Final line search alpha, max atom move = 1.0000000 6.9572764e-05
  Iterations, force evaluations = 161 322

MPI task timing breakdown:
Section |  min time  |  avg time  |  max time  |%varavg| %total
---------------------------------------------------------------
Pair    | 0.48681    | 1.3589     | 1.7715     |  31.5 | 71.01
Neigh   | 0          | 0          | 0          |   0.0 |  0.00
Comm    | 0.02828    | 0.31146    | 0.92354    |  45.5 | 16.27
Output  | 0          | 0          | 0          |   0.0 |  0.00
Modify  | 1.9472e-05 | 0.0026642  | 0.0056435  |   2.4 |  0.14
Other   |            | 0.2408     |            |       | 12.58

Nlocal:        2776.45 ave        3945 max           0 min
Histogram: 8 4 4 0 4 12 8 4 22 38
Nghost:        3879.53 ave        5428 max         232 min
Histogram: 8 0 8 0 16 0 8 8 16 40
Neighs:        79213.4 ave      114801 max           0 min
Histogram: 8 4 4 0 10 6 8 8 20 36

Total # of neighbors = 8238198
Ave neighs/atom = 28.530457
Neighbor list builds = 0
Dangerous builds = 0
The dot product: -7.73444871778111e-08
Setting atom values ...
  1 settings made for x
  1 settings made for y
  1 settings made for z
Setting up cg style minimization ...
  Unit style    : metal
  Current step  : 3271
Per MPI rank memory allocation (min/avg/max) = 5.441 | 5.816 | 6.074 Mbytes
Step PotEng KinEng TotEng v_fx v_fy v_fz 
    3271   -1152449.4            0   -1152449.4  0.032551296 0.0019949459 -0.012392714 
    3497   -1152449.4            0   -1152449.4 4.7644674e-07 -1.894396e-07 -1.7855437e-07 
Loop time of 2.62505 on 104 procs for 226 steps with 288751 atoms

99.9% CPU use with 104 MPI tasks x 1 OpenMP threads

Minimization stats:
  Stopping criterion = energy tolerance
  Energy initial, next-to-last, final = 
     -1152449.43947645     -1152449.44144     -1152449.44144
  Force two-norm initial, final = 0.20276869 1.8784742e-05
  Force max component initial, final = 0.098516154 1.3640742e-06
  Final line search alpha, max atom move = 1.0000000 1.3640742e-06
  Iterations, force evaluations = 226 452

MPI task timing breakdown:
Section |  min time  |  avg time  |  max time  |%varavg| %total
---------------------------------------------------------------
Pair    | 0.68173    | 1.8946     | 2.4663     |  37.1 | 72.17
Neigh   | 0          | 0          | 0          |   0.0 |  0.00
Comm    | 0.041156   | 0.42626    | 1.2819     |  54.7 | 16.24
Output  | 0          | 0          | 0          |   0.0 |  0.00
Modify  | 2.7241e-05 | 0.0037364  | 0.0079263  |   2.9 |  0.14
Other   |            | 0.3005     |            |       | 11.45

Nlocal:        2776.45 ave        3945 max           0 min
Histogram: 8 4 4 0 4 12 8 3 23 38
Nghost:        3879.53 ave        5428 max         232 min
Histogram: 8 0 8 0 16 0 8 8 16 40
Neighs:        79213.4 ave      114801 max           0 min
Histogram: 8 4 4 0 10 6 8 8 21 35

Total # of neighbors = 8238198
Ave neighs/atom = 28.530457
Neighbor list builds = 0
Dangerous builds = 0
The dot product: 9.26546557592677e-10
Setting atom values ...
  1 settings made for x
  1 settings made for y
  1 settings made for z
Setting up cg style minimization ...
  Unit style    : metal
  Current step  : 3497
Per MPI rank memory allocation (min/avg/max) = 5.441 | 5.816 | 6.074 Mbytes
Step PotEng KinEng TotEng v_fx v_fy v_fz 
    3497   -1152449.4            0   -1152449.4  0.034751167 0.00091120813 -0.013466157 
    3675   -1152449.4            0   -1152449.4 2.3185053e-05 3.6742715e-07 -8.9809028e-06 
Loop time of 2.07862 on 104 procs for 178 steps with 288751 atoms

99.9% CPU use with 104 MPI tasks x 1 OpenMP threads

Minimization stats:
  Stopping criterion = energy tolerance
  Energy initial, next-to-last, final = 
     -1152449.43752883  -1152449.43949012  -1152449.43949012
  Force two-norm initial, final = 0.20300683 0.00014168175
  Force max component initial, final = 0.096635615 2.3185053e-05
  Final line search alpha, max atom move = 1.0000000 2.3185053e-05
  Iterations, force evaluations = 178 356

MPI task timing breakdown:
Section |  min time  |  avg time  |  max time  |%varavg| %total
---------------------------------------------------------------
Pair    | 0.54067    | 1.5034     | 1.953      |  33.0 | 72.32
Neigh   | 0          | 0          | 0          |   0.0 |  0.00
Comm    | 0.031076   | 0.34036    | 1.0247     |  48.7 | 16.37
Output  | 0          | 0          | 0          |   0.0 |  0.00
Modify  | 2.1339e-05 | 0.0029425  | 0.0062658  |   2.6 |  0.14
Other   |            | 0.232      |            |       | 11.16

Nlocal:        2776.45 ave        3945 max           0 min
Histogram: 8 4 4 0 4 12 8 3 23 38
Nghost:        3879.50 ave        5428 max         232 min
Histogram: 8 0 8 0 16 0 8 8 16 40
Neighs:        79213.5 ave      114801 max           0 min
Histogram: 8 4 4 0 10 6 8 8 21 35

Total # of neighbors = 8238199
Ave neighs/atom = 28.530461
Neighbor list builds = 0
Dangerous builds = 0
The dot product: 6.26592127353861e-08
Setting atom values ...
  1 settings made for x
  1 settings made for y
  1 settings made for z
Setting up cg style minimization ...
  Unit style    : metal
  Current step  : 3675
Per MPI rank memory allocation (min/avg/max) = 5.441 | 5.816 | 6.074 Mbytes
Step PotEng KinEng TotEng v_fx v_fy v_fz 
    3675   -1152449.4            0   -1152449.4  0.035503182 -0.00020045367 -0.014058791 
    3859   -1152449.4            0   -1152449.4 3.4951683e-07 -1.1795561e-06 -1.2223428e-07 
Loop time of 2.12941 on 104 procs for 184 steps with 288751 atoms

99.9% CPU use with 104 MPI tasks x 1 OpenMP threads

Minimization stats:
  Stopping criterion = energy tolerance
  Energy initial, next-to-last, final = 
      -1152449.4335761  -1152449.43552824  -1152449.43552824
  Force two-norm initial, final = 0.20279103 0.00012283808
  Force max component initial, final = 0.09770759 5.7358786e-06
  Final line search alpha, max atom move = 1.0000000 5.7358786e-06
  Iterations, force evaluations = 184 368

MPI task timing breakdown:
Section |  min time  |  avg time  |  max time  |%varavg| %total
---------------------------------------------------------------
Pair    | 0.55549    | 1.5435     | 2.0086     |  33.5 | 72.48
Neigh   | 0          | 0          | 0          |   0.0 |  0.00
Comm    | 0.031923   | 0.34869    | 1.0521     |  49.5 | 16.38
Output  | 0          | 0          | 0          |   0.0 |  0.00
Modify  | 2.2098e-05 | 0.0030381  | 0.0064443  |   2.6 |  0.14
Other   |            | 0.2342     |            |       | 11.00

Nlocal:        2776.45 ave        3945 max           0 min
Histogram: 8 4 4 0 4 12 8 2 24 38
Nghost:        3879.51 ave        5428 max         232 min
Histogram: 8 0 8 0 16 0 8 8 16 40
Neighs:        79213.5 ave      114785 max           0 min
Histogram: 8 4 4 0 10 6 8 8 21 35

Total # of neighbors = 8238199
Ave neighs/atom = 28.530461
Neighbor list builds = 0
Dangerous builds = 0
The dot product: 1.28690011848771e-09
Setting atom values ...
  1 settings made for x
  1 settings made for y
  1 settings made for z
Setting up cg style minimization ...
  Unit style    : metal
  Current step  : 3859
Per MPI rank memory allocation (min/avg/max) = 5.441 | 5.816 | 6.074 Mbytes
Step PotEng KinEng TotEng v_fx v_fy v_fz 
    3859   -1152449.4            0   -1152449.4  0.035478611 -0.001272906 -0.014361937 
    4000   -1152449.4            0   -1152449.4 -9.5636015e-06 1.5587104e-07 3.8738431e-06 
    4037   -1152449.4            0   -1152449.4 1.4861405e-05 -1.3471537e-06 -6.0053523e-06 
Loop time of 2.09314 on 104 procs for 178 steps with 288751 atoms

99.9% CPU use with 104 MPI tasks x 1 OpenMP threads

Minimization stats:
  Stopping criterion = energy tolerance
  Energy initial, next-to-last, final = 
     -1152449.42761248  -1152449.42955512  -1152449.42955512
  Force two-norm initial, final = 0.20234608 0.0001436689
  Force max component initial, final = 0.10013054 2.3655035e-05
  Final line search alpha, max atom move = 1.0000000 2.3655035e-05
  Iterations, force evaluations = 178 356

MPI task timing breakdown:
Section |  min time  |  avg time  |  max time  |%varavg| %total
---------------------------------------------------------------
Pair    | 0.53903    | 1.5066     | 1.9694     |  33.2 | 71.98
Neigh   | 0          | 0          | 0          |   0.0 |  0.00
Comm    | 0.030202   | 0.34516    | 1.0379     |  48.3 | 16.49
Output  | 0.00024803 | 0.00025694 | 0.00038968 |   0.0 |  0.01
Modify  | 2.1435e-05 | 0.0029414  | 0.0062456  |   2.6 |  0.14
Other   |            | 0.2381     |            |       | 11.38

Nlocal:        2776.45 ave        3945 max           0 min
Histogram: 8 4 4 0 4 12 8 2 24 38
Nghost:        3879.55 ave        5428 max         232 min
Histogram: 8 0 8 0 16 0 8 8 16 40
Neighs:        79213.5 ave      114779 max           0 min
Histogram: 8 4 4 0 10 6 8 8 22 34

Total # of neighbors = 8238200
Ave neighs/atom = 28.530464
Neighbor list builds = 0
Dangerous builds = 0
The dot product: 4.5740733056188e-08
Setting atom values ...
  1 settings made for x
  1 settings made for y
  1 settings made for z
Setting up cg style minimization ...
  Unit style    : metal
  Current step  : 4037
Per MPI rank memory allocation (min/avg/max) = 5.441 | 5.816 | 6.074 Mbytes
Step PotEng KinEng TotEng v_fx v_fy v_fz 
    4037   -1152449.4            0   -1152449.4  0.035190047 -0.0026812101 -0.014546785 
    4242   -1152449.4            0   -1152449.4 -7.755546e-06  2.36472e-07 3.2103422e-06 
Loop time of 2.39295 on 104 procs for 205 steps with 288751 atoms

99.9% CPU use with 104 MPI tasks x 1 OpenMP threads

Minimization stats:
  Stopping criterion = energy tolerance
  Energy initial, next-to-last, final = 
     -1152449.41964483   -1152449.4215767   -1152449.4215767
  Force two-norm initial, final = 0.20185276 6.5074564e-05
  Force max component initial, final = 0.1025254 1.8547600e-05
  Final line search alpha, max atom move = 1.0000000 1.8547600e-05
  Iterations, force evaluations = 205 410

MPI task timing breakdown:
Section |  min time  |  avg time  |  max time  |%varavg| %total
---------------------------------------------------------------
Pair    | 0.62041    | 1.7235     | 2.2446     |  35.4 | 72.02
Neigh   | 0          | 0          | 0          |   0.0 |  0.00
Comm    | 0.041283   | 0.39553    | 1.1919     |  52.1 | 16.53
Output  | 0          | 0          | 0          |   0.0 |  0.00
Modify  | 2.4752e-05 | 0.0033934  | 0.0072038  |   2.7 |  0.14
Other   |            | 0.2706     |            |       | 11.31

Nlocal:        2776.45 ave        3945 max           0 min
Histogram: 8 4 4 0 4 12 8 2 24 38
Nghost:        3879.53 ave        5428 max         232 min
Histogram: 8 0 8 0 16 0 8 8 16 40
Neighs:        79213.5 ave      114763 max           0 min
Histogram: 8 4 4 0 10 6 8 8 22 34

Total # of neighbors = 8238206
Ave neighs/atom = 28.530485
Neighbor list builds = 0
Dangerous builds = 0
The dot product: -2.41078593604379e-08
Setting atom values ...
  1 settings made for x
  1 settings made for y
  1 settings made for z
Setting up cg style minimization ...
  Unit style    : metal
  Current step  : 4242
Per MPI rank memory allocation (min/avg/max) = 5.441 | 5.816 | 6.074 Mbytes
Step PotEng KinEng TotEng v_fx v_fy v_fz 
    4242   -1152449.4            0   -1152449.4  0.034563736 -0.0044715498 -0.014570337 
    4460   -1152449.4            0   -1152449.4 2.1968512e-06 1.3588653e-08 -9.2951948e-07 
Loop time of 2.54291 on 104 procs for 218 steps with 288751 atoms

99.9% CPU use with 104 MPI tasks x 1 OpenMP threads

Minimization stats:
  Stopping criterion = energy tolerance
  Energy initial, next-to-last, final = 
     -1152449.40968389  -1152449.41160396  -1152449.41160396
  Force two-norm initial, final = 0.20131545 2.6551011e-05
  Force max component initial, final = 0.10493264 3.8258330e-06
  Final line search alpha, max atom move = 1.0000000 3.8258330e-06
  Iterations, force evaluations = 218 436

MPI task timing breakdown:
Section |  min time  |  avg time  |  max time  |%varavg| %total
---------------------------------------------------------------
Pair    | 0.65781    | 1.8396     | 2.3968     |  36.5 | 72.34
Neigh   | 0          | 0          | 0          |   0.0 |  0.00
Comm    | 0.036908   | 0.42023    | 1.2733     |  53.7 | 16.53
Output  | 0          | 0          | 0          |   0.0 |  0.00
Modify  | 2.6714e-05 | 0.0035992  | 0.0076658  |   2.8 |  0.14
Other   |            | 0.2795     |            |       | 10.99

Nlocal:        2776.45 ave        3945 max           0 min
Histogram: 8 4 4 0 4 12 8 2 24 38
Nghost:        3879.54 ave        5428 max         232 min
Histogram: 8 0 8 0 16 0 8 8 16 40
Neighs:        79213.6 ave      114767 max           0 min
Histogram: 8 4 4 0 10 6 8 8 22 34

Total # of neighbors = 8238210
Ave neighs/atom = 28.530499
Neighbor list builds = 0
Dangerous builds = 0
The dot product: 6.86093607688291e-09
Setting atom values ...
  1 settings made for x
  1 settings made for y
  1 settings made for z
Setting up cg style minimization ...
  Unit style    : metal
  Current step  : 4460
Per MPI rank memory allocation (min/avg/max) = 5.441 | 5.816 | 6.074 Mbytes
Step PotEng KinEng TotEng v_fx v_fy v_fz 
    4460   -1152449.4            0   -1152449.4  0.033699406 -0.0066648832 -0.014468281 
    4654   -1152449.4            0   -1152449.4 5.665569e-06 6.4750543e-07 -2.4511731e-06 
Loop time of 2.26111 on 104 procs for 194 steps with 288751 atoms

99.9% CPU use with 104 MPI tasks x 1 OpenMP threads

Minimization stats:
  Stopping criterion = energy tolerance
  Energy initial, next-to-last, final = 
     -1152449.39774477  -1152449.39965226  -1152449.39965226
  Force two-norm initial, final = 0.20080549 0.00010024251
  Force max component initial, final = 0.10726146 5.6655690e-06
  Final line search alpha, max atom move = 1.0000000 5.6655690e-06
  Iterations, force evaluations = 194 388

MPI task timing breakdown:
Section |  min time  |  avg time  |  max time  |%varavg| %total
---------------------------------------------------------------
Pair    | 0.58416    | 1.6334     | 2.1242     |  34.6 | 72.24
Neigh   | 0          | 0          | 0          |   0.0 |  0.00
Comm    | 0.0351     | 0.36836    | 1.1102     |  50.9 | 16.29
Output  | 0          | 0          | 0          |   0.0 |  0.00
Modify  | 2.3838e-05 | 0.0032145  | 0.00683    |   2.7 |  0.14
Other   |            | 0.2562     |            |       | 11.33

Nlocal:        2776.45 ave        3945 max           0 min
Histogram: 8 4 4 0 4 12 8 2 24 38
Nghost:        3879.41 ave        5427 max         232 min
Histogram: 8 0 8 0 16 0 8 8 16 40
Neighs:        79213.6 ave      114770 max           0 min
Histogram: 8 4 4 0 10 6 8 8 22 34

Total # of neighbors = 8238213
Ave neighs/atom = 28.530509
Neighbor list builds = 0
Dangerous builds = 0
The dot product: 1.7319638274792e-08
Setting atom values ...
  1 settings made for x
  1 settings made for y
  1 settings made for z
Setting up cg style minimization ...
  Unit style    : metal
  Current step  : 4654
Per MPI rank memory allocation (min/avg/max) = 5.441 | 5.816 | 6.074 Mbytes
Step PotEng KinEng TotEng v_fx v_fy v_fz 
    4654   -1152449.4            0   -1152449.4  0.032531257 -0.0093024123 -0.014207169 
    4835   -1152449.4            0   -1152449.4 -1.2533862e-05 -1.3206777e-06 5.5199419e-06 
Loop time of 2.13992 on 104 procs for 181 steps with 288751 atoms

99.9% CPU use with 104 MPI tasks x 1 OpenMP threads

Minimization stats:
  Stopping criterion = energy tolerance
  Energy initial, next-to-last, final = 
     -1152449.38384774  -1152449.38574349  -1152449.38574349
  Force two-norm initial, final = 0.2003451 0.00014891075
  Force max component initial, final = 0.10955972 2.8114402e-05
  Final line search alpha, max atom move = 1.0000000 2.8114402e-05
  Iterations, force evaluations = 181 362

MPI task timing breakdown:
Section |  min time  |  avg time  |  max time  |%varavg| %total
---------------------------------------------------------------
Pair    | 0.54653    | 1.526      | 1.9923     |  33.3 | 71.31
Neigh   | 0          | 0          | 0          |   0.0 |  0.00
Comm    | 0.032864   | 0.34892    | 1.0494     |  48.3 | 16.31
Output  | 0          | 0          | 0          |   0.0 |  0.00
Modify  | 2.2161e-05 | 0.0029971  | 0.0063676  |   2.6 |  0.14
Other   |            | 0.262      |            |       | 12.25

Nlocal:        2776.45 ave        3945 max           0 min
Histogram: 8 4 4 0 4 12 8 2 24 38
Nghost:        3879.38 ave        5427 max         232 min
Histogram: 8 0 8 0 16 0 8 8 16 40
Neighs:        79213.6 ave      114772 max           0 min
Histogram: 8 4 4 0 10 6 8 8 22 34

Total # of neighbors = 8238211
Ave neighs/atom = 28.530502
Neighbor list builds = 0
Dangerous builds = 0
The dot product: -3.7430865925258e-08
Setting atom values ...
  1 settings made for x
  1 settings made for y
  1 settings made for z
Setting up cg style minimization ...
  Unit style    : metal
  Current step  : 4835
Per MPI rank memory allocation (min/avg/max) = 5.441 | 5.816 | 6.074 Mbytes
Step PotEng KinEng TotEng v_fx v_fy v_fz 
    4835   -1152449.4            0   -1152449.4  0.031036578 -0.012443941 -0.013775005 
    5000   -1152449.4            0   -1152449.4 -4.7000898e-07 -3.0838762e-07 2.124402e-07 
    5037   -1152449.4            0   -1152449.4 6.3257619e-06 6.1196889e-07 -2.8318752e-06 
Loop time of 2.34993 on 104 procs for 202 steps with 288751 atoms

99.9% CPU use with 104 MPI tasks x 1 OpenMP threads

Minimization stats:
  Stopping criterion = energy tolerance
  Energy initial, next-to-last, final = 
     -1152449.36802147   -1152449.3699042   -1152449.3699042
  Force two-norm initial, final = 0.19998049 7.0989441e-05
  Force max component initial, final = 0.11182294 1.2491192e-05
  Final line search alpha, max atom move = 1.0000000 1.2491192e-05
  Iterations, force evaluations = 202 404

MPI task timing breakdown:
Section |  min time  |  avg time  |  max time  |%varavg| %total
---------------------------------------------------------------
Pair    | 0.60687    | 1.6929     | 2.1999     |  35.1 | 72.04
Neigh   | 0          | 0          | 0          |   0.0 |  0.00
Comm    | 0.036227   | 0.38284    | 1.1608     |  51.8 | 16.29
Output  | 0.00024808 | 0.00025094 | 0.00038972 |   0.0 |  0.01
Modify  | 2.4617e-05 | 0.0033417  | 0.0070976  |   2.7 |  0.14
Other   |            | 0.2705     |            |       | 11.51

Nlocal:        2776.45 ave        3945 max           0 min
Histogram: 8 4 4 0 4 12 8 2 24 38
Nghost:        3879.41 ave        5427 max         232 min
Histogram: 8 0 8 0 16 0 8 8 16 40
Neighs:        79213.6 ave      114773 max           0 min
Histogram: 8 4 4 0 10 6 8 8 22 34

Total # of neighbors = 8238211
Ave neighs/atom = 28.530502
Neighbor list builds = 0
Dangerous builds = 0
The dot product: 1.77080068399984e-08
Setting atom values ...
  1 settings made for x
  1 settings made for y
  1 settings made for z
Setting up cg style minimization ...
  Unit style    : metal
  Current step  : 5037
Per MPI rank memory allocation (min/avg/max) = 5.441 | 5.816 | 6.074 Mbytes
Step PotEng KinEng TotEng v_fx v_fy v_fz 
    5037   -1152449.4            0   -1152449.4  0.030101967 -0.015162042 -0.013578494 
    5216   -1152449.4            0   -1152449.4 -3.0329045e-06 8.2183727e-07 1.3718418e-06 
Loop time of 2.08765 on 104 procs for 179 steps with 288751 atoms

99.9% CPU use with 104 MPI tasks x 1 OpenMP threads

Minimization stats:
  Stopping criterion = energy tolerance
  Energy initial, next-to-last, final = 
     -1152449.35030073  -1152449.35216417  -1152449.35216417
  Force two-norm initial, final = 0.19978661 0.00014751115
  Force max component initial, final = 0.11396508 5.5177617e-06
  Final line search alpha, max atom move = 1.0000000 5.5177617e-06
  Iterations, force evaluations = 179 358

MPI task timing breakdown:
Section |  min time  |  avg time  |  max time  |%varavg| %total
---------------------------------------------------------------
Pair    | 0.53855    | 1.5109     | 1.9607     |  33.3 | 72.37
Neigh   | 0          | 0          | 0          |   0.0 |  0.00
Comm    | 0.032971   | 0.34006    | 1.0228     |  48.8 | 16.29
Output  | 0          | 0          | 0          |   0.0 |  0.00
Modify  | 2.1691e-05 | 0.0029567  | 0.0062885  |   2.6 |  0.14
Other   |            | 0.2337     |            |       | 11.19

Nlocal:        2776.45 ave        3945 max           0 min
Histogram: 8 4 4 0 4 12 8 2 24 38
Nghost:        3879.43 ave        5427 max         232 min
Histogram: 8 0 8 0 16 0 8 8 16 40
Neighs:        79213.6 ave      114772 max           0 min
Histogram: 8 4 4 0 10 6 8 8 22 34

Total # of neighbors = 8238213
Ave neighs/atom = 28.530509
Neighbor list builds = 0
Dangerous builds = 0
The dot product: -9.93946494844165e-09
Setting atom values ...
  1 settings made for x
  1 settings made for y
  1 settings made for z
Setting up cg style minimization ...
  Unit style    : metal
  Current step  : 5216
Per MPI rank memory allocation (min/avg/max) = 5.441 | 5.816 | 6.074 Mbytes
Step PotEng KinEng TotEng v_fx v_fy v_fz 
    5216   -1152449.3            0   -1152449.3  0.029456595 -0.018769904 -0.013517917 
    5459   -1152449.3            0   -1152449.3 -3.9320077e-07 -6.9028327e-08 1.8117319e-07 
Loop time of 2.87899 on 104 procs for 243 steps with 288751 atoms

99.9% CPU use with 104 MPI tasks x 1 OpenMP threads

Minimization stats:
  Stopping criterion = energy tolerance
  Energy initial, next-to-last, final = 
     -1152449.33074096  -1152449.33257966  -1152449.33257966
  Force two-norm initial, final = 0.19989435 8.9729193e-06
  Force max component initial, final = 0.11615125 6.2221782e-07
  Final line search alpha, max atom move = 1.0000000 6.2221782e-07
  Iterations, force evaluations = 243 486

MPI task timing breakdown:
Section |  min time  |  avg time  |  max time  |%varavg| %total
---------------------------------------------------------------
Pair    | 0.73395    | 2.0465     | 2.6773     |  38.8 | 71.08
Neigh   | 0          | 0          | 0          |   0.0 |  0.00
Comm    | 0.046818   | 0.46868    | 1.3815     |  55.7 | 16.28
Output  | 0          | 0          | 0          |   0.0 |  0.00
Modify  | 2.9706e-05 | 0.0040145  | 0.0085204  |   3.0 |  0.14
Other   |            | 0.3598     |            |       | 12.50

Nlocal:        2776.45 ave        3945 max           0 min
Histogram: 8 4 4 0 4 12 8 2 24 38
Nghost:        3879.47 ave        5427 max         232 min
Histogram: 8 0 8 0 16 0 8 8 16 40
Neighs:        79213.6 ave      114772 max           0 min
Histogram: 8 4 4 0 10 6 8 8 22 34

Total # of neighbors = 8238215
Ave neighs/atom = 28.530516
Neighbor list builds = 0
Dangerous builds = 0
The dot product: -1.0655005904393e-09
Setting atom values ...
  1 settings made for x
  1 settings made for y
  1 settings made for z
Setting up cg style minimization ...
  Unit style    : metal
  Current step  : 5459
Per MPI rank memory allocation (min/avg/max) = 5.441 | 5.816 | 6.074 Mbytes
Step PotEng KinEng TotEng v_fx v_fy v_fz 
    5459   -1152449.3            0   -1152449.3   0.02827782   -0.0248901 -0.013263251 
    5627   -1152449.3            0   -1152449.3 5.6917966e-05 -8.0322244e-06 -2.6602572e-05 
Loop time of 1.9618 on 104 procs for 168 steps with 288751 atoms

99.9% CPU use with 104 MPI tasks x 1 OpenMP threads

Minimization stats:
  Stopping criterion = energy tolerance
  Energy initial, next-to-last, final = 
     -1152449.30942755  -1152449.31127397  -1152449.31127397
  Force two-norm initial, final = 0.20072659 0.00018356158
  Force max component initial, final = 0.11835802 5.6917966e-05
  Final line search alpha, max atom move = 1.0000000 5.6917966e-05
  Iterations, force evaluations = 168 336

MPI task timing breakdown:
Section |  min time  |  avg time  |  max time  |%varavg| %total
---------------------------------------------------------------
Pair    | 0.5086     | 1.4223     | 1.8493     |  32.2 | 72.50
Neigh   | 0          | 0          | 0          |   0.0 |  0.00
Comm    | 0.028534   | 0.32368    | 0.98115    |  47.4 | 16.50
Output  | 0          | 0          | 0          |   0.0 |  0.00
Modify  | 2.0717e-05 | 0.0027767  | 0.0059103  |   2.5 |  0.14
Other   |            | 0.2131     |            |       | 10.86

Nlocal:        2776.45 ave        3945 max           0 min
Histogram: 8 4 4 0 4 12 8 2 24 38
Nghost:        3879.47 ave        5427 max         232 min
Histogram: 8 0 8 0 16 0 8 8 16 40
Neighs:        79213.6 ave      114762 max           0 min
Histogram: 8 4 4 0 10 6 8 8 22 34

Total # of neighbors = 8238216
Ave neighs/atom = 28.530519
Neighbor list builds = 0
Dangerous builds = 0
The dot product: 1.73019220805345e-07
Setting atom values ...
  1 settings made for x
  1 settings made for y
  1 settings made for z
Setting up cg style minimization ...
  Unit style    : metal
  Current step  : 5627
Per MPI rank memory allocation (min/avg/max) = 5.441 | 5.816 | 6.074 Mbytes
Step PotEng KinEng TotEng v_fx v_fy v_fz 
    5627   -1152449.3            0   -1152449.3  0.020670748 -0.051756492 -0.010811032 
    5829   -1152449.3            0   -1152449.3 -2.2415692e-05 1.3254837e-07 1.0556821e-05 
Loop time of 2.34365 on 104 procs for 202 steps with 288751 atoms

99.9% CPU use with 104 MPI tasks x 1 OpenMP threads

Minimization stats:
  Stopping criterion = energy tolerance
  Energy initial, next-to-last, final = 
     -1152449.28663993   -1152449.2936518   -1152449.2936518
  Force two-norm initial, final = 0.20588948 0.00014999888
  Force max component initial, final = 0.12020528 2.7334974e-05
  Final line search alpha, max atom move = 1.0000000 2.7334974e-05
  Iterations, force evaluations = 202 404

MPI task timing breakdown:
Section |  min time  |  avg time  |  max time  |%varavg| %total
---------------------------------------------------------------
Pair    | 0.6114     | 1.6954     | 2.2072     |  35.1 | 72.34
Neigh   | 1.0236e-05 | 0.0029419  | 0.0042677  |   2.2 |  0.13
Comm    | 0.037918   | 0.38407    | 1.15       |  51.6 | 16.39
Output  | 0          | 0          | 0          |   0.0 |  0.00
Modify  | 2.4363e-05 | 0.0033337  | 0.0070697  |   2.7 |  0.14
Other   |            | 0.2579     |            |       | 11.00

Nlocal:        2776.45 ave        3945 max           0 min
Histogram: 8 4 4 0 4 12 8 2 24 38
Nghost:        3879.51 ave        5427 max         232 min
Histogram: 8 0 8 0 16 0 8 8 16 40
Neighs:        79213.7 ave      114765 max           0 min
Histogram: 8 4 4 0 10 6 8 8 22 34

Total # of neighbors = 8238222
Ave neighs/atom = 28.530540
Neighbor list builds = 1
Dangerous builds = 0
The dot product: 3.77281664946786e-07
Setting atom values ...
  1 settings made for x
  1 settings made for y
  1 settings made for z
Setting up cg style minimization ...
  Unit style    : metal
  Current step  : 5829
Per MPI rank memory allocation (min/avg/max) = 5.441 | 5.816 | 6.074 Mbytes
Step PotEng KinEng TotEng v_fx v_fy v_fz 
    5829   -1152449.3            0   -1152449.3 -0.036207911  -0.22415736  -0.03063487 
    6000   -1152449.3            0   -1152449.3 -0.00036824656 0.00010077381 0.00018142409 
    6107   -1152449.3            0   -1152449.3 1.4318353e-06 -6.4685783e-07 -7.5823616e-07 
Loop time of 3.30183 on 104 procs for 278 steps with 288751 atoms

99.9% CPU use with 104 MPI tasks x 1 OpenMP threads

Minimization stats:
  Stopping criterion = energy tolerance
  Energy initial, next-to-last, final = 
     -1152449.27184236  -1152449.33808203  -1152449.33808203
  Force two-norm initial, final = 0.29767656 2.8966627e-05
  Force max component initial, final = 0.22415736 6.5886371e-06
  Final line search alpha, max atom move = 1.0000000 6.5886371e-06
  Iterations, force evaluations = 278 556

MPI task timing breakdown:
Section |  min time  |  avg time  |  max time  |%varavg| %total
---------------------------------------------------------------
Pair    | 0.86253    | 2.3522     | 3.0873     |  40.8 | 71.24
Neigh   | 2.0335e-05 | 0.005891   | 0.0085789  |   3.2 |  0.18
Comm    | 0.0481     | 0.54351    | 1.6224     |  60.0 | 16.46
Output  | 0.00025152 | 0.00025717 | 0.00041488 |   0.0 |  0.01
Modify  | 3.2851e-05 | 0.0045921  | 0.0097675  |   3.2 |  0.14
Other   |            | 0.3954     |            |       | 11.98

Nlocal:        2776.45 ave        3945 max           0 min
Histogram: 8 4 4 0 4 12 8 2 24 38
Nghost:        3879.49 ave        5427 max         232 min
Histogram: 8 0 8 0 16 0 8 8 16 40
Neighs:        79213.5 ave      114765 max           0 min
Histogram: 8 4 4 0 10 6 8 8 22 34

Total # of neighbors = 8238206
Ave neighs/atom = 28.530485
Neighbor list builds = 2
Dangerous builds = 0
The dot product: 3.50393282583916e-08
Setting atom values ...
  1 settings made for x
  1 settings made for y
  1 settings made for z
Setting up cg style minimization ...
  Unit style    : metal
  Current step  : 6107
Per MPI rank memory allocation (min/avg/max) = 5.441 | 5.816 | 6.074 Mbytes
Step PotEng KinEng TotEng v_fx v_fy v_fz 
    6107   -1152449.3            0   -1152449.3 -0.044605622  -0.11515585  -0.06471655 
    6239   -1152449.3            0   -1152449.3 -3.5511427e-05 1.8491329e-05 2.2158953e-05 
Loop time of 1.54164 on 104 procs for 132 steps with 288751 atoms

99.9% CPU use with 104 MPI tasks x 1 OpenMP threads

Minimization stats:
  Stopping criterion = energy tolerance
  Energy initial, next-to-last, final = 
      -1152449.3324114  -1152449.33458163  -1152449.33458163
  Force two-norm initial, final = 0.20051162 0.00019633149
  Force max component initial, final = 0.11515585 3.5511427e-05
  Final line search alpha, max atom move = 1.0000000 3.5511427e-05
  Iterations, force evaluations = 132 264

MPI task timing breakdown:
Section |  min time  |  avg time  |  max time  |%varavg| %total
---------------------------------------------------------------
Pair    | 0.39795    | 1.1126     | 1.4491     |  28.5 | 72.17
Neigh   | 0          | 0          | 0          |   0.0 |  0.00
Comm    | 0.022622   | 0.25278    | 0.75929    |  41.8 | 16.40
Output  | 0          | 0          | 0          |   0.0 |  0.00
Modify  | 1.6022e-05 | 0.0021855  | 0.004636   |   2.2 |  0.14
Other   |            | 0.1741     |            |       | 11.29

Nlocal:        2776.45 ave        3946 max           0 min
Histogram: 8 4 4 0 4 12 8 3 23 38
Nghost:        3879.51 ave        5428 max         232 min
Histogram: 8 0 8 0 16 0 8 8 16 40
Neighs:        79213.3 ave      114822 max           0 min
Histogram: 8 4 4 0 10 6 8 8 21 35

Total # of neighbors = 8238187
Ave neighs/atom = 28.530419
Neighbor list builds = 0
Dangerous builds = 0
The dot product: -1.44917318462686e-07
Setting atom values ...
  1 settings made for x
  1 settings made for y
  1 settings made for z
Setting up cg style minimization ...
  Unit style    : metal
  Current step  : 6239
Per MPI rank memory allocation (min/avg/max) = 5.441 | 5.816 | 6.074 Mbytes
Step PotEng KinEng TotEng v_fx v_fy v_fz 
    6239   -1152449.3            0   -1152449.3  -0.01054599 -0.055148199 -0.036483399 
    6402   -1152449.3            0   -1152449.3 -1.768314e-05 3.4355828e-07 4.8671724e-06 
Loop time of 1.90236 on 104 procs for 163 steps with 288751 atoms

99.9% CPU use with 104 MPI tasks x 1 OpenMP threads

Minimization stats:
  Stopping criterion = energy tolerance
  Energy initial, next-to-last, final = 
     -1152449.32775513  -1152449.32892493  -1152449.32892493
  Force two-norm initial, final = 0.1556171 0.00022487842
  Force max component initial, final = 0.060993196 2.3313279e-05
  Final line search alpha, max atom move = 1.0000000 2.3313279e-05
  Iterations, force evaluations = 163 326

MPI task timing breakdown:
Section |  min time  |  avg time  |  max time  |%varavg| %total
---------------------------------------------------------------
Pair    | 0.49176    | 1.376      | 1.794      |  31.7 | 72.33
Neigh   | 0          | 0          | 0          |   0.0 |  0.00
Comm    | 0.030383   | 0.31027    | 0.93303    |  46.5 | 16.31
Output  | 0          | 0          | 0          |   0.0 |  0.00
Modify  | 1.9631e-05 | 0.0026984  | 0.0057103  |   2.4 |  0.14
Other   |            | 0.2133     |            |       | 11.21

Nlocal:        2776.45 ave        3946 max           0 min
Histogram: 8 4 4 0 4 12 8 2 24 38
Nghost:        3879.51 ave        5428 max         232 min
Histogram: 8 0 8 0 16 0 8 8 16 40
Neighs:        79213.3 ave      114821 max           0 min
Histogram: 8 4 4 0 10 6 8 8 22 34

Total # of neighbors = 8238187
Ave neighs/atom = 28.530419
Neighbor list builds = 0
Dangerous builds = 0
The dot product: 1.84179464617517e-08
Setting atom values ...
  1 settings made for x
  1 settings made for y
  1 settings made for z
Setting up cg style minimization ...
  Unit style    : metal
  Current step  : 6402
Per MPI rank memory allocation (min/avg/max) = 5.441 | 5.816 | 6.074 Mbytes
Step PotEng KinEng TotEng v_fx v_fy v_fz 
    6402   -1152449.3            0   -1152449.3 -0.0077708425 -0.049651835 -0.033853662 
    6592   -1152449.3            0   -1152449.3 1.1931938e-06 8.3835137e-07 2.9630133e-07 
Loop time of 2.2041 on 104 procs for 190 steps with 288751 atoms

99.9% CPU use with 104 MPI tasks x 1 OpenMP threads

Minimization stats:
  Stopping criterion = energy tolerance
  Energy initial, next-to-last, final = 
     -1152449.32065518  -1152449.32177309  -1152449.32177309
  Force two-norm initial, final = 0.15154943 9.4288634e-05
  Force max component initial, final = 0.059091951 3.8198444e-06
  Final line search alpha, max atom move = 1.0000000 3.8198444e-06
  Iterations, force evaluations = 190 380

MPI task timing breakdown:
Section |  min time  |  avg time  |  max time  |%varavg| %total
---------------------------------------------------------------
Pair    | 0.57111    | 1.5956     | 2.0777     |  34.2 | 72.39
Neigh   | 0          | 0          | 0          |   0.0 |  0.00
Comm    | 0.033673   | 0.3589     | 1.085      |  50.4 | 16.28
Output  | 0          | 0          | 0          |   0.0 |  0.00
Modify  | 2.346e-05  | 0.0031431  | 0.0066852  |   2.6 |  0.14
Other   |            | 0.2464     |            |       | 11.18

Nlocal:        2776.45 ave        3946 max           0 min
Histogram: 8 4 4 0 4 12 8 2 24 38
Nghost:        3879.55 ave        5428 max         232 min
Histogram: 8 0 8 0 16 0 8 8 16 40
Neighs:        79213.3 ave      114808 max           0 min
Histogram: 8 4 4 0 10 6 8 8 22 34

Total # of neighbors = 8238188
Ave neighs/atom = 28.530422
Neighbor list builds = 0
Dangerous builds = 0
The dot product: -4.39702501764859e-09
Setting atom values ...
  1 settings made for x
  1 settings made for y
  1 settings made for z
Setting up cg style minimization ...
  Unit style    : metal
  Current step  : 6592
Per MPI rank memory allocation (min/avg/max) = 5.441 | 5.816 | 6.074 Mbytes
Step PotEng KinEng TotEng v_fx v_fy v_fz 
    6592   -1152449.3            0   -1152449.3 -0.0071800583 -0.048172723 -0.033336562 
    6760   -1152449.3            0   -1152449.3 -1.061191e-05 -8.2810492e-06 -3.310058e-06 
Loop time of 1.96715 on 104 procs for 168 steps with 288751 atoms

99.9% CPU use with 104 MPI tasks x 1 OpenMP threads

Minimization stats:
  Stopping criterion = energy tolerance
  Energy initial, next-to-last, final = 
     -1152449.31201851  -1152449.31311584  -1152449.31311584
  Force two-norm initial, final = 0.1498402 0.00021002882
  Force max component initial, final = 0.057134303 4.4883320e-05
  Final line search alpha, max atom move = 1.0000000 4.4883320e-05
  Iterations, force evaluations = 168 336

MPI task timing breakdown:
Section |  min time  |  avg time  |  max time  |%varavg| %total
---------------------------------------------------------------
Pair    | 0.50786    | 1.4186     | 1.8406     |  32.0 | 72.12
Neigh   | 0          | 0          | 0          |   0.0 |  0.00
Comm    | 0.030681   | 0.32152    | 0.96616    |  47.2 | 16.34
Output  | 0          | 0          | 0          |   0.0 |  0.00
Modify  | 2.0521e-05 | 0.0027826  | 0.0059238  |   2.5 |  0.14
Other   |            | 0.2242     |            |       | 11.40

Nlocal:        2776.45 ave        3946 max           0 min
Histogram: 8 4 4 0 4 12 8 2 24 38
Nghost:        3879.54 ave        5428 max         232 min
Histogram: 8 0 8 0 16 0 8 8 16 40
Neighs:        79213.4 ave      114801 max           0 min
Histogram: 8 4 4 0 10 6 8 8 22 34

Total # of neighbors = 8238189
Ave neighs/atom = 28.530426
Neighbor list builds = 0
Dangerous builds = 0
The dot product: 3.98758495709292e-08
Setting atom values ...
  1 settings made for x
  1 settings made for y
  1 settings made for z
Setting up cg style minimization ...
  Unit style    : metal
  Current step  : 6760
Per MPI rank memory allocation (min/avg/max) = 5.441 | 5.816 | 6.074 Mbytes
Step PotEng KinEng TotEng v_fx v_fy v_fz 
    6760   -1152449.3            0   -1152449.3 -0.0063844034 -0.046997913 -0.033045274 
    6935   -1152449.3            0   -1152449.3 1.9420876e-05 -2.6487997e-05 -2.4546578e-05 
Loop time of 2.03594 on 104 procs for 175 steps with 288751 atoms

99.9% CPU use with 104 MPI tasks x 1 OpenMP threads

Minimization stats:
  Stopping criterion = energy tolerance
  Energy initial, next-to-last, final = 
     -1152449.30184732  -1152449.30293052  -1152449.30293052
  Force two-norm initial, final = 0.14854112 0.00016292598
  Force max component initial, final = 0.055154265 3.5080923e-05
  Final line search alpha, max atom move = 1.0000000 3.5080923e-05
  Iterations, force evaluations = 175 350

MPI task timing breakdown:
Section |  min time  |  avg time  |  max time  |%varavg| %total
---------------------------------------------------------------
Pair    | 0.5295     | 1.4686     | 1.9145     |  32.7 | 72.13
Neigh   | 0          | 0          | 0          |   0.0 |  0.00
Comm    | 0.031455   | 0.33221    | 0.99021    |  47.8 | 16.32
Output  | 0          | 0          | 0          |   0.0 |  0.00
Modify  | 2.0993e-05 | 0.0028936  | 0.006154   |   2.5 |  0.14
Other   |            | 0.2323     |            |       | 11.41

Nlocal:        2776.45 ave        3945 max           0 min
Histogram: 8 4 4 0 4 12 8 2 24 38
Nghost:        3879.51 ave        5428 max         232 min
Histogram: 8 0 8 0 16 0 8 8 16 40
Neighs:        79213.4 ave      114765 max           0 min
Histogram: 8 4 4 0 10 6 8 8 22 34

Total # of neighbors = 8238189
Ave neighs/atom = 28.530426
Neighbor list builds = 0
Dangerous builds = 0
The dot product: 1.00993771332509e-07
Setting atom values ...
  1 settings made for x
  1 settings made for y
  1 settings made for z
Setting up cg style minimization ...
  Unit style    : metal
  Current step  : 6935
Per MPI rank memory allocation (min/avg/max) = 5.441 | 5.816 | 6.074 Mbytes
Step PotEng KinEng TotEng v_fx v_fy v_fz 
    6935   -1152449.3            0   -1152449.3 -0.0051435771 -0.045840725 -0.032842153 
    7000   -1152449.3            0   -1152449.3 0.00045928027 -1.1571916e-05 -0.00012649053 
    7109   -1152449.3            0   -1152449.3 -4.5694098e-06 2.1187394e-07 1.3305599e-06 
Loop time of 2.0495 on 104 procs for 174 steps with 288751 atoms

99.9% CPU use with 104 MPI tasks x 1 OpenMP threads

Minimization stats:
  Stopping criterion = energy tolerance
  Energy initial, next-to-last, final = 
     -1152449.29012134  -1152449.29119208  -1152449.29119208
  Force two-norm initial, final = 0.1474869 0.00017736178
  Force max component initial, final = 0.053202491 2.9632805e-05
  Final line search alpha, max atom move = 1.0000000 2.9632805e-05
  Iterations, force evaluations = 174 348

MPI task timing breakdown:
Section |  min time  |  avg time  |  max time  |%varavg| %total
---------------------------------------------------------------
Pair    | 0.5278     | 1.4753     | 1.9324     |  32.9 | 71.98
Neigh   | 0          | 0          | 0          |   0.0 |  0.00
Comm    | 0.032833   | 0.33578    | 1.0032     |  47.9 | 16.38
Output  | 0.00014605 | 0.00015016 | 0.00024801 |   0.0 |  0.01
Modify  | 2.1118e-05 | 0.0028786  | 0.0060884  |   2.5 |  0.14
Other   |            | 0.2354     |            |       | 11.49

Nlocal:        2776.45 ave        3945 max           0 min
Histogram: 8 4 4 0 4 12 8 2 24 38
Nghost:        3879.47 ave        5427 max         232 min
Histogram: 8 0 8 0 16 0 8 8 16 40
Neighs:        79213.4 ave      114765 max           0 min
Histogram: 8 4 4 0 10 6 8 8 22 34

Total # of neighbors = 8238190
Ave neighs/atom = 28.530429
Neighbor list builds = 0
Dangerous builds = 0
The dot product: 1.94177360110726e-10
Setting atom values ...
  1 settings made for x
  1 settings made for y
  1 settings made for z
Setting up cg style minimization ...
  Unit style    : metal
  Current step  : 7109
Per MPI rank memory allocation (min/avg/max) = 5.441 | 5.816 | 6.074 Mbytes
Step PotEng KinEng TotEng v_fx v_fy v_fz 
    7109   -1152449.3            0   -1152449.3 -0.0035433433 -0.044741976  -0.03274087 
    7286   -1152449.3            0   -1152449.3 1.185265e-05 1.6191599e-06 -1.81946e-06 
Loop time of 2.05561 on 104 procs for 177 steps with 288751 atoms

99.9% CPU use with 104 MPI tasks x 1 OpenMP threads

Minimization stats:
  Stopping criterion = energy tolerance
  Energy initial, next-to-last, final = 
      -1152449.2768186  -1152449.27787821  -1152449.27787821
  Force two-norm initial, final = 0.14660628 0.00016403737
  Force max component initial, final = 0.05121036 2.3577578e-05
  Final line search alpha, max atom move = 1.0000000 2.3577578e-05
  Iterations, force evaluations = 177 354

MPI task timing breakdown:
Section |  min time  |  avg time  |  max time  |%varavg| %total
---------------------------------------------------------------
Pair    | 0.53448    | 1.4848     | 1.9355     |  32.9 | 72.23
Neigh   | 0          | 0          | 0          |   0.0 |  0.00
Comm    | 0.030641   | 0.33696    | 1.0143     |  48.2 | 16.39
Output  | 0          | 0          | 0          |   0.0 |  0.00
Modify  | 2.104e-05  | 0.0029245  | 0.0062006  |   2.5 |  0.14
Other   |            | 0.231      |            |       | 11.24

Nlocal:        2776.45 ave        3945 max           0 min
Histogram: 8 4 4 0 4 12 8 2 24 38
Nghost:        3879.47 ave        5427 max         232 min
Histogram: 8 0 8 0 16 0 8 8 16 40
Neighs:        79213.4 ave      114770 max           0 min
Histogram: 8 4 4 0 10 6 8 8 22 34

Total # of neighbors = 8238189
Ave neighs/atom = 28.530426
Neighbor list builds = 0
Dangerous builds = 0
The dot product: -7.09004011089438e-09
Setting atom values ...
  1 settings made for x
  1 settings made for y
  1 settings made for z
Setting up cg style minimization ...
  Unit style    : metal
  Current step  : 7286
Per MPI rank memory allocation (min/avg/max) = 5.441 | 5.816 | 6.074 Mbytes
Step PotEng KinEng TotEng v_fx v_fy v_fz 
    7286   -1152449.3            0   -1152449.3 -0.0015585978  -0.04388519 -0.032891924 
    7476   -1152449.3            0   -1152449.3 -6.8927895e-06 -3.7819985e-06 -1.1035232e-06 
Loop time of 2.21452 on 104 procs for 190 steps with 288751 atoms

99.9% CPU use with 104 MPI tasks x 1 OpenMP threads

Minimization stats:
  Stopping criterion = energy tolerance
  Energy initial, next-to-last, final = 
     -1152449.26192322  -1152449.26297235  -1152449.26297235
  Force two-norm initial, final = 0.14600327 0.00011287993
  Force max component initial, final = 0.049234035 6.8927895e-06
  Final line search alpha, max atom move = 1.0000000 6.8927895e-06
  Iterations, force evaluations = 190 380

MPI task timing breakdown:
Section |  min time  |  avg time  |  max time  |%varavg| %total
---------------------------------------------------------------
Pair    | 0.57406    | 1.6056     | 2.0891     |  34.2 | 72.51
Neigh   | 0          | 0          | 0          |   0.0 |  0.00
Comm    | 0.033522   | 0.36261    | 1.0918     |  50.2 | 16.37
Output  | 0          | 0          | 0          |   0.0 |  0.00
Modify  | 2.3111e-05 | 0.0031374  | 0.006653   |   2.6 |  0.14
Other   |            | 0.2431     |            |       | 10.98

Nlocal:        2776.45 ave        3945 max           0 min
Histogram: 8 4 4 0 4 12 8 2 24 38
Nghost:        3879.51 ave        5428 max         232 min
Histogram: 8 0 8 0 16 0 8 8 16 40
Neighs:        79213.4 ave      114767 max           0 min
Histogram: 8 4 4 0 10 6 8 8 22 34

Total # of neighbors = 8238189
Ave neighs/atom = 28.530426
Neighbor list builds = 0
Dangerous builds = 0
The dot product: 1.37820317997764e-08
Setting atom values ...
  1 settings made for x
  1 settings made for y
  1 settings made for z
Setting up cg style minimization ...
  Unit style    : metal
  Current step  : 7476
Per MPI rank memory allocation (min/avg/max) = 5.441 | 5.816 | 6.074 Mbytes
Step PotEng KinEng TotEng v_fx v_fy v_fz 
    7476   -1152449.2            0   -1152449.2 0.00060802216 -0.043404187 -0.033356091 
    7676   -1152449.2            0   -1152449.2 3.7553208e-06 -3.993794e-06 -4.0174806e-06 
Loop time of 2.34135 on 104 procs for 200 steps with 288751 atoms

99.9% CPU use with 104 MPI tasks x 1 OpenMP threads

Minimization stats:
  Stopping criterion = energy tolerance
  Energy initial, next-to-last, final = 
     -1152449.24542539  -1152449.24646142  -1152449.24646142
  Force two-norm initial, final = 0.14568775 9.1133579e-05
  Force max component initial, final = 0.04720954 6.6820741e-06
  Final line search alpha, max atom move = 1.0000000 6.6820741e-06
  Iterations, force evaluations = 200 400

MPI task timing breakdown:
Section |  min time  |  avg time  |  max time  |%varavg| %total
---------------------------------------------------------------
Pair    | 0.60696    | 1.6807     | 2.196      |  35.0 | 71.78
Neigh   | 0          | 0          | 0          |   0.0 |  0.00
Comm    | 0.035694   | 0.38067    | 1.1346     |  51.3 | 16.26
Output  | 0          | 0          | 0          |   0.0 |  0.00
Modify  | 2.4224e-05 | 0.0033005  | 0.0070138  |   2.7 |  0.14
Other   |            | 0.2767     |            |       | 11.82

Nlocal:        2776.45 ave        3945 max           0 min
Histogram: 8 4 4 0 4 12 8 2 24 38
Nghost:        3879.48 ave        5428 max         232 min
Histogram: 8 0 8 0 16 0 8 8 16 40
Neighs:        79213.3 ave      114769 max           0 min
Histogram: 8 4 4 0 10 6 8 8 22 34

Total # of neighbors = 8238188
Ave neighs/atom = 28.530422
Neighbor list builds = 0
Dangerous builds = 0
The dot product: 1.6547346538141e-08
Setting atom values ...
  1 settings made for x
  1 settings made for y
  1 settings made for z
Setting up cg style minimization ...
  Unit style    : metal
  Current step  : 7676
Per MPI rank memory allocation (min/avg/max) = 5.441 | 5.816 | 6.074 Mbytes
Step PotEng KinEng TotEng v_fx v_fy v_fz 
    7676   -1152449.2            0   -1152449.2  0.003059394 -0.043605869 -0.034411682 
    7856   -1152449.2            0   -1152449.2 8.1204266e-06 -4.2040716e-05 -3.4504164e-05 
Loop time of 2.10843 on 104 procs for 180 steps with 288751 atoms

99.9% CPU use with 104 MPI tasks x 1 OpenMP threads

Minimization stats:
  Stopping criterion = energy tolerance
  Energy initial, next-to-last, final = 
     -1152449.22731936  -1152449.22834075  -1152449.22834075
  Force two-norm initial, final = 0.14576658 0.00018086768
  Force max component initial, final = 0.048066723 4.2040716e-05
  Final line search alpha, max atom move = 1.0000000 4.2040716e-05
  Iterations, force evaluations = 180 360

MPI task timing breakdown:
Section |  min time  |  avg time  |  max time  |%varavg| %total
---------------------------------------------------------------
Pair    | 0.54505    | 1.5186     | 1.9901     |  33.2 | 72.03
Neigh   | 0          | 0          | 0          |   0.0 |  0.00
Comm    | 0.031433   | 0.34775    | 1.048      |  48.5 | 16.49
Output  | 0          | 0          | 0          |   0.0 |  0.00
Modify  | 2.2395e-05 | 0.0029781  | 0.0063368  |   2.6 |  0.14
Other   |            | 0.2391     |            |       | 11.34

Nlocal:        2776.45 ave        3945 max           0 min
Histogram: 8 4 4 0 4 12 8 2 24 38
Nghost:        3879.43 ave        5427 max         232 min
Histogram: 8 0 8 0 16 0 8 8 16 40
Neighs:        79213.4 ave      114770 max           0 min
Histogram: 8 4 4 0 10 6 8 8 22 34

Total # of neighbors = 8238189
Ave neighs/atom = 28.530426
Neighbor list builds = 0
Dangerous builds = 0
The dot product: 1.75579581853774e-07
Setting atom values ...
  1 settings made for x
  1 settings made for y
  1 settings made for z
Setting up cg style minimization ...
  Unit style    : metal
  Current step  : 7856
Per MPI rank memory allocation (min/avg/max) = 5.441 | 5.816 | 6.074 Mbytes
Step PotEng KinEng TotEng v_fx v_fy v_fz 
    7856   -1152449.2            0   -1152449.2 0.0058047926 -0.044884063  -0.03639374 
    8000   -1152449.2            0   -1152449.2 -7.4661077e-05 1.6501185e-05 3.2053547e-05 
    8037   -1152449.2            0   -1152449.2 -7.8303818e-06 4.2377995e-05 3.4966706e-05 
Loop time of 2.10332 on 104 procs for 181 steps with 288751 atoms

99.9% CPU use with 104 MPI tasks x 1 OpenMP threads

Minimization stats:
  Stopping criterion = energy tolerance
  Energy initial, next-to-last, final = 
     -1152449.20761942  -1152449.20862628  -1152449.20862628
  Force two-norm initial, final = 0.14649774 0.0001783673
  Force max component initial, final = 0.051303714 4.2377995e-05
  Final line search alpha, max atom move = 1.0000000 4.2377995e-05
  Iterations, force evaluations = 181 362

MPI task timing breakdown:
Section |  min time  |  avg time  |  max time  |%varavg| %total
---------------------------------------------------------------
Pair    | 0.54498    | 1.5231     | 1.9836     |  33.4 | 72.41
Neigh   | 0          | 0          | 0          |   0.0 |  0.00
Comm    | 0.032594   | 0.34326    | 1.0336     |  49.1 | 16.32
Output  | 0.00015132 | 0.00016095 | 0.00030522 |   0.0 |  0.01
Modify  | 2.188e-05  | 0.0029952  | 0.0063503  |   2.6 |  0.14
Other   |            | 0.2338     |            |       | 11.12

Nlocal:        2776.45 ave        3945 max           0 min
Histogram: 8 4 4 0 4 12 8 2 24 38
Nghost:        3879.45 ave        5427 max         232 min
Histogram: 8 0 8 0 16 0 8 8 16 40
Neighs:        79213.4 ave      114769 max           0 min
Histogram: 8 4 4 0 10 6 8 8 22 34

Total # of neighbors = 8238190
Ave neighs/atom = 28.530429
Neighbor list builds = 0
Dangerous builds = 0
The dot product: -1.98720066588089e-07
Setting atom values ...
  1 settings made for x
  1 settings made for y
  1 settings made for z
Setting up cg style minimization ...
  Unit style    : metal
  Current step  : 8037
Per MPI rank memory allocation (min/avg/max) = 5.441 | 5.816 | 6.074 Mbytes
Step PotEng KinEng TotEng v_fx v_fy v_fz 
    8037   -1152449.2            0   -1152449.2  0.008797698 -0.047595291 -0.039614852 
    8220   -1152449.2            0   -1152449.2 2.0722922e-05 -2.3118443e-05 -2.3496327e-05 
Loop time of 2.13468 on 104 procs for 183 steps with 288751 atoms

99.9% CPU use with 104 MPI tasks x 1 OpenMP threads

Minimization stats:
  Stopping criterion = energy tolerance
  Energy initial, next-to-last, final = 
     -1152449.18637526  -1152449.18737189  -1152449.18737189
  Force two-norm initial, final = 0.14808956 0.00016301358
  Force max component initial, final = 0.054509875 3.8064899e-05
  Final line search alpha, max atom move = 1.0000000 3.8064899e-05
  Iterations, force evaluations = 183 366

MPI task timing breakdown:
Section |  min time  |  avg time  |  max time  |%varavg| %total
---------------------------------------------------------------
Pair    | 0.55088    | 1.5461     | 2.0115     |  33.6 | 72.43
Neigh   | 0          | 0          | 0          |   0.0 |  0.00
Comm    | 0.033003   | 0.34745    | 1.0539     |  49.4 | 16.28
Output  | 0          | 0          | 0          |   0.0 |  0.00
Modify  | 2.2326e-05 | 0.0030261  | 0.0064125  |   2.6 |  0.14
Other   |            | 0.2381     |            |       | 11.15

Nlocal:        2776.45 ave        3945 max           0 min
Histogram: 8 4 4 0 4 12 8 2 24 38
Nghost:        3879.45 ave        5427 max         232 min
Histogram: 8 0 8 0 16 0 8 8 16 40
Neighs:        79213.4 ave      114769 max           0 min
Histogram: 8 4 4 0 10 6 8 8 22 34

Total # of neighbors = 8238194
Ave neighs/atom = 28.530443
Neighbor list builds = 0
Dangerous builds = 0
The dot product: 1.55055550455316e-07
Setting atom values ...
  1 settings made for x
  1 settings made for y
  1 settings made for z
Setting up cg style minimization ...
  Unit style    : metal
  Current step  : 8220
Per MPI rank memory allocation (min/avg/max) = 5.441 | 5.816 | 6.074 Mbytes
Step PotEng KinEng TotEng v_fx v_fy v_fz 
    8220   -1152449.2            0   -1152449.2  0.012120016 -0.053059087  -0.04523196 
[...]
Histogram: 8 4 4 0 4 12 8 4 26 34
Nghost:        3879.12 ave        5426 max         232 min
Histogram: 8 0 8 0 16 0 8 8 16 40
Neighs:        79213.4 ave      115407 max           0 min
Histogram: 8 4 4 0 10 6 8 8 24 32

Total # of neighbors = 8238191
Ave neighs/atom = 28.530433
Neighbor list builds = 0
Dangerous builds = 0
The dot product: -1.19987361439929e-07
Setting atom values ...
  1 settings made for x
  1 settings made for y
  1 settings made for z
Setting up cg style minimization ...
  Unit style    : metal
  Current step  : 16373
Per MPI rank memory allocation (min/avg/max) = 5.441 | 5.816 | 6.074 Mbytes
Step PotEng KinEng TotEng v_fx v_fy v_fz 
   16373   -1152449.2            0   -1152449.2 -0.033562636    0.0357979  0.065529707 
   16624   -1152449.3            0   -1152449.3 8.0307482e-06 4.703526e-06 -6.2225453e-07 
Loop time of 2.97341 on 104 procs for 251 steps with 288751 atoms

99.9% CPU use with 104 MPI tasks x 1 OpenMP threads

Minimization stats:
  Stopping criterion = energy tolerance
  Energy initial, next-to-last, final = 
     -1152449.17919312  -1152449.25559091  -1152449.25559091
  Force two-norm initial, final = 0.15587992 0.00015733111
  Force max component initial, final = 0.065529707 2.0554753e-05
  Final line search alpha, max atom move = 1.0000000 2.0554753e-05
  Iterations, force evaluations = 251 502

MPI task timing breakdown:
Section |  min time  |  avg time  |  max time  |%varavg| %total
---------------------------------------------------------------
Pair    | 0.76153    | 2.1113     | 2.7662     |  39.1 | 71.01
Neigh   | 2.0027e-05 | 0.0058853  | 0.0085721  |   3.2 |  0.20
Comm    | 0.047082   | 0.48571    | 1.4271     |  56.1 | 16.34
Output  | 0          | 0          | 0          |   0.0 |  0.00
Modify  | 2.9084e-05 | 0.0041438  | 0.0088188  |   3.0 |  0.14
Other   |            | 0.3663     |            |       | 12.32

Nlocal:        2776.45 ave        3960 max           0 min
Histogram: 8 4 4 0 4 12 8 4 26 34
Nghost:        3879.14 ave        5426 max         232 min
Histogram: 8 0 8 0 16 0 8 8 16 40
Neighs:        79213.4 ave      115408 max           0 min
Histogram: 8 4 4 0 10 6 8 8 24 32

Total # of neighbors = 8238192
Ave neighs/atom = 28.530436
Neighbor list builds = 2
Dangerous builds = 0
The dot product: -6.16217269017353e-07
Setting atom values ...
  1 settings made for x
  1 settings made for y
  1 settings made for z
Setting up cg style minimization ...
  Unit style    : metal
  Current step  : 16624
Per MPI rank memory allocation (min/avg/max) = 5.441 | 5.816 | 6.074 Mbytes
Step PotEng KinEng TotEng v_fx v_fy v_fz 
   16624   -1152449.3            0   -1152449.3   0.03462824  0.028888959 0.0061250224 
   16737   -1152449.3            0   -1152449.3 -2.6888464e-05 2.3646437e-05 5.502615e-05 
Loop time of 1.31836 on 104 procs for 113 steps with 288751 atoms

99.9% CPU use with 104 MPI tasks x 1 OpenMP threads

Minimization stats:
  Stopping criterion = energy tolerance
  Energy initial, next-to-last, final = 
     -1152449.25705723   -1152449.2582492   -1152449.2582492
  Force two-norm initial, final = 0.13925558 0.00020163596
  Force max component initial, final = 0.058699132 5.5026150e-05
  Final line search alpha, max atom move = 1.0000000 5.5026150e-05
  Iterations, force evaluations = 113 226

MPI task timing breakdown:
Section |  min time  |  avg time  |  max time  |%varavg| %total
---------------------------------------------------------------
Pair    | 0.33987    | 0.95276    | 1.2364     |  26.4 | 72.27
Neigh   | 0          | 0          | 0          |   0.0 |  0.00
Comm    | 0.022473   | 0.21783    | 0.64933    |  38.4 | 16.52
Output  | 0          | 0          | 0          |   0.0 |  0.00
Modify  | 1.2659e-05 | 0.0018735  | 0.0039843  |   2.0 |  0.14
Other   |            | 0.1459     |            |       | 11.07

Nlocal:        2776.45 ave        3958 max           0 min
Histogram: 8 4 4 0 4 12 8 2 28 34
Nghost:        3879.06 ave        5426 max         232 min
Histogram: 8 0 8 0 16 0 8 8 16 40
Neighs:        79213.3 ave      115362 max           0 min
Histogram: 8 4 4 0 10 6 8 8 24 32

Total # of neighbors = 8238181
Ave neighs/atom = 28.530398
Neighbor list builds = 0
Dangerous builds = 0
The dot product: 4.60302279304525e-07
Setting atom values ...
  1 settings made for x
  1 settings made for y
  1 settings made for z
Setting up cg style minimization ...
  Unit style    : metal
  Current step  : 16737
Per MPI rank memory allocation (min/avg/max) = 5.441 | 5.816 | 6.074 Mbytes
Step PotEng KinEng TotEng v_fx v_fy v_fz 
   16737   -1152449.3            0   -1152449.3  0.042741479  0.044186367  0.019629108 
   16963   -1152449.3            0   -1152449.3  1.29867e-06 -2.1518556e-05 -2.9525365e-05 
Loop time of 2.63836 on 104 procs for 226 steps with 288751 atoms

99.9% CPU use with 104 MPI tasks x 1 OpenMP threads

Minimization stats:
  Stopping criterion = energy tolerance
  Energy initial, next-to-last, final = 
     -1152449.26026608  -1152449.29998066  -1152449.29998066
  Force two-norm initial, final = 0.15139598 0.00020077464
  Force max component initial, final = 0.059442759 2.9525365e-05
  Final line search alpha, max atom move = 1.0000000 2.9525365e-05
  Iterations, force evaluations = 226 451

MPI task timing breakdown:
Section |  min time  |  avg time  |  max time  |%varavg| %total
---------------------------------------------------------------
Pair    | 0.67861    | 1.8951     | 2.4787     |  37.2 | 71.83
Neigh   | 1.0285e-05 | 0.0029483  | 0.0043793  |   2.2 |  0.11
Comm    | 0.039239   | 0.43144    | 1.2875     |  54.1 | 16.35
Output  | 0          | 0          | 0          |   0.0 |  0.00
Modify  | 2.6086e-05 | 0.0037246  | 0.0079288  |   2.9 |  0.14
Other   |            | 0.3051     |            |       | 11.57

Nlocal:        2776.45 ave        3958 max           0 min
Histogram: 8 4 4 0 4 12 8 2 28 34
Nghost:        3879.08 ave        5426 max         232 min
Histogram: 8 0 8 0 16 0 8 8 16 40
Neighs:        79213.3 ave      115362 max           0 min
Histogram: 8 4 4 0 10 6 8 8 24 32

Total # of neighbors = 8238185
Ave neighs/atom = 28.530412
Neighbor list builds = 1
Dangerous builds = 0
The dot product: -2.78054296808749e-06
Setting atom values ...
  1 settings made for x
  1 settings made for y
  1 settings made for z
Setting up cg style minimization ...
  Unit style    : metal
  Current step  : 16963
Per MPI rank memory allocation (min/avg/max) = 5.441 | 5.816 | 6.074 Mbytes
Step PotEng KinEng TotEng v_fx v_fy v_fz 
   16963   -1152449.3            0   -1152449.3  0.024047267 0.0046888353 -0.014949183 
   17000   -1152449.3            0   -1152449.3 -0.00026862171 -7.2773811e-05 0.00013770146 
   17182   -1152449.3            0   -1152449.3 -2.2805067e-06 -2.5633585e-07 1.6881293e-06 
Loop time of 2.53986 on 104 procs for 219 steps with 288751 atoms

99.9% CPU use with 104 MPI tasks x 1 OpenMP threads

Minimization stats:
  Stopping criterion = energy tolerance
  Energy initial, next-to-last, final = 
     -1152449.31072094  -1152449.31171934  -1152449.31171934
  Force two-norm initial, final = 0.13208638 3.1668755e-05
  Force max component initial, final = 0.053780516 3.1132350e-06
  Final line search alpha, max atom move = 1.0000000 3.1132350e-06
  Iterations, force evaluations = 219 438

MPI task timing breakdown:
Section |  min time  |  avg time  |  max time  |%varavg| %total
---------------------------------------------------------------
Pair    | 0.65522    | 1.8393     | 2.3841     |  36.8 | 72.42
Neigh   | 0          | 0          | 0          |   0.0 |  0.00
Comm    | 0.040638   | 0.41789    | 1.2468     |  53.5 | 16.45
Output  | 0.00015411 | 0.00016315 | 0.00028299 |   0.0 |  0.01
Modify  | 2.42e-05   | 0.0036156  | 0.0077054  |   2.8 |  0.14
Other   |            | 0.2789     |            |       | 10.98

Nlocal:        2776.45 ave        3949 max           0 min
Histogram: 8 4 4 0 4 12 8 1 27 36
Nghost:        3879.10 ave        5424 max         232 min
Histogram: 8 0 8 0 16 0 8 8 16 40
Neighs:        79213.4 ave      115094 max           0 min
Histogram: 8 4 4 0 10 6 8 8 24 32

Total # of neighbors = 8238190
Ave neighs/atom = 28.530429
Neighbor list builds = 0
Dangerous builds = 0
The dot product: -1.73209255881841e-09
Setting atom values ...
  1 settings made for x
  1 settings made for y
  1 settings made for z
Setting up cg style minimization ...
  Unit style    : metal
  Current step  : 17182
Per MPI rank memory allocation (min/avg/max) = 5.441 | 5.816 | 6.074 Mbytes
Step PotEng KinEng TotEng v_fx v_fy v_fz 
   17182   -1152449.3            0   -1152449.3  0.040552481  0.024825692 -0.001002458 
   17369   -1152449.3            0   -1152449.3 4.4665938e-06 4.5719051e-06 2.5177661e-06 
Loop time of 2.16518 on 104 procs for 187 steps with 288751 atoms

99.9% CPU use with 104 MPI tasks x 1 OpenMP threads

Minimization stats:
  Stopping criterion = energy tolerance
  Energy initial, next-to-last, final = 
     -1152449.32086473  -1152449.32187165  -1152449.32187165
  Force two-norm initial, final = 0.13884464 0.00010347061
  Force max component initial, final = 0.056098433 2.3094842e-05
  Final line search alpha, max atom move = 1.0000000 2.3094842e-05
  Iterations, force evaluations = 187 374

MPI task timing breakdown:
Section |  min time  |  avg time  |  max time  |%varavg| %total
---------------------------------------------------------------
Pair    | 0.56205    | 1.5715     | 2.0411     |  33.9 | 72.58
Neigh   | 0          | 0          | 0          |   0.0 |  0.00
Comm    | 0.032855   | 0.35597    | 1.0724     |  49.6 | 16.44
Output  | 0          | 0          | 0          |   0.0 |  0.00
Modify  | 2.1373e-05 | 0.0030937  | 0.006573   |   2.6 |  0.14
Other   |            | 0.2346     |            |       | 10.84

Nlocal:        2776.45 ave        3951 max           0 min
Histogram: 8 4 4 0 4 12 8 1 29 34
Nghost:        3879.07 ave        5424 max         232 min
Histogram: 8 0 8 0 16 0 8 8 16 40
Neighs:        79213.4 ave      115157 max           0 min
Histogram: 8 4 4 0 10 6 8 8 24 32

Total # of neighbors = 8238190
Ave neighs/atom = 28.530429
Neighbor list builds = 0
Dangerous builds = 0
The dot product: 1.70823862077624e-08
Setting atom values ...
  1 settings made for x
  1 settings made for y
  1 settings made for z
Setting up cg style minimization ...
  Unit style    : metal
  Current step  : 17369
Per MPI rank memory allocation (min/avg/max) = 5.441 | 5.816 | 6.074 Mbytes
Step PotEng KinEng TotEng v_fx v_fy v_fz 
   17369   -1152449.3            0   -1152449.3  0.041891565  0.024883176 -0.0020046565 
   17543   -1152449.3            0   -1152449.3 -1.9842043e-05 -1.6297842e-05 -5.5093961e-06 
Loop time of 2.04143 on 104 procs for 174 steps with 288751 atoms

99.9% CPU use with 104 MPI tasks x 1 OpenMP threads

Minimization stats:
  Stopping criterion = energy tolerance
  Energy initial, next-to-last, final = 
     -1152449.32949328  -1152449.33051627  -1152449.33051627
  Force two-norm initial, final = 0.14007931 0.00016231462
  Force max component initial, final = 0.057853478 1.9902428e-05
  Final line search alpha, max atom move = 1.0000000 1.9902428e-05
  Iterations, force evaluations = 174 348

MPI task timing breakdown:
Section |  min time  |  avg time  |  max time  |%varavg| %total
---------------------------------------------------------------
Pair    | 0.52175    | 1.4657     | 1.9142     |  32.8 | 71.80
Neigh   | 0          | 0          | 0          |   0.0 |  0.00
Comm    | 0.02969    | 0.33476    | 0.9987     |  47.7 | 16.40
Output  | 0          | 0          | 0          |   0.0 |  0.00
Modify  | 2.0158e-05 | 0.0028754  | 0.0061185  |   2.5 |  0.14
Other   |            | 0.2381     |            |       | 11.66

Nlocal:        2776.45 ave        3956 max           0 min
Histogram: 8 4 4 0 4 12 8 0 30 34
Nghost:        3879.08 ave        5424 max         232 min
Histogram: 8 0 8 0 16 0 8 8 16 40
Neighs:        79213.4 ave      115302 max           0 min
Histogram: 8 4 4 0 10 6 8 8 24 32

Total # of neighbors = 8238191
Ave neighs/atom = 28.530433
Neighbor list builds = 0
Dangerous builds = 0
The dot product: -6.90132489508397e-08
Setting atom values ...
  1 settings made for x
  1 settings made for y
  1 settings made for z
Setting up cg style minimization ...
  Unit style    : metal
  Current step  : 17543
Per MPI rank memory allocation (min/avg/max) = 5.441 | 5.816 | 6.074 Mbytes
Step PotEng KinEng TotEng v_fx v_fy v_fz 
   17543   -1152449.3            0   -1152449.3  0.042973609  0.025713627 -0.0016636113 
   17724   -1152449.3            0   -1152449.3 -5.4724927e-06 -6.4573951e-06 -4.3474516e-06 
Loop time of 2.14258 on 104 procs for 181 steps with 288751 atoms

99.9% CPU use with 104 MPI tasks x 1 OpenMP threads

Minimization stats:
  Stopping criterion = energy tolerance
  Energy initial, next-to-last, final = 
     -1152449.33662742  -1152449.33766584  -1152449.33766584
  Force two-norm initial, final = 0.14116134 0.00011771725
  Force max component initial, final = 0.05955758 9.7723077e-06
  Final line search alpha, max atom move = 1.0000000 9.7723077e-06
  Iterations, force evaluations = 181 362

MPI task timing breakdown:
Section |  min time  |  avg time  |  max time  |%varavg| %total
---------------------------------------------------------------
Pair    | 0.54391    | 1.5238     | 2.0004     |  33.4 | 71.12
Neigh   | 0          | 0          | 0          |   0.0 |  0.00
Comm    | 0.032271   | 0.34949    | 1.0394     |  48.2 | 16.31
Output  | 0          | 0          | 0          |   0.0 |  0.00
Modify  | 2.0001e-05 | 0.0029944  | 0.0063802  |   2.6 |  0.14
Other   |            | 0.2663     |            |       | 12.43

Nlocal:        2776.45 ave        3956 max           0 min
Histogram: 8 4 4 0 4 12 8 0 30 34
Nghost:        3879.00 ave        5424 max         232 min
Histogram: 8 0 8 0 16 0 8 8 16 40
Neighs:        79213.4 ave      115301 max           0 min
Histogram: 8 4 4 0 10 6 8 8 24 32

Total # of neighbors = 8238191
Ave neighs/atom = 28.530433
Neighbor list builds = 0
Dangerous builds = 0
The dot product: -2.22674398452753e-08
Setting atom values ...
  1 settings made for x
  1 settings made for y
  1 settings made for z
Setting up cg style minimization ...
  Unit style    : metal
  Current step  : 17724
Per MPI rank memory allocation (min/avg/max) = 5.441 | 5.816 | 6.074 Mbytes
Step PotEng KinEng TotEng v_fx v_fy v_fz 
   17724   -1152449.3            0   -1152449.3  0.043125832  0.026328293 -0.00078749485 
   17882   -1152449.3            0   -1152449.3 -5.3375812e-05 1.7595631e-05 7.2902822e-05 
Loop time of 1.85066 on 104 procs for 158 steps with 288751 atoms

99.9% CPU use with 104 MPI tasks x 1 OpenMP threads

Minimization stats:
  Stopping criterion = energy tolerance
  Energy initial, next-to-last, final = 
     -1152449.34227887  -1152449.34333042  -1152449.34333042
  Force two-norm initial, final = 0.14183058 0.00027721693
  Force max component initial, final = 0.061223073 7.2902822e-05
  Final line search alpha, max atom move = 1.0000000 7.2902822e-05
  Iterations, force evaluations = 158 316

MPI task timing breakdown:
Section |  min time  |  avg time  |  max time  |%varavg| %total
---------------------------------------------------------------
Pair    | 0.47767    | 1.3319     | 1.7403     |  31.2 | 71.97
Neigh   | 0          | 0          | 0          |   0.0 |  0.00
Comm    | 0.027329   | 0.30705    | 0.91457    |  45.1 | 16.59
Output  | 0          | 0          | 0          |   0.0 |  0.00
Modify  | 1.8809e-05 | 0.0026164  | 0.0056054  |   2.4 |  0.14
Other   |            | 0.2091     |            |       | 11.30

Nlocal:        2776.45 ave        3957 max           0 min
Histogram: 8 4 4 0 4 12 8 2 28 34
Nghost:        3879.06 ave        5424 max         232 min
Histogram: 8 0 8 0 16 0 8 8 16 40
Neighs:        79213.4 ave      115336 max           0 min
Histogram: 8 4 4 0 10 6 8 8 24 32

Total # of neighbors = 8238191
Ave neighs/atom = 28.530433
Neighbor list builds = 0
Dangerous builds = 0
The dot product: -1.36536676857834e-07
Setting atom values ...
  1 settings made for x
  1 settings made for y
  1 settings made for z
Setting up cg style minimization ...
  Unit style    : metal
  Current step  : 17882
Per MPI rank memory allocation (min/avg/max) = 5.441 | 5.816 | 6.074 Mbytes
Step PotEng KinEng TotEng v_fx v_fy v_fz 
   17882   -1152449.3            0   -1152449.3  0.042423931  0.026768425 0.00060426628 
   18000   -1152449.3            0   -1152449.3 -4.3424905e-05 -6.8737115e-05 -5.9909222e-05 
   18123   -1152449.3            0   -1152449.3 5.4830599e-08 -1.4093333e-07 -2.5098557e-07 
Loop time of 2.84323 on 104 procs for 241 steps with 288751 atoms

99.9% CPU use with 104 MPI tasks x 1 OpenMP threads

Minimization stats:
  Stopping criterion = energy tolerance
  Energy initial, next-to-last, final = 
     -1152449.34645413  -1152449.34751732  -1152449.34751732
  Force two-norm initial, final = 0.14218189 1.0176211e-05
  Force max component initial, final = 0.062853109 3.8247844e-07
  Final line search alpha, max atom move = 1.0000000 3.8247844e-07
  Iterations, force evaluations = 241 482

MPI task timing breakdown:
Section |  min time  |  avg time  |  max time  |%varavg| %total
---------------------------------------------------------------
Pair    | 0.72374    | 2.0305     | 2.6681     |  38.7 | 71.42
Neigh   | 0          | 0          | 0          |   0.0 |  0.00
Comm    | 0.049801   | 0.46345    | 1.3742     |  55.5 | 16.30
Output  | 0.00024917 | 0.00025557 | 0.00042678 |   0.0 |  0.01
Modify  | 2.6924e-05 | 0.0039781  | 0.0084704  |   3.0 |  0.14
Other   |            | 0.345      |            |       | 12.14

Nlocal:        2776.45 ave        3957 max           0 min
Histogram: 8 4 4 0 4 12 8 2 28 34
Nghost:        3879.06 ave        5427 max         232 min
Histogram: 8 0 8 0 16 0 8 8 16 40
Neighs:        79213.4 ave      115336 max           0 min
Histogram: 8 4 4 0 10 6 8 8 24 32

Total # of neighbors = 8238189
Ave neighs/atom = 28.530426
Neighbor list builds = 0
Dangerous builds = 0
The dot product: 6.51931877559233e-12
Setting up cg style minimization ...
  Unit style    : metal
  Current step  : 18123
Per MPI rank memory allocation (min/avg/max) = 5.441 | 5.816 | 6.074 Mbytes
Step PotEng KinEng TotEng v_fx v_fy v_fz 
   18123   -1152449.3            0   -1152449.3 -0.078303351   0.12608334 -0.087904856 
   18335   -1152449.4            0   -1152449.4 5.8226026e-06 2.5606882e-06 -2.5895632e-06 
Loop time of 2.46562 on 104 procs for 212 steps with 288751 atoms

99.9% CPU use with 104 MPI tasks x 1 OpenMP threads

Minimization stats:
  Stopping criterion = energy tolerance
  Energy initial, next-to-last, final = 
     -1152449.34751732  -1152449.35157346  -1152449.35157346
  Force two-norm initial, final = 0.17249837 0.00011608
  Force max component initial, final = 0.12608334 2.2075510e-05
  Final line search alpha, max atom move = 1.0000000 2.2075510e-05
  Iterations, force evaluations = 212 424

MPI task timing breakdown:
Section |  min time  |  avg time  |  max time  |%varavg| %total
---------------------------------------------------------------
Pair    | 0.63707    | 1.7848     | 2.327      |  36.2 | 72.39
Neigh   | 0          | 0          | 0          |   0.0 |  0.00
Comm    | 0.040812   | 0.41229    | 1.2226     |  52.2 | 16.72
Output  | 0          | 0          | 0          |   0.0 |  0.00
Modify  | 2.2166e-05 | 0.0022841  | 0.0058301  |   3.0 |  0.09
Other   |            | 0.2662     |            |       | 10.80

Nlocal:        2776.45 ave        3958 max           0 min
Histogram: 8 4 4 0 4 12 8 2 28 34
Nghost:        3879.08 ave        5425 max         232 min
Histogram: 8 0 8 0 16 0 8 8 16 40
Neighs:        79213.3 ave      115364 max           0 min
Histogram: 8 4 4 0 10 6 8 8 24 32

Total # of neighbors = 8238188
Ave neighs/atom = 28.530422
Neighbor list builds = 0
Dangerous builds = 0
