LAMMPS (29 Oct 2020)
OMP_NUM_THREADS environment is not set. Defaulting to 1 thread. (../comm.cpp:94)
  using 1 OpenMP thread(s) per MPI task
OMP_NUM_THREADS environment is not set. Defaulting to 1 thread. (../comm.cpp:94)
  using 1 OpenMP thread(s) per MPI task
Reading data file ...
  orthogonal box = (-122.39241 -121.13707 -37.090501) to (122.39241 121.13707 37.090501)
  13 by 4 by 2 MPI processor grid
  reading atoms ...
  288751 atoms
  read_data CPU = 0.401 seconds
199981 atoms in group inner
88770 atoms in group outer
1 atoms in group carbon
Neighbor list info ...
  update every 1 steps, delay 0 steps, check yes
  max neighbors/atom: 2000, page size: 100000
  master list distance cutoff = 5.6
  ghost atom cutoff = 5.6
  binsize = 2.8, bins = 88 87 27
  1 neighbor lists, perpetual/occasional/extra = 1 0 0
  (1) pair eam/alloy, perpetual
      attributes: half, newton on
      pair build: half/bin/atomonly/newton
      stencil: half/bin/3d/newton
      bin: standard
Setting up cg style minimization ...
  Unit style    : metal
  Current step  : 0
Per MPI rank memory allocation (min/avg/max) = 5.441 | 5.816 | 6.074 Mbytes
Step v_fx v_fy v_fz PotEng KinEng TotEng 
       0     13.28478   -21.996449    13.017868   -1152441.9            0   -1152441.9 
     245 1.8749521e-05 -2.2359018e-05 2.6729574e-05     -1152449            0     -1152449 
Loop time of 2.87766 on 104 procs for 245 steps with 288751 atoms

99.8% CPU use with 104 MPI tasks x 1 OpenMP threads

Minimization stats:
  Stopping criterion = energy tolerance
  Energy initial, next-to-last, final = 
     -1152441.85200763  -1152448.97218771  -1152448.97218771
  Force two-norm initial, final = 47.028650 0.00013658659
  Force max component initial, final = 28.088146 3.8656195e-05
  Final line search alpha, max atom move = 1.0000000 3.8656195e-05
  Iterations, force evaluations = 245 487

MPI task timing breakdown:
Section |  min time  |  avg time  |  max time  |%varavg| %total
---------------------------------------------------------------
Pair    | 0.77755    | 2.0528     | 2.6594     |  37.7 | 71.34
Neigh   | 8.3459e-05 | 0.023581   | 0.034201   |   6.3 |  0.82
Comm    | 0.050325   | 0.46415    | 1.3951     |  56.8 | 16.13
Output  | 0          | 0          | 0          |   0.0 |  0.00
Modify  | 2.7334e-05 | 0.0026302  | 0.006777   |   3.2 |  0.09
Other   |            | 0.3345     |            |       | 11.62

Nlocal:        2776.45 ave        3957 max           0 min
Histogram: 8 4 4 0 4 12 8 2 28 34
Nghost:        3879.04 ave        5424 max         232 min
Histogram: 8 0 8 0 16 0 8 8 16 40
Neighs:        79213.7 ave      115320 max           0 min
Histogram: 8 4 4 0 10 6 8 8 24 32

Total # of neighbors = 8238220
Ave neighs/atom = 28.530533
Neighbor list builds = 8
Dangerous builds = 1
Setting atom values ...
  1 settings made for x
  1 settings made for y
  1 settings made for z
Setting up cg style minimization ...
  Unit style    : metal
  Current step  : 245
Per MPI rank memory allocation (min/avg/max) = 5.441 | 5.816 | 6.074 Mbytes
Step PotEng KinEng TotEng v_fx v_fy v_fz 
     245     -1152449            0     -1152449  0.018857376 0.0089529879 -0.022016246 
     369     -1152449            0     -1152449 -5.0117564e-06 -5.2030133e-06 3.435869e-06 
Loop time of 1.46138 on 104 procs for 124 steps with 288751 atoms

99.9% CPU use with 104 MPI tasks x 1 OpenMP threads

Minimization stats:
  Stopping criterion = energy tolerance
  Energy initial, next-to-last, final = 
     -1152448.97132529  -1152448.97198787  -1152448.97198787
  Force two-norm initial, final = 0.11716464 0.0002101472
  Force max component initial, final = 0.055037038 1.7501506e-05
  Final line search alpha, max atom move = 1.0000000 1.7501506e-05
  Iterations, force evaluations = 124 248

MPI task timing breakdown:
Section |  min time  |  avg time  |  max time  |%varavg| %total
---------------------------------------------------------------
Pair    | 0.37921    | 1.0494     | 1.3644     |  27.5 | 71.81
Neigh   | 0          | 0          | 0          |   0.0 |  0.00
Comm    | 0.024275   | 0.23788    | 0.72302    |  40.9 | 16.28
Output  | 0          | 0          | 0          |   0.0 |  0.00
Modify  | 1.4292e-05 | 0.0020643  | 0.0044103  |   2.2 |  0.14
Other   |            | 0.1721     |            |       | 11.77

Nlocal:        2776.45 ave        3953 max           0 min
Histogram: 8 4 4 0 4 12 8 2 28 34
Nghost:        3879.13 ave        5426 max         232 min
Histogram: 8 0 8 0 16 0 8 8 16 40
Neighs:        79213.5 ave      115162 max           0 min
Histogram: 8 4 4 0 10 6 8 8 24 32

Total # of neighbors = 8238205
Ave neighs/atom = 28.530481
Neighbor list builds = 0
Dangerous builds = 0
Setting atom values ...
  1 settings made for x
  1 settings made for y
  1 settings made for z
Setting up cg style minimization ...
  Unit style    : metal
  Current step  : 369
Per MPI rank memory allocation (min/avg/max) = 5.441 | 5.816 | 6.074 Mbytes
Step PotEng KinEng TotEng v_fx v_fy v_fz 
     369     -1152449            0     -1152449  0.029307852   0.01764855 -0.023321952 
     575     -1152449            0     -1152449 -2.8706484e-06 -1.7728533e-06 2.2559606e-06 
Loop time of 2.41985 on 104 procs for 206 steps with 288751 atoms

99.9% CPU use with 104 MPI tasks x 1 OpenMP threads

Minimization stats:
  Stopping criterion = energy tolerance
  Energy initial, next-to-last, final = 
     -1152448.96833737  -1152448.97097833  -1152448.97097833
  Force two-norm initial, final = 0.21443279 0.00013652152
  Force max component initial, final = 0.10491552 2.2575137e-05
  Final line search alpha, max atom move = 1.0000000 2.2575137e-05
  Iterations, force evaluations = 206 412

MPI task timing breakdown:
Section |  min time  |  avg time  |  max time  |%varavg| %total
---------------------------------------------------------------
Pair    | 0.62621    | 1.7284     | 2.2534     |  35.5 | 71.43
Neigh   | 0          | 0          | 0          |   0.0 |  0.00
Comm    | 0.044086   | 0.39164    | 1.1773     |  52.2 | 16.18
Output  | 0          | 0          | 0          |   0.0 |  0.00
Modify  | 2.5198e-05 | 0.0034009  | 0.0072829  |   2.8 |  0.14
Other   |            | 0.2964     |            |       | 12.25

Nlocal:        2776.45 ave        3953 max           0 min
Histogram: 8 4 4 0 4 12 8 2 28 34
Nghost:        3879.13 ave        5429 max         232 min
Histogram: 8 0 8 0 16 0 8 8 16 40
Neighs:        79213.5 ave      115162 max           0 min
Histogram: 8 4 4 0 10 6 8 8 24 32

Total # of neighbors = 8238206
Ave neighs/atom = 28.530485
Neighbor list builds = 0
Dangerous builds = 0
The dot product: 3.02472510245522e-08
Setting atom values ...
  1 settings made for x
  1 settings made for y
  1 settings made for z
Setting up cg style minimization ...
  Unit style    : metal
  Current step  : 575
Per MPI rank memory allocation (min/avg/max) = 5.441 | 5.816 | 6.074 Mbytes
Step PotEng KinEng TotEng v_fx v_fy v_fz 
     575     -1152449            0     -1152449 -0.010376074  0.028057719  0.016902914 
     798     -1152449            0     -1152449 -5.0312725e-07 -8.3119879e-07 5.3072691e-10 
Loop time of 2.60697 on 104 procs for 223 steps with 288751 atoms

99.9% CPU use with 104 MPI tasks x 1 OpenMP threads

Minimization stats:
  Stopping criterion = energy tolerance
  Energy initial, next-to-last, final = 
     -1152448.96648289  -1152448.96944528  -1152448.96944528
  Force two-norm initial, final = 0.21719729 4.0756231e-05
  Force max component initial, final = 0.10658223 4.3391264e-06
  Final line search alpha, max atom move = 1.0000000 4.3391264e-06
  Iterations, force evaluations = 223 446

MPI task timing breakdown:
Section |  min time  |  avg time  |  max time  |%varavg| %total
---------------------------------------------------------------
Pair    | 0.67779    | 1.8827     | 2.4613     |  37.0 | 72.22
Neigh   | 0          | 0          | 0          |   0.0 |  0.00
Comm    | 0.050045   | 0.42477    | 1.2973     |  54.4 | 16.29
Output  | 0          | 0          | 0          |   0.0 |  0.00
Modify  | 2.7339e-05 | 0.0036748  | 0.0078494  |   2.9 |  0.14
Other   |            | 0.2959     |            |       | 11.35

Nlocal:        2776.45 ave        3953 max           0 min
Histogram: 8 4 4 0 4 12 8 2 28 34
Nghost:        3879.12 ave        5425 max         232 min
Histogram: 8 0 8 0 16 0 8 8 16 40
Neighs:        79213.5 ave      115174 max           0 min
Histogram: 8 4 4 0 10 6 8 8 24 32

Total # of neighbors = 8238206
Ave neighs/atom = 28.530485
Neighbor list builds = 0
Dangerous builds = 0
The dot product: 3.07432465970784e-09
Setting atom values ...
  1 settings made for x
  1 settings made for y
  1 settings made for z
Setting up cg style minimization ...
  Unit style    : metal
  Current step  : 798
Per MPI rank memory allocation (min/avg/max) = 5.441 | 5.816 | 6.074 Mbytes
Step PotEng KinEng TotEng v_fx v_fy v_fz 
     798     -1152449            0     -1152449 -0.047632419    0.0342041  0.023510965 
     954     -1152449            0     -1152449 -6.4275883e-06 1.9587366e-05 7.0487146e-06 
Loop time of 1.81208 on 104 procs for 156 steps with 288751 atoms

99.9% CPU use with 104 MPI tasks x 1 OpenMP threads

Minimization stats:
  Stopping criterion = energy tolerance
  Energy initial, next-to-last, final = 
     -1152448.96471588  -1152448.96800259  -1152448.96800259
  Force two-norm initial, final = 0.21930891 0.00013749714
  Force max component initial, final = 0.10070362 2.7037657e-05
  Final line search alpha, max atom move = 1.0000000 2.7037657e-05
  Iterations, force evaluations = 156 312

MPI task timing breakdown:
Section |  min time  |  avg time  |  max time  |%varavg| %total
---------------------------------------------------------------
Pair    | 0.47263    | 1.3071     | 1.7057     |  30.9 | 72.13
Neigh   | 0          | 0          | 0          |   0.0 |  0.00
Comm    | 0.031452   | 0.294      | 0.88456    |  45.5 | 16.22
Output  | 0          | 0          | 0          |   0.0 |  0.00
Modify  | 1.7462e-05 | 0.0025741  | 0.0055412  |   2.4 |  0.14
Other   |            | 0.2084     |            |       | 11.50

Nlocal:        2776.45 ave        3955 max           0 min
Histogram: 8 4 4 0 4 12 8 2 28 34
Nghost:        3879.13 ave        5424 max         232 min
Histogram: 8 0 8 0 16 0 8 8 16 40
Neighs:        79213.6 ave      115245 max           0 min
Histogram: 8 4 4 0 10 6 8 8 24 32

Total # of neighbors = 8238212
Ave neighs/atom = 28.530506
Neighbor list builds = 0
Dangerous builds = 0
The dot product: 1.31130485761743e-07
Setting atom values ...
  1 settings made for x
  1 settings made for y
  1 settings made for z
Setting up cg style minimization ...
  Unit style    : metal
  Current step  : 954
Per MPI rank memory allocation (min/avg/max) = 5.441 | 5.816 | 6.074 Mbytes
Step PotEng KinEng TotEng v_fx v_fy v_fz 
     954     -1152449            0     -1152449 -0.056695556  0.035177361   0.01664891 
    1000     -1152449            0     -1152449 0.00026650955 -0.00043453435 -0.00013613975 
    1087     -1152449            0     -1152449 -1.0627464e-05 2.189783e-05 6.4114408e-06 
Loop time of 1.54883 on 104 procs for 133 steps with 288751 atoms

99.9% CPU use with 104 MPI tasks x 1 OpenMP threads

Minimization stats:
  Stopping criterion = energy tolerance
  Energy initial, next-to-last, final = 
     -1152448.96360914  -1152448.96633084  -1152448.96633084
  Force two-norm initial, final = 0.21609458 0.00022549787
  Force max component initial, final = 0.09449634 6.3021154e-05
  Final line search alpha, max atom move = 1.0000000 6.3021154e-05
  Iterations, force evaluations = 133 266

MPI task timing breakdown:
Section |  min time  |  avg time  |  max time  |%varavg| %total
---------------------------------------------------------------
Pair    | 0.40777    | 1.1236     | 1.4538     |  28.4 | 72.55
Neigh   | 0          | 0          | 0          |   0.0 |  0.00
Comm    | 0.026955   | 0.25041    | 0.76253    |  42.6 | 16.17
Output  | 0.00023602 | 0.00024344 | 0.0003521  |   0.0 |  0.02
Modify  | 1.5543e-05 | 0.0022064  | 0.0047448  |   2.2 |  0.14
Other   |            | 0.1724     |            |       | 11.13

Nlocal:        2776.45 ave        3956 max           0 min
Histogram: 8 4 4 0 4 12 8 2 28 34
Nghost:        3879.13 ave        5424 max         232 min
Histogram: 8 0 8 0 16 0 8 8 16 40
Neighs:        79213.6 ave      115275 max           0 min
Histogram: 8 4 4 0 10 6 8 8 24 32

Total # of neighbors = 8238214
Ave neighs/atom = 28.530512
Neighbor list builds = 0
Dangerous builds = 0
The dot product: 5.85503135076549e-08
Setting atom values ...
  1 settings made for x
  1 settings made for y
  1 settings made for z
Setting up cg style minimization ...
  Unit style    : metal
  Current step  : 1087
Per MPI rank memory allocation (min/avg/max) = 5.441 | 5.816 | 6.074 Mbytes
Step PotEng KinEng TotEng v_fx v_fy v_fz 
    1087     -1152449            0     -1152449 -0.057059632  0.034713874  0.013685376 
    1313     -1152449            0     -1152449 -1.064527e-05 1.7030036e-05 4.7624786e-06 
Loop time of 2.62605 on 104 procs for 226 steps with 288751 atoms

99.9% CPU use with 104 MPI tasks x 1 OpenMP threads

Minimization stats:
  Stopping criterion = energy tolerance
  Energy initial, next-to-last, final = 
     -1152448.96170262  -1152448.96475731  -1152448.96475731
  Force two-norm initial, final = 0.21437347 0.00011316704
  Force max component initial, final = 0.092752463 2.6368781e-05
  Final line search alpha, max atom move = 1.0000000 2.6368781e-05
  Iterations, force evaluations = 226 452

MPI task timing breakdown:
Section |  min time  |  avg time  |  max time  |%varavg| %total
---------------------------------------------------------------
Pair    | 0.68512    | 1.8896     | 2.4575     |  37.1 | 71.95
Neigh   | 0          | 0          | 0          |   0.0 |  0.00
Comm    | 0.045491   | 0.42121    | 1.2865     |  55.3 | 16.04
Output  | 0          | 0          | 0          |   0.0 |  0.00
Modify  | 2.8043e-05 | 0.0037208  | 0.0079537  |   2.9 |  0.14
Other   |            | 0.3115     |            |       | 11.86

Nlocal:        2776.45 ave        3956 max           0 min
Histogram: 8 4 4 0 4 12 8 2 28 34
Nghost:        3879.07 ave        5424 max         232 min
Histogram: 8 0 8 0 16 0 8 8 16 40
Neighs:        79213.6 ave      115274 max           0 min
Histogram: 8 4 4 0 10 6 8 8 24 32

Total # of neighbors = 8238217
Ave neighs/atom = 28.530523
Neighbor list builds = 0
Dangerous builds = 0
The dot product: -7.67994775221567e-08
Setting atom values ...
  1 settings made for x
  1 settings made for y
  1 settings made for z
Setting up cg style minimization ...
  Unit style    : metal
  Current step  : 1313
Per MPI rank memory allocation (min/avg/max) = 5.441 | 5.816 | 6.074 Mbytes
Step PotEng KinEng TotEng v_fx v_fy v_fz 
    1313     -1152449            0     -1152449 -0.053797346  0.032718229  0.014525926 
    1525     -1152449            0     -1152449 1.3284977e-07 -3.0948706e-08 -2.3694364e-08 
Loop time of 2.45406 on 104 procs for 212 steps with 288751 atoms

99.9% CPU use with 104 MPI tasks x 1 OpenMP threads

Minimization stats:
  Stopping criterion = energy tolerance
  Energy initial, next-to-last, final = 
     -1152448.96063384  -1152448.96334016  -1152448.96334016
  Force two-norm initial, final = 0.21650997 5.2382870e-05
  Force max component initial, final = 0.095688983 1.1689449e-05
  Final line search alpha, max atom move = 1.0000000 1.1689449e-05
  Iterations, force evaluations = 212 424

MPI task timing breakdown:
Section |  min time  |  avg time  |  max time  |%varavg| %total
---------------------------------------------------------------
Pair    | 0.64434    | 1.7824     | 2.3203     |  35.8 | 72.63
Neigh   | 0          | 0          | 0          |   0.0 |  0.00
Comm    | 0.039884   | 0.39853    | 1.2169     |  53.4 | 16.24
Output  | 0          | 0          | 0          |   0.0 |  0.00
Modify  | 2.3974e-05 | 0.0035027  | 0.0075679  |   2.8 |  0.14
Other   |            | 0.2696     |            |       | 10.99

Nlocal:        2776.45 ave        3957 max           0 min
Histogram: 8 4 4 0 4 12 8 2 28 34
Nghost:        3879.05 ave        5424 max         232 min
Histogram: 8 0 8 0 16 0 8 8 16 40
Neighs:        79213.6 ave      115318 max           0 min
Histogram: 8 4 4 0 10 6 8 8 24 32

Total # of neighbors = 8238210
Ave neighs/atom = 28.530499
Neighbor list builds = 0
Dangerous builds = 0
The dot product: -3.11928446277507e-10
Setting atom values ...
  1 settings made for x
  1 settings made for y
  1 settings made for z
Setting up cg style minimization ...
  Unit style    : metal
  Current step  : 1525
Per MPI rank memory allocation (min/avg/max) = 5.441 | 5.816 | 6.074 Mbytes
Step PotEng KinEng TotEng v_fx v_fy v_fz 
    1525     -1152449            0     -1152449 -0.058557393  0.037136811  0.014998903 
    1725     -1152449            0     -1152449 2.7255185e-06 -3.9978481e-06 -1.2394791e-06 
Loop time of 2.33221 on 104 procs for 200 steps with 288751 atoms

99.9% CPU use with 104 MPI tasks x 1 OpenMP threads

Minimization stats:
  Stopping criterion = energy tolerance
  Energy initial, next-to-last, final = 
     -1152448.95883865  -1152448.96132049  -1152448.96132049
  Force two-norm initial, final = 0.21780445 9.3798895e-05
  Force max component initial, final = 0.095233596 2.3041689e-05
  Final line search alpha, max atom move = 1.0000000 2.3041689e-05
  Iterations, force evaluations = 200 400

MPI task timing breakdown:
Section |  min time  |  avg time  |  max time  |%varavg| %total
---------------------------------------------------------------
Pair    | 0.60798    | 1.6757     | 2.18       |  34.9 | 71.85
Neigh   | 0          | 0          | 0          |   0.0 |  0.00
Comm    | 0.03819    | 0.37606    | 1.1359     |  51.8 | 16.12
Output  | 0          | 0          | 0          |   0.0 |  0.00
Modify  | 2.2662e-05 | 0.0033012  | 0.0070524  |   2.7 |  0.14
Other   |            | 0.2772     |            |       | 11.88

Nlocal:        2776.45 ave        3957 max           0 min
Histogram: 8 4 4 0 4 12 8 2 28 34
Nghost:        3879.06 ave        5424 max         232 min
Histogram: 8 0 8 0 16 0 8 8 16 40
Neighs:        79213.6 ave      115320 max           0 min
Histogram: 8 4 4 0 10 6 8 8 24 32

Total # of neighbors = 8238211
Ave neighs/atom = 28.530502
Neighbor list builds = 0
Dangerous builds = 0
The dot product: -2.70610615016499e-08
Setting atom values ...
  1 settings made for x
  1 settings made for y
  1 settings made for z
Setting up cg style minimization ...
  Unit style    : metal
  Current step  : 1725
Per MPI rank memory allocation (min/avg/max) = 5.441 | 5.816 | 6.074 Mbytes
Step PotEng KinEng TotEng v_fx v_fy v_fz 
    1725     -1152449            0     -1152449 -0.064236734  0.042107004  0.013849936 
    1902     -1152449            0     -1152449 1.431065e-05 -1.984167e-05 -5.3245343e-06 
Loop time of 2.11555 on 104 procs for 177 steps with 288751 atoms

99.9% CPU use with 104 MPI tasks x 1 OpenMP threads

Minimization stats:
  Stopping criterion = energy tolerance
  Energy initial, next-to-last, final = 
     -1152448.95620855  -1152448.95877106  -1152448.95877106
  Force two-norm initial, final = 0.21754372 0.00013855235
  Force max component initial, final = 0.092779209 4.7311318e-05
  Final line search alpha, max atom move = 1.0000000 4.7311318e-05
  Iterations, force evaluations = 177 354

MPI task timing breakdown:
Section |  min time  |  avg time  |  max time  |%varavg| %total
---------------------------------------------------------------
Pair    | 0.54156    | 1.4991     | 1.9584     |  32.7 | 70.86
Neigh   | 0          | 0          | 0          |   0.0 |  0.00
Comm    | 0.045198   | 0.34672    | 1.0377     |  47.8 | 16.39
Output  | 0          | 0          | 0          |   0.0 |  0.00
Modify  | 2.2458e-05 | 0.0029246  | 0.0062639  |   2.6 |  0.14
Other   |            | 0.2668     |            |       | 12.61

Nlocal:        2776.45 ave        3957 max           0 min
Histogram: 8 4 4 0 4 12 8 2 28 34
Nghost:        3879.04 ave        5424 max         232 min
Histogram: 8 0 8 0 16 0 8 8 16 40
Neighs:        79213.5 ave      115329 max           0 min
Histogram: 8 4 4 0 10 6 8 8 24 32

Total # of neighbors = 8238209
Ave neighs/atom = 28.530495
Neighbor list builds = 0
Dangerous builds = 0
The dot product: -1.14050789046458e-07
Setting atom values ...
  1 settings made for x
  1 settings made for y
  1 settings made for z
Setting up cg style minimization ...
  Unit style    : metal
  Current step  : 1902
Per MPI rank memory allocation (min/avg/max) = 5.441 | 5.816 | 6.074 Mbytes
Step PotEng KinEng TotEng v_fx v_fy v_fz 
    1902     -1152449            0     -1152449 -0.067320962  0.043872865  0.012132479 
    2000     -1152449            0     -1152449 -7.8837545e-05 0.00010839602 2.5497877e-05 
    2139     -1152449            0     -1152449 3.5535133e-06 -4.7652534e-06 -1.1254134e-06 
Loop time of 2.7379 on 104 procs for 237 steps with 288751 atoms

99.9% CPU use with 104 MPI tasks x 1 OpenMP threads

Minimization stats:
  Stopping criterion = energy tolerance
  Energy initial, next-to-last, final = 
     -1152448.95337932  -1152448.95573935  -1152448.95573935
  Force two-norm initial, final = 0.21662571 2.8768861e-05
  Force max component initial, final = 0.090757642 1.0177336e-05
  Final line search alpha, max atom move = 1.0000000 1.0177336e-05
  Iterations, force evaluations = 237 474

MPI task timing breakdown:
Section |  min time  |  avg time  |  max time  |%varavg| %total
---------------------------------------------------------------
Pair    | 0.71635    | 1.9881     | 2.5896     |  38.1 | 72.61
Neigh   | 0          | 0          | 0          |   0.0 |  0.00
Comm    | 0.04223    | 0.44486    | 1.3455     |  56.7 | 16.25
Output  | 0.00015089 | 0.00015452 | 0.00029398 |   0.0 |  0.01
Modify  | 2.6574e-05 | 0.0039064  | 0.0083829  |   3.0 |  0.14
Other   |            | 0.3008     |            |       | 10.99

Nlocal:        2776.45 ave        3957 max           0 min
Histogram: 8 4 4 0 4 12 8 2 28 34
Nghost:        3879.02 ave        5424 max         232 min
Histogram: 8 0 8 0 16 0 8 8 16 40
Neighs:        79213.5 ave      115330 max           0 min
Histogram: 8 4 4 0 10 6 8 8 24 32

Total # of neighbors = 8238204
Ave neighs/atom = 28.530478
Neighbor list builds = 0
Dangerous builds = 0
The dot product: -3.74538829570385e-08
Setting atom values ...
  1 settings made for x
  1 settings made for y
  1 settings made for z
Setting up cg style minimization ...
  Unit style    : metal
  Current step  : 2139
Per MPI rank memory allocation (min/avg/max) = 5.441 | 5.816 | 6.074 Mbytes
Step PotEng KinEng TotEng v_fx v_fy v_fz 
    2139   -1152448.9            0   -1152448.9 -0.071500441  0.046992059  0.010034961 
    2394     -1152449            0     -1152449 -1.9532756e-07 2.7111836e-07 5.2801059e-08 
Loop time of 2.9472 on 104 procs for 255 steps with 288751 atoms

99.9% CPU use with 104 MPI tasks x 1 OpenMP threads

Minimization stats:
  Stopping criterion = energy tolerance
  Energy initial, next-to-last, final = 
     -1152448.94966835  -1152448.95191937  -1152448.95191937
  Force two-norm initial, final = 0.21572912 9.1698664e-06
  Force max component initial, final = 0.087991637 1.2488775e-06
  Final line search alpha, max atom move = 1.0000000 1.2488775e-06
  Iterations, force evaluations = 255 510

MPI task timing breakdown:
Section |  min time  |  avg time  |  max time  |%varavg| %total
---------------------------------------------------------------
Pair    | 0.77167    | 2.1437     | 2.7948     |  39.4 | 72.74
Neigh   | 0          | 0          | 0          |   0.0 |  0.00
Comm    | 0.043695   | 0.48226    | 1.4667     |  58.7 | 16.36
Output  | 0          | 0          | 0          |   0.0 |  0.00
Modify  | 2.8579e-05 | 0.004199   | 0.0089744  |   3.1 |  0.14
Other   |            | 0.317      |            |       | 10.76

Nlocal:        2776.45 ave        3957 max           0 min
Histogram: 8 4 4 0 4 12 8 2 28 34
Nghost:        3879.04 ave        5424 max         232 min
Histogram: 8 0 8 0 16 0 8 8 16 40
Neighs:        79213.5 ave      115332 max           0 min
Histogram: 8 4 4 0 10 6 8 8 24 32

Total # of neighbors = 8238202
Ave neighs/atom = 28.530471
Neighbor list builds = 0
Dangerous builds = 0
The dot product: 2.56649518660665e-09
Setting atom values ...
  1 settings made for x
  1 settings made for y
  1 settings made for z
Setting up cg style minimization ...
  Unit style    : metal
  Current step  : 2394
Per MPI rank memory allocation (min/avg/max) = 5.441 | 5.816 | 6.074 Mbytes
Step PotEng KinEng TotEng v_fx v_fy v_fz 
    2394   -1152448.9            0   -1152448.9 -0.074914552  0.050052771 0.0073087796 
    2551   -1152448.9            0   -1152448.9 1.4621676e-05 -1.9932493e-05 -2.995472e-06 
Loop time of 1.81209 on 104 procs for 157 steps with 288751 atoms

99.9% CPU use with 104 MPI tasks x 1 OpenMP threads

Minimization stats:
  Stopping criterion = energy tolerance
  Energy initial, next-to-last, final = 
     -1152448.94512296  -1152448.94734274  -1152448.94734274
  Force two-norm initial, final = 0.21423744 0.00023526204
  Force max component initial, final = 0.08447604 3.8237034e-05
  Final line search alpha, max atom move = 1.0000000 3.8237034e-05
  Iterations, force evaluations = 157 314

MPI task timing breakdown:
Section |  min time  |  avg time  |  max time  |%varavg| %total
---------------------------------------------------------------
Pair    | 0.47655    | 1.3139     | 1.713      |  30.9 | 72.51
Neigh   | 0          | 0          | 0          |   0.0 |  0.00
Comm    | 0.03658    | 0.29318    | 0.89184    |  45.8 | 16.18
Output  | 0          | 0          | 0          |   0.0 |  0.00
Modify  | 1.8084e-05 | 0.0025893  | 0.0055119  |   2.4 |  0.14
Other   |            | 0.2024     |            |       | 11.17

Nlocal:        2776.45 ave        3956 max           0 min
Histogram: 8 4 4 0 4 12 8 0 30 34
Nghost:        3879.04 ave        5424 max         232 min
Histogram: 8 0 8 0 16 0 8 8 16 40
Neighs:        79213.5 ave      115301 max           0 min
Histogram: 8 4 4 0 10 6 8 8 24 32

Total # of neighbors = 8238205
Ave neighs/atom = 28.530481
Neighbor list builds = 0
Dangerous builds = 0
The dot product: -2.12957907485862e-07
Setting atom values ...
  1 settings made for x
  1 settings made for y
  1 settings made for z
Setting up cg style minimization ...
  Unit style    : metal
  Current step  : 2551
Per MPI rank memory allocation (min/avg/max) = 5.441 | 5.816 | 6.074 Mbytes
Step PotEng KinEng TotEng v_fx v_fy v_fz 
    2551   -1152448.9            0   -1152448.9 -0.077149949  0.052457901  0.004169414 
    2748   -1152448.9            0   -1152448.9 1.3016006e-05 -1.5552617e-05 -1.5718594e-06 
Loop time of 2.28392 on 104 procs for 197 steps with 288751 atoms

99.9% CPU use with 104 MPI tasks x 1 OpenMP threads

Minimization stats:
  Stopping criterion = energy tolerance
  Energy initial, next-to-last, final = 
     -1152448.93989049  -1152448.94200671  -1152448.94200671
  Force two-norm initial, final = 0.21212706 7.1648781e-05
  Force max component initial, final = 0.080414223 2.1527592e-05
  Final line search alpha, max atom move = 1.0000000 2.1527592e-05
  Iterations, force evaluations = 197 394

MPI task timing breakdown:
Section |  min time  |  avg time  |  max time  |%varavg| %total
---------------------------------------------------------------
Pair    | 0.59698    | 1.6582     | 2.1513     |  34.7 | 72.60
Neigh   | 0          | 0          | 0          |   0.0 |  0.00
Comm    | 0.037251   | 0.36836    | 1.1269     |  51.7 | 16.13
Output  | 0          | 0          | 0          |   0.0 |  0.00
Modify  | 2.208e-05  | 0.0032492  | 0.0069828  |   2.7 |  0.14
Other   |            | 0.2541     |            |       | 11.13

Nlocal:        2776.45 ave        3956 max           0 min
Histogram: 8 4 4 0 4 12 8 0 30 34
Nghost:        3879.06 ave        5424 max         232 min
Histogram: 8 0 8 0 16 0 8 8 16 40
Neighs:        79213.5 ave      115301 max           0 min
Histogram: 8 4 4 0 10 6 8 8 24 32

Total # of neighbors = 8238206
Ave neighs/atom = 28.530485
Neighbor list builds = 0
Dangerous builds = 0
The dot product: -1.62111552705522e-07
Setting atom values ...
  1 settings made for x
  1 settings made for y
  1 settings made for z
Setting up cg style minimization ...
  Unit style    : metal
  Current step  : 2748
Per MPI rank memory allocation (min/avg/max) = 5.441 | 5.816 | 6.074 Mbytes
Step PotEng KinEng TotEng v_fx v_fy v_fz 
    2748   -1152448.9            0   -1152448.9 -0.078274226  0.052354182 0.0010596098 
    2898   -1152448.9            0   -1152448.9 9.258317e-06 -1.0669588e-05 -6.2065366e-07 
Loop time of 1.73263 on 104 procs for 150 steps with 288751 atoms

99.9% CPU use with 104 MPI tasks x 1 OpenMP threads

Minimization stats:
  Stopping criterion = energy tolerance
  Energy initial, next-to-last, final = 
     -1152448.93382044  -1152448.93584531  -1152448.93584531
  Force two-norm initial, final = 0.20974313 0.00024681446
  Force max component initial, final = 0.078274226 2.4016528e-05
  Final line search alpha, max atom move = 1.0000000 2.4016528e-05
  Iterations, force evaluations = 150 300

MPI task timing breakdown:
Section |  min time  |  avg time  |  max time  |%varavg| %total
---------------------------------------------------------------
Pair    | 0.45447    | 1.256      | 1.6351     |  30.3 | 72.49
Neigh   | 0          | 0          | 0          |   0.0 |  0.00
Comm    | 0.027297   | 0.27995    | 0.85352    |  45.3 | 16.16
Output  | 0          | 0          | 0          |   0.0 |  0.00
Modify  | 1.7592e-05 | 0.0024729  | 0.0052886  |   2.4 |  0.14
Other   |            | 0.1942     |            |       | 11.21

Nlocal:        2776.45 ave        3957 max           0 min
Histogram: 8 4 4 0 4 12 8 2 28 34
Nghost:        3879.06 ave        5424 max         232 min
Histogram: 8 0 8 0 16 0 8 8 16 40
Neighs:        79213.5 ave      115335 max           0 min
Histogram: 8 4 4 0 10 6 8 8 24 32

Total # of neighbors = 8238203
Ave neighs/atom = 28.530474
Neighbor list builds = 0
Dangerous builds = 0
The dot product: -9.96713906907428e-08
Setting atom values ...
  1 settings made for x
  1 settings made for y
  1 settings made for z
Setting up cg style minimization ...
  Unit style    : metal
  Current step  : 2898
Per MPI rank memory allocation (min/avg/max) = 5.441 | 5.816 | 6.074 Mbytes
Step PotEng KinEng TotEng v_fx v_fy v_fz 
    2898   -1152448.9            0   -1152448.9 -0.076633911  0.052467305 -0.0013801593 
    3000   -1152448.9            0   -1152448.9 0.00015511367 -0.00019034248 -5.4332739e-06 
    3066   -1152448.9            0   -1152448.9 -8.3748331e-06 1.1203082e-05 3.8390535e-07 
Loop time of 1.94478 on 104 procs for 168 steps with 288751 atoms

99.9% CPU use with 104 MPI tasks x 1 OpenMP threads

Minimization stats:
  Stopping criterion = energy tolerance
  Energy initial, next-to-last, final = 
     -1152448.92685635  -1152448.92878079  -1152448.92878079
  Force two-norm initial, final = 0.20691453 0.00011767015
  Force max component initial, final = 0.077961434 1.3401268e-05
  Final line search alpha, max atom move = 1.0000000 1.3401268e-05
  Iterations, force evaluations = 168 336

MPI task timing breakdown:
Section |  min time  |  avg time  |  max time  |%varavg| %total
---------------------------------------------------------------
Pair    | 0.50624    | 1.4123     | 1.841      |  32.1 | 72.62
Neigh   | 0          | 0          | 0          |   0.0 |  0.00
Comm    | 0.030377   | 0.31399    | 0.96504    |  47.8 | 16.15
Output  | 0.0001546  | 0.00015778 | 0.00028394 |   0.0 |  0.01
Modify  | 1.8696e-05 | 0.0027711  | 0.0059327  |   2.5 |  0.14
Other   |            | 0.2156     |            |       | 11.09

Nlocal:        2776.45 ave        3957 max           0 min
Histogram: 8 4 4 0 4 12 8 2 28 34
Nghost:        3879.06 ave        5424 max         232 min
Histogram: 8 0 8 0 16 0 8 8 16 40
Neighs:        79213.5 ave      115335 max           0 min
Histogram: 8 4 4 0 10 6 8 8 24 32

Total # of neighbors = 8238201
Ave neighs/atom = 28.530467
Neighbor list builds = 0
Dangerous builds = 0
The dot product: 8.59585633829075e-08
Setting atom values ...
  1 settings made for x
  1 settings made for y
  1 settings made for z
Setting up cg style minimization ...
  Unit style    : metal
  Current step  : 3066
Per MPI rank memory allocation (min/avg/max) = 5.441 | 5.816 | 6.074 Mbytes
Step PotEng KinEng TotEng v_fx v_fy v_fz 
    3066   -1152448.9            0   -1152448.9 -0.067948734  0.056659612 -0.0022418926 
    3223   -1152448.9            0   -1152448.9 2.0637832e-05 -2.1913221e-05 2.7140822e-07 
Loop time of 1.80916 on 104 procs for 157 steps with 288751 atoms

99.9% CPU use with 104 MPI tasks x 1 OpenMP threads

Minimization stats:
  Stopping criterion = energy tolerance
  Energy initial, next-to-last, final = 
     -1152448.91869719  -1152448.92057177  -1152448.92057177
  Force two-norm initial, final = 0.20318291 0.00018399274
  Force max component initial, final = 0.07984576 3.0870831e-05
  Final line search alpha, max atom move = 1.0000000 3.0870831e-05
  Iterations, force evaluations = 157 314

MPI task timing breakdown:
Section |  min time  |  avg time  |  max time  |%varavg| %total
---------------------------------------------------------------
Pair    | 0.47483    | 1.3133     | 1.711      |  30.9 | 72.59
Neigh   | 0          | 0          | 0          |   0.0 |  0.00
Comm    | 0.0298     | 0.29261    | 0.89096    |  45.9 | 16.17
Output  | 0          | 0          | 0          |   0.0 |  0.00
Modify  | 1.7574e-05 | 0.0025872  | 0.005505   |   2.4 |  0.14
Other   |            | 0.2006     |            |       | 11.09

Nlocal:        2776.45 ave        3957 max           0 min
Histogram: 8 4 4 0 4 12 8 2 28 34
Nghost:        3879.13 ave        5424 max         232 min
Histogram: 8 0 8 0 16 0 8 8 16 40
Neighs:        79213.5 ave      115338 max           0 min
Histogram: 8 4 4 0 10 6 8 8 24 32

Total # of neighbors = 8238199
Ave neighs/atom = 28.530461
Neighbor list builds = 0
Dangerous builds = 0
The dot product: -1.6002347761806e-07
Setting atom values ...
  1 settings made for x
  1 settings made for y
  1 settings made for z
Setting up cg style minimization ...
  Unit style    : metal
  Current step  : 3223
Per MPI rank memory allocation (min/avg/max) = 5.441 | 5.816 | 6.074 Mbytes
Step PotEng KinEng TotEng v_fx v_fy v_fz 
    3223   -1152448.9            0   -1152448.9 -0.060795698  0.060180394 -0.0026364466 
    3394   -1152448.9            0   -1152448.9 -8.3101939e-06 1.0609227e-05 -1.7958042e-07 
Loop time of 1.99089 on 104 procs for 171 steps with 288751 atoms

99.9% CPU use with 104 MPI tasks x 1 OpenMP threads

Minimization stats:
  Stopping criterion = energy tolerance
  Energy initial, next-to-last, final = 
      -1152448.9091707  -1152448.91103801  -1152448.91103801
  Force two-norm initial, final = 0.20105923 0.00012016187
  Force max component initial, final = 0.081673192 2.9989567e-05
  Final line search alpha, max atom move = 1.0000000 2.9989567e-05
  Iterations, force evaluations = 171 342

MPI task timing breakdown:
Section |  min time  |  avg time  |  max time  |%varavg| %total
---------------------------------------------------------------
Pair    | 0.51717    | 1.4423     | 1.8889     |  32.4 | 72.44
Neigh   | 0          | 0          | 0          |   0.0 |  0.00
Comm    | 0.03251    | 0.32557    | 0.99573    |  47.8 | 16.35
Output  | 0          | 0          | 0          |   0.0 |  0.00
Modify  | 1.9181e-05 | 0.0028177  | 0.0060453  |   2.5 |  0.14
Other   |            | 0.2202     |            |       | 11.06

Nlocal:        2776.45 ave        3957 max           0 min
Histogram: 8 4 4 0 4 12 8 2 28 34
Nghost:        3879.13 ave        5425 max         232 min
Histogram: 8 0 8 0 16 0 8 8 16 40
Neighs:        79213.4 ave      115338 max           0 min
Histogram: 8 4 4 0 10 6 8 8 24 32

Total # of neighbors = 8238198
Ave neighs/atom = 28.530457
Neighbor list builds = 0
Dangerous builds = 0
The dot product: 6.00625035979886e-08
Setting atom values ...
  1 settings made for x
  1 settings made for y
  1 settings made for z
Setting up cg style minimization ...
  Unit style    : metal
  Current step  : 3394
Per MPI rank memory allocation (min/avg/max) = 5.441 | 5.816 | 6.074 Mbytes
Step PotEng KinEng TotEng v_fx v_fy v_fz 
    3394   -1152448.9            0   -1152448.9 -0.057089076  0.061963268 -0.0031802712 
    3579   -1152448.9            0   -1152448.9 2.1646676e-06 -4.7707889e-06 -3.6268926e-08 
Loop time of 2.1419 on 104 procs for 185 steps with 288751 atoms

99.9% CPU use with 104 MPI tasks x 1 OpenMP threads

Minimization stats:
  Stopping criterion = energy tolerance
  Energy initial, next-to-last, final = 
      -1152448.8982811  -1152448.90014588  -1152448.90014588
  Force two-norm initial, final = 0.19990432 8.9152285e-05
  Force max component initial, final = 0.083419945 1.6406969e-05
  Final line search alpha, max atom move = 1.0000000 1.6406969e-05
  Iterations, force evaluations = 185 370

MPI task timing breakdown:
Section |  min time  |  avg time  |  max time  |%varavg| %total
---------------------------------------------------------------
Pair    | 0.56163    | 1.5521     | 2.0251     |  33.7 | 72.46
Neigh   | 0          | 0          | 0          |   0.0 |  0.00
Comm    | 0.039898   | 0.34784    | 1.0532     |  49.8 | 16.24
Output  | 0          | 0          | 0          |   0.0 |  0.00
Modify  | 2.0688e-05 | 0.0030456  | 0.0065157  |   2.6 |  0.14
Other   |            | 0.2389     |            |       | 11.15

Nlocal:        2776.45 ave        3957 max           0 min
Histogram: 8 4 4 0 4 12 8 2 28 34
Nghost:        3879.21 ave        5426 max         232 min
Histogram: 8 0 8 0 16 0 8 8 16 40
Neighs:        79213.5 ave      115337 max           0 min
Histogram: 8 4 4 0 10 6 8 8 24 32

Total # of neighbors = 8238199
Ave neighs/atom = 28.530461
Neighbor list builds = 0
Dangerous builds = 0
The dot product: -1.93222566336808e-08
Setting atom values ...
  1 settings made for x
  1 settings made for y
  1 settings made for z
Setting up cg style minimization ...
  Unit style    : metal
  Current step  : 3579
Per MPI rank memory allocation (min/avg/max) = 5.441 | 5.816 | 6.074 Mbytes
Step PotEng KinEng TotEng v_fx v_fy v_fz 
    3579   -1152448.9            0   -1152448.9 -0.054154064  0.062667815 -0.0036041581 
    3837   -1152448.9            0   -1152448.9 -9.2181415e-09 1.331737e-07 6.1754141e-09 
Loop time of 3.00495 on 104 procs for 258 steps with 288751 atoms

99.9% CPU use with 104 MPI tasks x 1 OpenMP threads

Minimization stats:
  Stopping criterion = energy tolerance
  Energy initial, next-to-last, final = 
     -1152448.88604532   -1152448.8879404   -1152448.8879404
  Force two-norm initial, final = 0.19902418 9.3540298e-06
  Force max component initial, final = 0.084989327 2.6156212e-06
  Final line search alpha, max atom move = 1.0000000 2.6156212e-06
  Iterations, force evaluations = 258 516

MPI task timing breakdown:
Section |  min time  |  avg time  |  max time  |%varavg| %total
---------------------------------------------------------------
Pair    | 0.7841     | 2.1747     | 2.8422     |  39.6 | 72.37
Neigh   | 0          | 0          | 0          |   0.0 |  0.00
Comm    | 0.057178   | 0.49173    | 1.4982     |  58.4 | 16.36
Output  | 0          | 0          | 0          |   0.0 |  0.00
Modify  | 2.8654e-05 | 0.0042427  | 0.0091121  |   3.1 |  0.14
Other   |            | 0.3343     |            |       | 11.12

Nlocal:        2776.45 ave        3957 max           0 min
Histogram: 8 4 4 0 4 12 8 2 28 34
Nghost:        3879.21 ave        5426 max         232 min
Histogram: 8 0 8 0 16 0 8 8 16 40
Neighs:        79213.4 ave      115331 max           0 min
Histogram: 8 4 4 0 10 6 8 8 24 32

Total # of neighbors = 8238198
Ave neighs/atom = 28.530457
Neighbor list builds = 0
Dangerous builds = 0
The dot product: 2.18854905014357e-10
Setting atom values ...
  1 settings made for x
  1 settings made for y
  1 settings made for z
Setting up cg style minimization ...
  Unit style    : metal
  Current step  : 3837
Per MPI rank memory allocation (min/avg/max) = 5.441 | 5.816 | 6.074 Mbytes
Step PotEng KinEng TotEng v_fx v_fy v_fz 
    3837   -1152448.9            0   -1152448.9 -0.050859517  0.060996553 -0.0035834173 
    4000   -1152448.9            0   -1152448.9 2.5328663e-06 -1.448011e-06 2.5965682e-07 
    4173   -1152448.9            0   -1152448.9 -1.1230711e-07 1.4366916e-07 -7.4542816e-09 
Loop time of 3.87467 on 104 procs for 336 steps with 288751 atoms

99.9% CPU use with 104 MPI tasks x 1 OpenMP threads

Minimization stats:
  Stopping criterion = energy tolerance
  Energy initial, next-to-last, final = 
     -1152448.87260083  -1152448.87497751  -1152448.87497751
  Force two-norm initial, final = 0.19787876 6.6468905e-07
  Force max component initial, final = 0.086039742 2.3968472e-07
  Final line search alpha, max atom move = 1.0000000 2.3968472e-07
  Iterations, force evaluations = 336 672

MPI task timing breakdown:
Section |  min time  |  avg time  |  max time  |%varavg| %total
---------------------------------------------------------------
Pair    | 1.0155     | 2.8197     | 3.6728     |  45.4 | 72.77
Neigh   | 0          | 0          | 0          |   0.0 |  0.00
Comm    | 0.059057   | 0.63264    | 1.9243     |  67.8 | 16.33
Output  | 0.0001623  | 0.00017283 | 0.00032202 |   0.0 |  0.00
Modify  | 3.9935e-05 | 0.0055402  | 0.011948   |   3.5 |  0.14
Other   |            | 0.4166     |            |       | 10.75

Nlocal:        2776.45 ave        3957 max           0 min
Histogram: 8 4 4 0 4 12 8 2 28 34
Nghost:        3879.20 ave        5426 max         232 min
Histogram: 8 0 8 0 16 0 8 8 16 40
Neighs:        79213.4 ave      115331 max           0 min
Histogram: 8 4 4 0 10 6 8 8 24 32

Total # of neighbors = 8238193
Ave neighs/atom = 28.530440
Neighbor list builds = 0
Dangerous builds = 0
The dot product: -2.71137648275118e-09
Setting atom values ...
  1 settings made for x
  1 settings made for y
  1 settings made for z
Setting up cg style minimization ...
  Unit style    : metal
  Current step  : 4173
Per MPI rank memory allocation (min/avg/max) = 5.441 | 5.816 | 6.074 Mbytes
Step PotEng KinEng TotEng v_fx v_fy v_fz 
    4173   -1152448.9            0   -1152448.9 -0.038776388  0.039566665 -0.0010234829 
    4357   -1152448.9            0   -1152448.9 4.1073441e-05 -4.7710911e-05 6.0290225e-07 
Loop time of 2.12689 on 104 procs for 184 steps with 288751 atoms

99.9% CPU use with 104 MPI tasks x 1 OpenMP threads

Minimization stats:
  Stopping criterion = energy tolerance
  Energy initial, next-to-last, final = 
     -1152448.85937859   -1152448.8617968   -1152448.8617968
  Force two-norm initial, final = 0.19309481 0.00019606726
  Force max component initial, final = 0.082678813 5.1620533e-05
  Final line search alpha, max atom move = 1.0000000 5.1620533e-05
  Iterations, force evaluations = 184 368

MPI task timing breakdown:
Section |  min time  |  avg time  |  max time  |%varavg| %total
---------------------------------------------------------------
Pair    | 0.55661    | 1.5434     | 2.0046     |  33.5 | 72.57
Neigh   | 0          | 0          | 0          |   0.0 |  0.00
Comm    | 0.033164   | 0.34531    | 1.0534     |  49.7 | 16.24
Output  | 0          | 0          | 0          |   0.0 |  0.00
Modify  | 2.0882e-05 | 0.0030356  | 0.0065405  |   2.6 |  0.14
Other   |            | 0.2351     |            |       | 11.06

Nlocal:        2776.45 ave        3957 max           0 min
Histogram: 8 4 4 0 4 12 8 2 28 34
Nghost:        3879.19 ave        5426 max         232 min
Histogram: 8 0 8 0 16 0 8 8 16 40
Neighs:        79213.4 ave      115331 max           0 min
Histogram: 8 4 4 0 10 6 8 8 24 32

Total # of neighbors = 8238193
Ave neighs/atom = 28.530440
Neighbor list builds = 0
Dangerous builds = 0
The dot product: 9.4866572227761e-07
Setting atom values ...
  1 settings made for x
  1 settings made for y
  1 settings made for z
Setting up cg style minimization ...
  Unit style    : metal
  Current step  : 4357
Per MPI rank memory allocation (min/avg/max) = 5.441 | 5.816 | 6.074 Mbytes
Step PotEng KinEng TotEng v_fx v_fy v_fz 
    4357   -1152448.8            0   -1152448.8 -0.037651599  0.040545673 0.0011949808 
    4532   -1152448.8            0   -1152448.8 -5.343261e-07 -7.4666119e-06 -8.9050154e-07 
Loop time of 2.02799 on 104 procs for 175 steps with 288751 atoms

99.9% CPU use with 104 MPI tasks x 1 OpenMP threads

Minimization stats:
  Stopping criterion = energy tolerance
  Energy initial, next-to-last, final = 
     -1152448.84519016  -1152448.84726405  -1152448.84726405
  Force two-norm initial, final = 0.19619806 0.00020024511
  Force max component initial, final = 0.0795577 5.0512221e-05
  Final line search alpha, max atom move = 1.0000000 5.0512221e-05
  Iterations, force evaluations = 175 350

MPI task timing breakdown:
Section |  min time  |  avg time  |  max time  |%varavg| %total
---------------------------------------------------------------
Pair    | 0.53108    | 1.4686     | 1.9078     |  32.6 | 72.42
Neigh   | 0          | 0          | 0          |   0.0 |  0.00
Comm    | 0.030463   | 0.32898    | 0.99308    |  48.4 | 16.22
Output  | 0          | 0          | 0          |   0.0 |  0.00
Modify  | 2.011e-05  | 0.0028874  | 0.0062033  |   2.5 |  0.14
Other   |            | 0.2275     |            |       | 11.22

Nlocal:        2776.45 ave        3956 max           0 min
Histogram: 8 4 4 0 4 12 8 2 28 34
Nghost:        3879.20 ave        5426 max         232 min
Histogram: 8 0 8 0 16 0 8 8 16 40
Neighs:        79213.4 ave      115296 max           0 min
Histogram: 8 4 4 0 10 6 8 8 24 32

Total # of neighbors = 8238192
Ave neighs/atom = 28.530436
Neighbor list builds = 0
Dangerous builds = 0
The dot product: 5.62235686571826e-08
Setting atom values ...
  1 settings made for x
  1 settings made for y
  1 settings made for z
Setting up cg style minimization ...
  Unit style    : metal
  Current step  : 4532
Per MPI rank memory allocation (min/avg/max) = 5.441 | 5.816 | 6.074 Mbytes
Step PotEng KinEng TotEng v_fx v_fy v_fz 
    4532   -1152448.8            0   -1152448.8 -0.039293615    0.0478589 0.0034078554 
    4780   -1152448.8            0   -1152448.8 -2.9902945e-06 3.081448e-06 1.8564721e-07 
Loop time of 2.87465 on 104 procs for 248 steps with 288751 atoms

99.9% CPU use with 104 MPI tasks x 1 OpenMP threads

Minimization stats:
  Stopping criterion = energy tolerance
  Energy initial, next-to-last, final = 
     -1152448.82928248  -1152448.83143428  -1152448.83143428
  Force two-norm initial, final = 0.2002484 1.7632777e-05
  Force max component initial, final = 0.077573384 3.0814480e-06
  Final line search alpha, max atom move = 1.0000000 3.0814480e-06
  Iterations, force evaluations = 248 496

MPI task timing breakdown:
Section |  min time  |  avg time  |  max time  |%varavg| %total
---------------------------------------------------------------
Pair    | 0.74988    | 2.0902     | 2.7201     |  39.0 | 72.71
Neigh   | 0          | 0          | 0          |   0.0 |  0.00
Comm    | 0.042568   | 0.46633    | 1.4172     |  58.2 | 16.22
Output  | 0          | 0          | 0          |   0.0 |  0.00
Modify  | 2.7716e-05 | 0.0040962  | 0.0088144  |   3.0 |  0.14
Other   |            | 0.3141     |            |       | 10.92

Nlocal:        2776.45 ave        3956 max           0 min
Histogram: 8 4 4 0 4 12 8 2 28 34
Nghost:        3879.09 ave        5424 max         232 min
Histogram: 8 0 8 0 16 0 8 8 16 40
Neighs:        79213.4 ave      115291 max           0 min
Histogram: 8 4 4 0 10 6 8 8 24 32

Total # of neighbors = 8238191
Ave neighs/atom = 28.530433
Neighbor list builds = 0
Dangerous builds = 0
The dot product: -4.46762939848258e-08
Setting atom values ...
  1 settings made for x
  1 settings made for y
  1 settings made for z
Setting up cg style minimization ...
  Unit style    : metal
  Current step  : 4780
Per MPI rank memory allocation (min/avg/max) = 5.441 | 5.816 | 6.074 Mbytes
Step PotEng KinEng TotEng v_fx v_fy v_fz 
    4780   -1152448.8            0   -1152448.8 -0.037948061  0.049918778  0.005206877 
    4981   -1152448.8            0   -1152448.8 1.0201041e-05 -1.0999743e-05 -1.0428128e-06 
Loop time of 2.31474 on 104 procs for 201 steps with 288751 atoms

99.9% CPU use with 104 MPI tasks x 1 OpenMP threads

Minimization stats:
  Stopping criterion = energy tolerance
  Energy initial, next-to-last, final = 
      -1152448.8121993  -1152448.81422858  -1152448.81422858
  Force two-norm initial, final = 0.20237127 9.5382601e-05
  Force max component initial, final = 0.080814775 2.2846454e-05
  Final line search alpha, max atom move = 1.0000000 2.2846454e-05
  Iterations, force evaluations = 201 402

MPI task timing breakdown:
Section |  min time  |  avg time  |  max time  |%varavg| %total
---------------------------------------------------------------
Pair    | 0.60691    | 1.6808     | 2.1915     |  35.0 | 72.61
Neigh   | 0          | 0          | 0          |   0.0 |  0.00
Comm    | 0.035372   | 0.375      | 1.1362     |  52.2 | 16.20
Output  | 0          | 0          | 0          |   0.0 |  0.00
Modify  | 2.2244e-05 | 0.0033091  | 0.0070754  |   2.7 |  0.14
Other   |            | 0.2556     |            |       | 11.04

Nlocal:        2776.45 ave        3956 max           0 min
Histogram: 8 4 4 0 4 12 8 2 28 34
Nghost:        3879.12 ave        5424 max         232 min
Histogram: 8 0 8 0 16 0 8 8 16 40
Neighs:        79213.4 ave      115296 max           0 min
Histogram: 8 4 4 0 10 6 8 8 24 32

Total # of neighbors = 8238192
Ave neighs/atom = 28.530436
Neighbor list builds = 0
Dangerous builds = 0
The dot product: 8.73425828283588e-08
Setting atom values ...
  1 settings made for x
  1 settings made for y
  1 settings made for z
Setting up cg style minimization ...
  Unit style    : metal
  Current step  : 4981
Per MPI rank memory allocation (min/avg/max) = 5.441 | 5.816 | 6.074 Mbytes
Step PotEng KinEng TotEng v_fx v_fy v_fz 
    4981   -1152448.8            0   -1152448.8 -0.042675285  0.057103152 0.0068600274 
    5000   -1152448.8            0   -1152448.8 0.0005647488 -0.00071370675 -8.426441e-05 
    5234   -1152448.8            0   -1152448.8 1.7934642e-06 -1.6775787e-06 -1.7613785e-07 
Loop time of 2.95794 on 104 procs for 253 steps with 288751 atoms

99.9% CPU use with 104 MPI tasks x 1 OpenMP threads

Minimization stats:
  Stopping criterion = energy tolerance
  Energy initial, next-to-last, final = 
     -1152448.79360414  -1152448.79559156  -1152448.79559156
  Force two-norm initial, final = 0.20608807 9.5690034e-06
  Force max component initial, final = 0.082636516 2.7379127e-06
  Final line search alpha, max atom move = 1.0000000 2.7379127e-06
  Iterations, force evaluations = 253 506

MPI task timing breakdown:
Section |  min time  |  avg time  |  max time  |%varavg| %total
---------------------------------------------------------------
Pair    | 0.77093    | 2.1393     | 2.7903     |  39.4 | 72.32
Neigh   | 0          | 0          | 0          |   0.0 |  0.00
Comm    | 0.059067   | 0.4811     | 1.4786     |  58.4 | 16.26
Output  | 0.00015598 | 0.00015787 | 0.00023262 |   0.0 |  0.01
Modify  | 2.8578e-05 | 0.004172   | 0.0089694  |   3.1 |  0.14
Other   |            | 0.3332     |            |       | 11.27

Nlocal:        2776.45 ave        3955 max           0 min
Histogram: 8 4 4 0 4 12 8 2 28 34
Nghost:        3879.12 ave        5424 max         232 min
Histogram: 8 0 8 0 16 0 8 8 16 40
Neighs:        79213.4 ave      115263 max           0 min
Histogram: 8 4 4 0 10 6 8 8 24 32

Total # of neighbors = 8238190
Ave neighs/atom = 28.530429
Neighbor list builds = 0
Dangerous builds = 0
The dot product: 6.44654409630023e-09
Setting atom values ...
  1 settings made for x
  1 settings made for y
  1 settings made for z
Setting up cg style minimization ...
  Unit style    : metal
  Current step  : 5234
Per MPI rank memory allocation (min/avg/max) = 5.441 | 5.816 | 6.074 Mbytes
Step PotEng KinEng TotEng v_fx v_fy v_fz 
    5234   -1152448.8            0   -1152448.8 -0.046156317  0.062649384 0.0079359479 
    5431   -1152448.8            0   -1152448.8 1.4720683e-05 -1.5719971e-05 -1.860502e-06 
Loop time of 2.28975 on 104 procs for 197 steps with 288751 atoms

99.9% CPU use with 104 MPI tasks x 1 OpenMP threads

Minimization stats:
  Stopping criterion = energy tolerance
  Energy initial, next-to-last, final = 
     -1152448.77356555  -1152448.77546197  -1152448.77546197
  Force two-norm initial, final = 0.20862173 7.2368562e-05
  Force max component initial, final = 0.083377943 1.7239460e-05
  Final line search alpha, max atom move = 1.0000000 1.7239460e-05
  Iterations, force evaluations = 197 394

MPI task timing breakdown:
Section |  min time  |  avg time  |  max time  |%varavg| %total
---------------------------------------------------------------
Pair    | 0.59449    | 1.6484     | 2.1546     |  34.7 | 71.99
Neigh   | 0          | 0          | 0          |   0.0 |  0.00
Comm    | 0.034733   | 0.3695     | 1.1154     |  51.4 | 16.14
Output  | 0          | 0          | 0          |   0.0 |  0.00
Modify  | 2.1924e-05 | 0.003245   | 0.0069422  |   2.7 |  0.14
Other   |            | 0.2686     |            |       | 11.73

Nlocal:        2776.45 ave        3955 max           0 min
Histogram: 8 4 4 0 4 12 8 2 28 34
Nghost:        3879.09 ave        5424 max         232 min
Histogram: 8 0 8 0 16 0 8 8 16 40
Neighs:        79213.3 ave      115263 max           0 min
Histogram: 8 4 4 0 10 6 8 8 24 32

Total # of neighbors = 8238188
Ave neighs/atom = 28.530422
Neighbor list builds = 0
Dangerous builds = 0
The dot product: -2.1566571204069e-08
Setting atom values ...
  1 settings made for x
  1 settings made for y
  1 settings made for z
Setting up cg style minimization ...
  Unit style    : metal
  Current step  : 5431
Per MPI rank memory allocation (min/avg/max) = 5.441 | 5.816 | 6.074 Mbytes
Step PotEng KinEng TotEng v_fx v_fy v_fz 
    5431   -1152448.8            0   -1152448.8 -0.049362848  0.068768003 0.0085554365 
    5594   -1152448.8            0   -1152448.8 2.3802892e-05 -3.015764e-05 -3.6657217e-06 
Loop time of 1.91238 on 104 procs for 163 steps with 288751 atoms

99.9% CPU use with 104 MPI tasks x 1 OpenMP threads

Minimization stats:
  Stopping criterion = energy tolerance
  Energy initial, next-to-last, final = 
     -1152448.75193877  -1152448.75380415  -1152448.75380415
  Force two-norm initial, final = 0.21065065 0.00012103927
  Force max component initial, final = 0.082924563 4.0525711e-05
  Final line search alpha, max atom move = 1.0000000 4.0525711e-05
  Iterations, force evaluations = 163 326

MPI task timing breakdown:
Section |  min time  |  avg time  |  max time  |%varavg| %total
---------------------------------------------------------------
Pair    | 0.49388    | 1.3742     | 1.8097     |  31.6 | 71.86
Neigh   | 0          | 0          | 0          |   0.0 |  0.00
Comm    | 0.032503   | 0.31437    | 0.95481    |  45.9 | 16.44
Output  | 0          | 0          | 0          |   0.0 |  0.00
Modify  | 1.8321e-05 | 0.0026907  | 0.0057512  |   2.5 |  0.14
Other   |            | 0.2211     |            |       | 11.56

Nlocal:        2776.45 ave        3955 max           0 min
Histogram: 8 4 4 0 4 12 8 2 28 34
Nghost:        3879.11 ave        5424 max         232 min
Histogram: 8 0 8 0 16 0 8 8 16 40
Neighs:        79213.3 ave      115263 max           0 min
Histogram: 8 4 4 0 10 6 8 8 24 32

Total # of neighbors = 8238188
Ave neighs/atom = 28.530422
Neighbor list builds = 0
Dangerous builds = 0
The dot product: -1.36529459584426e-07
Setting atom values ...
  1 settings made for x
  1 settings made for y
  1 settings made for z
Setting up cg style minimization ...
  Unit style    : metal
  Current step  : 5594
Per MPI rank memory allocation (min/avg/max) = 5.441 | 5.816 | 6.074 Mbytes
Step PotEng KinEng TotEng v_fx v_fy v_fz 
    5594   -1152448.7            0   -1152448.7 -0.051447835  0.072642995 0.0084488988 
    5877   -1152448.7            0   -1152448.7 -2.1202798e-07 2.4220264e-07 2.653247e-08 
Loop time of 3.27421 on 104 procs for 283 steps with 288751 atoms

99.9% CPU use with 104 MPI tasks x 1 OpenMP threads

Minimization stats:
  Stopping criterion = energy tolerance
  Energy initial, next-to-last, final = 
     -1152448.72878182  -1152448.73062477  -1152448.73062477
  Force two-norm initial, final = 0.21133285 1.5302720e-06
  Force max component initial, final = 0.081697592 4.6826442e-07
  Final line search alpha, max atom move = 1.0000000 4.6826442e-07
  Iterations, force evaluations = 283 566

MPI task timing breakdown:
Section |  min time  |  avg time  |  max time  |%varavg| %total
---------------------------------------------------------------
Pair    | 0.85133    | 2.3736     | 3.0937     |  41.8 | 72.49
Neigh   | 0          | 0          | 0          |   0.0 |  0.00
Comm    | 0.04933    | 0.53324    | 1.6316     |  61.9 | 16.29
Output  | 0          | 0          | 0          |   0.0 |  0.00
Modify  | 3.1498e-05 | 0.0046726  | 0.010085   |   3.3 |  0.14
Other   |            | 0.3627     |            |       | 11.08

Nlocal:        2776.45 ave        3955 max           0 min
Histogram: 8 4 4 0 4 12 8 2 28 34
Nghost:        3879.11 ave        5424 max         232 min
Histogram: 8 0 8 0 16 0 8 8 16 40
Neighs:        79213.3 ave      115264 max           0 min
Histogram: 8 4 4 0 10 6 8 8 24 32

Total # of neighbors = 8238187
Ave neighs/atom = 28.530419
Neighbor list builds = 0
Dangerous builds = 0
The dot product: 1.57208007718356e-09
Setting atom values ...
  1 settings made for x
  1 settings made for y
  1 settings made for z
Setting up cg style minimization ...
  Unit style    : metal
  Current step  : 5877
Per MPI rank memory allocation (min/avg/max) = 5.441 | 5.816 | 6.074 Mbytes
Step PotEng KinEng TotEng v_fx v_fy v_fz 
    5877   -1152448.7            0   -1152448.7 -0.053104942  0.074485017 0.0077927238 
    6000   -1152448.7            0   -1152448.7  0.000230078 -0.00029011249 -2.9373702e-05 
    6064   -1152448.7            0   -1152448.7 -5.7848713e-07 -3.9164464e-08 -2.962467e-08 
Loop time of 2.15177 on 104 procs for 187 steps with 288751 atoms

99.9% CPU use with 104 MPI tasks x 1 OpenMP threads

Minimization stats:
  Stopping criterion = energy tolerance
  Energy initial, next-to-last, final = 
     -1152448.70412263  -1152448.70593839  -1152448.70593839
  Force two-norm initial, final = 0.21102557 5.3365752e-05
  Force max component initial, final = 0.080038805 4.2859354e-06
  Final line search alpha, max atom move = 1.0000000 4.2859354e-06
  Iterations, force evaluations = 187 374

MPI task timing breakdown:
Section |  min time  |  avg time  |  max time  |%varavg| %total
---------------------------------------------------------------
Pair    | 0.56581    | 1.5724     | 2.0376     |  33.7 | 73.08
Neigh   | 0          | 0          | 0          |   0.0 |  0.00
Comm    | 0.033027   | 0.35148    | 1.0709     |  50.6 | 16.33
Output  | 0.00014511 | 0.00015718 | 0.00029707 |   0.0 |  0.01
Modify  | 2.1782e-05 | 0.0030878  | 0.0066278  |   2.6 |  0.14
Other   |            | 0.2246     |            |       | 10.44

Nlocal:        2776.45 ave        3955 max           0 min
Histogram: 8 4 4 0 4 12 8 2 28 34
Nghost:        3879.11 ave        5424 max         232 min
Histogram: 8 0 8 0 16 0 8 8 16 40
Neighs:        79213.3 ave      115272 max           0 min
Histogram: 8 4 4 0 10 6 8 8 24 32

Total # of neighbors = 8238187
Ave neighs/atom = 28.530419
Neighbor list builds = 0
Dangerous builds = 0
The dot product: 5.66634573454339e-10
Setting atom values ...
  1 settings made for x
  1 settings made for y
  1 settings made for z
Setting up cg style minimization ...
  Unit style    : metal
  Current step  : 6064
Per MPI rank memory allocation (min/avg/max) = 5.441 | 5.816 | 6.074 Mbytes
Step PotEng KinEng TotEng v_fx v_fy v_fz 
    6064   -1152448.7            0   -1152448.7 -0.054762361  0.074590426 0.0067524851 
    6270   -1152448.7            0   -1152448.7 5.7522109e-07 -1.2878819e-06 -1.3309612e-07 
Loop time of 2.37047 on 104 procs for 206 steps with 288751 atoms

99.9% CPU use with 104 MPI tasks x 1 OpenMP threads

Minimization stats:
  Stopping criterion = energy tolerance
  Energy initial, next-to-last, final = 
     -1152448.67798491   -1152448.6797659   -1152448.6797659
  Force two-norm initial, final = 0.20996818 4.2244108e-05
  Force max component initial, final = 0.079969609 3.4884493e-06
  Final line search alpha, max atom move = 1.0000000 3.4884493e-06
  Iterations, force evaluations = 206 412

MPI task timing breakdown:
Section |  min time  |  avg time  |  max time  |%varavg| %total
---------------------------------------------------------------
Pair    | 0.62191    | 1.7255     | 2.246      |  35.5 | 72.79
Neigh   | 0          | 0          | 0          |   0.0 |  0.00
Comm    | 0.035494   | 0.38623    | 1.1773     |  53.1 | 16.29
Output  | 0          | 0          | 0          |   0.0 |  0.00
Modify  | 2.3184e-05 | 0.0033934  | 0.0072846  |   2.8 |  0.14
Other   |            | 0.2554     |            |       | 10.77

Nlocal:        2776.45 ave        3955 max           0 min
Histogram: 8 4 4 0 4 12 8 2 28 34
Nghost:        3879.12 ave        5424 max         232 min
Histogram: 8 0 8 0 16 0 8 8 16 40
Neighs:        79213.3 ave      115270 max           0 min
Histogram: 8 4 4 0 10 6 8 8 24 32

Total # of neighbors = 8238186
Ave neighs/atom = 28.530415
Neighbor list builds = 0
Dangerous builds = 0
The dot product: -1.00876011722523e-08
Setting atom values ...
  1 settings made for x
  1 settings made for y
  1 settings made for z
Setting up cg style minimization ...
  Unit style    : metal
  Current step  : 6270
Per MPI rank memory allocation (min/avg/max) = 5.441 | 5.816 | 6.074 Mbytes
Step PotEng KinEng TotEng v_fx v_fy v_fz 
    6270   -1152448.7            0   -1152448.7 -0.056690926  0.073125598 0.0054433959 
    6422   -1152448.7            0   -1152448.7 2.9442059e-06 2.0293758e-06 3.668448e-07 
Loop time of 1.7801 on 104 procs for 152 steps with 288751 atoms

99.9% CPU use with 104 MPI tasks x 1 OpenMP threads

Minimization stats:
  Stopping criterion = energy tolerance
  Energy initial, next-to-last, final = 
     -1152448.65039431  -1152448.65213431  -1152448.65213431
  Force two-norm initial, final = 0.20843329 0.00018782422
  Force max component initial, final = 0.081826189 3.5281828e-05
  Final line search alpha, max atom move = 1.0000000 3.5281828e-05
  Iterations, force evaluations = 152 304

MPI task timing breakdown:
Section |  min time  |  avg time  |  max time  |%varavg| %total
---------------------------------------------------------------
Pair    | 0.45989    | 1.2824     | 1.6601     |  30.3 | 72.04
Neigh   | 0          | 0          | 0          |   0.0 |  0.00
Comm    | 0.026572   | 0.28786    | 0.88592    |  45.6 | 16.17
Output  | 0          | 0          | 0          |   0.0 |  0.00
Modify  | 1.7323e-05 | 0.0025128  | 0.0053858  |   2.4 |  0.14
Other   |            | 0.2073     |            |       | 11.65

Nlocal:        2776.45 ave        3956 max           0 min
Histogram: 8 4 4 0 4 12 8 2 28 34
Nghost:        3879.14 ave        5424 max         232 min
Histogram: 8 0 8 0 16 0 8 8 16 40
Neighs:        79213.3 ave      115306 max           0 min
Histogram: 8 4 4 0 10 6 8 8 24 32

Total # of neighbors = 8238188
Ave neighs/atom = 28.530422
Neighbor list builds = 0
Dangerous builds = 0
The dot product: 7.36554532579026e-09
Setting atom values ...
  1 settings made for x
  1 settings made for y
  1 settings made for z
Setting up cg style minimization ...
  Unit style    : metal
  Current step  : 6422
Per MPI rank memory allocation (min/avg/max) = 5.441 | 5.816 | 6.074 Mbytes
Step PotEng KinEng TotEng v_fx v_fy v_fz 
    6422   -1152448.6            0   -1152448.6  -0.05916649   0.07003372 0.0039249039 
    6587   -1152448.6            0   -1152448.6 -2.9557724e-05 3.941464e-05 2.4025238e-06 
Loop time of 1.89603 on 104 procs for 165 steps with 288751 atoms

99.9% CPU use with 104 MPI tasks x 1 OpenMP threads

Minimization stats:
  Stopping criterion = energy tolerance
  Energy initial, next-to-last, final = 
      -1152448.6213822  -1152448.62307825  -1152448.62307825
  Force two-norm initial, final = 0.20660908 0.00012228933
  Force max component initial, final = 0.083711621 3.9414640e-05
  Final line search alpha, max atom move = 1.0000000 3.9414640e-05
  Iterations, force evaluations = 165 330

MPI task timing breakdown:
Section |  min time  |  avg time  |  max time  |%varavg| %total
---------------------------------------------------------------
Pair    | 0.49923    | 1.3798     | 1.7965     |  31.7 | 72.77
Neigh   | 0          | 0          | 0          |   0.0 |  0.00
Comm    | 0.030175   | 0.30766    | 0.93117    |  47.3 | 16.23
Output  | 0          | 0          | 0          |   0.0 |  0.00
Modify  | 1.8976e-05 | 0.0027221  | 0.0058174  |   2.5 |  0.14
Other   |            | 0.2059     |            |       | 10.86

Nlocal:        2776.45 ave        3956 max           0 min
Histogram: 8 4 4 0 4 12 8 2 28 34
Nghost:        3879.12 ave        5424 max         232 min
Histogram: 8 0 8 0 16 0 8 8 16 40
Neighs:        79213.3 ave      115306 max           0 min
Histogram: 8 4 4 0 10 6 8 8 24 32

Total # of neighbors = 8238188
Ave neighs/atom = 28.530422
Neighbor list builds = 0
Dangerous builds = 0
The dot product: 3.74925353397442e-07
Setting atom values ...
  1 settings made for x
  1 settings made for y
  1 settings made for z
Setting up cg style minimization ...
  Unit style    : metal
  Current step  : 6587
Per MPI rank memory allocation (min/avg/max) = 5.441 | 5.816 | 6.074 Mbytes
Step PotEng KinEng TotEng v_fx v_fy v_fz 
    6587   -1152448.6            0   -1152448.6 -0.062329797  0.065310639 0.0022417918 
    6763   -1152448.6            0   -1152448.6 8.9668194e-06 -1.0419427e-05 -4.1319913e-07 
Loop time of 2.05003 on 104 procs for 176 steps with 288751 atoms

99.9% CPU use with 104 MPI tasks x 1 OpenMP threads

Minimization stats:
  Stopping criterion = energy tolerance
  Energy initial, next-to-last, final = 
     -1152448.59099136  -1152448.59264487  -1152448.59264487
  Force two-norm initial, final = 0.20474528 8.4636125e-05
  Force max component initial, final = 0.08563415 1.6266187e-05
  Final line search alpha, max atom move = 1.0000000 1.6266187e-05
  Iterations, force evaluations = 176 352

MPI task timing breakdown:
Section |  min time  |  avg time  |  max time  |%varavg| %total
---------------------------------------------------------------
Pair    | 0.53269    | 1.4861     | 1.9459     |  32.9 | 72.49
Neigh   | 0          | 0          | 0          |   0.0 |  0.00
Comm    | 0.030175   | 0.33531    | 1.0156     |  48.8 | 16.36
Output  | 0          | 0          | 0          |   0.0 |  0.00
Modify  | 1.9989e-05 | 0.0029078  | 0.0062857  |   2.6 |  0.14
Other   |            | 0.2257     |            |       | 11.01

Nlocal:        2776.45 ave        3957 max           0 min
Histogram: 8 4 4 0 4 12 8 2 28 34
Nghost:        3879.05 ave        5424 max         232 min
Histogram: 8 0 8 0 16 0 8 8 16 40
Neighs:        79213.3 ave      115320 max           0 min
Histogram: 8 4 4 0 10 6 8 8 24 32

Total # of neighbors = 8238186
Ave neighs/atom = 28.530415
Neighbor list builds = 0
Dangerous builds = 0
The dot product: -1.09825801324824e-07
Setting atom values ...
  1 settings made for x
  1 settings made for y
  1 settings made for z
Setting up cg style minimization ...
  Unit style    : metal
  Current step  : 6763
Per MPI rank memory allocation (min/avg/max) = 5.441 | 5.816 | 6.074 Mbytes
Step PotEng KinEng TotEng v_fx v_fy v_fz 
    6763   -1152448.6            0   -1152448.6 -0.065583238  0.059210914 0.0004608286 
    6919   -1152448.6            0   -1152448.6 3.6610661e-05 -5.5115075e-05 -1.9878346e-06 
Loop time of 1.80051 on 104 procs for 156 steps with 288751 atoms

99.9% CPU use with 104 MPI tasks x 1 OpenMP threads

Minimization stats:
  Stopping criterion = energy tolerance
  Energy initial, next-to-last, final = 
     -1152448.55931733  -1152448.56093168  -1152448.56093168
  Force two-norm initial, final = 0.20257603 0.00016008448
  Force max component initial, final = 0.087526469 5.5115075e-05
  Final line search alpha, max atom move = 1.0000000 5.5115075e-05
  Iterations, force evaluations = 156 312

MPI task timing breakdown:
Section |  min time  |  avg time  |  max time  |%varavg| %total
---------------------------------------------------------------
Pair    | 0.47149    | 1.3059     | 1.7079     |  30.9 | 72.53
Neigh   | 0          | 0          | 0          |   0.0 |  0.00
Comm    | 0.027449   | 0.29213    | 0.88642    |  45.7 | 16.22
Output  | 0          | 0          | 0          |   0.0 |  0.00
Modify  | 1.7334e-05 | 0.0025719  | 0.0055014  |   2.4 |  0.14
Other   |            | 0.1999     |            |       | 11.10

Nlocal:        2776.45 ave        3957 max           0 min
Histogram: 8 4 4 0 4 12 8 2 28 34
Nghost:        3879.03 ave        5424 max         232 min
Histogram: 8 0 8 0 16 0 8 8 16 40
Neighs:        79213.4 ave      115322 max           0 min
Histogram: 8 4 4 0 10 6 8 8 24 32

Total # of neighbors = 8238192
Ave neighs/atom = 28.530436
Neighbor list builds = 0
Dangerous builds = 0
The dot product: -5.74545333151307e-07
Setting atom values ...
  1 settings made for x
  1 settings made for y
  1 settings made for z
Setting up cg style minimization ...
  Unit style    : metal
  Current step  : 6919
Per MPI rank memory allocation (min/avg/max) = 5.441 | 5.816 | 6.074 Mbytes
Step PotEng KinEng TotEng v_fx v_fy v_fz 
    6919   -1152448.5            0   -1152448.5  -0.07667642   0.04766501 -0.0023805468 
    7000   -1152448.6            0   -1152448.6  0.002237671 -0.0024786413 -6.8978661e-06 
    7177   -1152448.6            0   -1152448.6 -4.1747047e-05 4.6962396e-05 1.7922502e-07 
Loop time of 3.03094 on 104 procs for 258 steps with 288751 atoms

99.9% CPU use with 104 MPI tasks x 1 OpenMP threads

Minimization stats:
  Stopping criterion = energy tolerance
  Energy initial, next-to-last, final = 
     -1152448.52661314  -1152448.61437101  -1152448.61437101
  Force two-norm initial, final = 0.20280561 0.00020463854
  Force max component initial, final = 0.089313552 6.6704983e-05
  Final line search alpha, max atom move = 1.0000000 6.6704983e-05
  Iterations, force evaluations = 258 515

MPI task timing breakdown:
Section |  min time  |  avg time  |  max time  |%varavg| %total
---------------------------------------------------------------
Pair    | 0.79785    | 2.1772     | 2.8292     |  39.3 | 71.83
Neigh   | 3.0405e-05 | 0.0088738  | 0.012895   |   3.9 |  0.29
Comm    | 0.063493   | 0.48894    | 1.4777     |  59.0 | 16.13
Output  | 0.00014753 | 0.00015049 | 0.00029253 |   0.0 |  0.00
Modify  | 2.8755e-05 | 0.0042458  | 0.0091368  |   3.1 |  0.14
Other   |            | 0.3515     |            |       | 11.60

Nlocal:        2776.45 ave        3957 max           0 min
Histogram: 8 4 4 0 4 12 8 2 28 34
Nghost:        3879.07 ave        5424 max         232 min
Histogram: 8 0 8 0 16 0 8 8 16 40
Neighs:        79213.5 ave      115328 max           0 min
Histogram: 8 4 4 0 10 6 8 8 24 32

Total # of neighbors = 8238201
Ave neighs/atom = 28.530467
Neighbor list builds = 3
Dangerous builds = 0
The dot product: 6.46193261589997e-06
Setting atom values ...
  1 settings made for x
  1 settings made for y
  1 settings made for z
Setting up cg style minimization ...
  Unit style    : metal
  Current step  : 7177
Per MPI rank memory allocation (min/avg/max) = 5.441 | 5.816 | 6.074 Mbytes
Step PotEng KinEng TotEng v_fx v_fy v_fz 
    7177   -1152448.6            0   -1152448.6  -0.16427007 4.0043461e-05 -0.086143772 
    7485     -1152449            0     -1152449 -1.3495281e-05 -1.1354226e-05 -1.0058219e-05 
Loop time of 3.57297 on 104 procs for 308 steps with 288751 atoms

99.9% CPU use with 104 MPI tasks x 1 OpenMP threads

Minimization stats:
  Stopping criterion = energy tolerance
  Energy initial, next-to-last, final = 
     -1152448.60765779  -1152448.99768832  -1152448.99768832
  Force two-norm initial, final = 0.23220869 0.00010988729
  Force max component initial, final = 0.16427007 2.7622650e-05
  Final line search alpha, max atom move = 1.0000000 2.7622650e-05
  Iterations, force evaluations = 308 614

MPI task timing breakdown:
Section |  min time  |  avg time  |  max time  |%varavg| %total
---------------------------------------------------------------
Pair    | 0.95701    | 2.5777     | 3.3443     |  42.7 | 72.15
Neigh   | 7.1577e-05 | 0.020712   | 0.030173   |   5.9 |  0.58
Comm    | 0.058032   | 0.5768     | 1.7508     |  64.5 | 16.14
Output  | 0          | 0          | 0          |   0.0 |  0.00
Modify  | 3.4444e-05 | 0.0050606  | 0.01087    |   3.4 |  0.14
Other   |            | 0.3927     |            |       | 10.99

Nlocal:        2776.45 ave        3960 max           0 min
Histogram: 8 4 4 0 4 12 8 2 28 34
Nghost:        3879.10 ave        5425 max         232 min
Histogram: 8 0 8 0 16 0 8 8 16 40
Neighs:        79213.6 ave      115438 max           0 min
Histogram: 8 4 4 0 10 6 8 8 24 32

Total # of neighbors = 8238218
Ave neighs/atom = 28.530526
Neighbor list builds = 7
Dangerous builds = 0
The dot product: 6.32578385399167e-06
Setting atom values ...
  1 settings made for x
  1 settings made for y
  1 settings made for z
Setting up cg style minimization ...
  Unit style    : metal
  Current step  : 7485
Per MPI rank memory allocation (min/avg/max) = 5.441 | 5.816 | 6.074 Mbytes
Step PotEng KinEng TotEng v_fx v_fy v_fz 
    7485     -1152449            0     -1152449   0.38735756  -0.45703894   0.81277153 
    7737   -1152449.2            0   -1152449.2 -3.3005437e-05 1.4782854e-06 -6.2665937e-05 
Loop time of 2.92551 on 104 procs for 252 steps with 288751 atoms

99.9% CPU use with 104 MPI tasks x 1 OpenMP threads

Minimization stats:
  Stopping criterion = energy tolerance
  Energy initial, next-to-last, final = 
     -1152449.02125281  -1152449.18282182  -1152449.18282182
  Force two-norm initial, final = 1.0213278 0.00019399658
  Force max component initial, final = 0.81277153 6.2665937e-05
  Final line search alpha, max atom move = 1.0000000 6.2665937e-05
  Iterations, force evaluations = 252 504

MPI task timing breakdown:
Section |  min time  |  avg time  |  max time  |%varavg| %total
---------------------------------------------------------------
Pair    | 0.76842    | 2.1202     | 2.7633     |  39.0 | 72.47
Neigh   | 2.0115e-05 | 0.005916   | 0.0085922  |   3.2 |  0.20
Comm    | 0.055368   | 0.47826    | 1.4658     |  57.6 | 16.35
Output  | 0          | 0          | 0          |   0.0 |  0.00
Modify  | 2.9212e-05 | 0.0041516  | 0.0088781  |   3.1 |  0.14
Other   |            | 0.317      |            |       | 10.84

Nlocal:        2776.45 ave        3961 max           0 min
Histogram: 8 4 4 0 6 10 8 6 24 34
Nghost:        3879.20 ave        5426 max         232 min
Histogram: 8 0 8 0 16 0 8 8 16 40
Neighs:        79213.5 ave      115425 max           0 min
Histogram: 8 4 4 0 10 6 8 8 24 32

Total # of neighbors = 8238206
Ave neighs/atom = 28.530485
Neighbor list builds = 2
Dangerous builds = 0
The dot product: -1.85765206523421e-05
Setting atom values ...
  1 settings made for x
  1 settings made for y
  1 settings made for z
Setting up cg style minimization ...
  Unit style    : metal
  Current step  : 7737
Per MPI rank memory allocation (min/avg/max) = 5.441 | 5.816 | 6.074 Mbytes
Step PotEng KinEng TotEng v_fx v_fy v_fz 
    7737   -1152449.2            0   -1152449.2  -0.25851959   0.27026499  -0.24641734 
    7965   -1152449.2            0   -1152449.2 -7.6430317e-06 -2.2919796e-05 -1.2174668e-05 
Loop time of 2.62857 on 104 procs for 228 steps with 288751 atoms

99.9% CPU use with 104 MPI tasks x 1 OpenMP threads

Minimization stats:
  Stopping criterion = energy tolerance
  Energy initial, next-to-last, final = 
     -1152449.20672078  -1152449.23278877  -1152449.23278877
  Force two-norm initial, final = 0.47851612 0.00014195266
  Force max component initial, final = 0.27026499 2.7463419e-05
  Final line search alpha, max atom move = 1.0000000 2.7463419e-05
  Iterations, force evaluations = 228 456

MPI task timing breakdown:
Section |  min time  |  avg time  |  max time  |%varavg| %total
---------------------------------------------------------------
Pair    | 0.69279    | 1.9111     | 2.4854     |  37.2 | 72.70
Neigh   | 1.2066e-05 | 0.0029529  | 0.0042836  |   2.2 |  0.11
Comm    | 0.039642   | 0.42751    | 1.2997     |  55.8 | 16.26
Output  | 0          | 0          | 0          |   0.0 |  0.00
Modify  | 2.5683e-05 | 0.0037546  | 0.00804    |   2.9 |  0.14
Other   |            | 0.2833     |            |       | 10.78

Nlocal:        2776.45 ave        3960 max           0 min
Histogram: 8 4 4 0 4 12 8 6 24 34
Nghost:        3879.18 ave        5426 max         232 min
Histogram: 8 0 8 0 16 0 8 8 16 40
Neighs:        79213.4 ave      115413 max           0 min
Histogram: 8 4 4 0 10 6 8 8 24 32

Total # of neighbors = 8238192
Ave neighs/atom = 28.530436
Neighbor list builds = 1
Dangerous builds = 1
The dot product: -6.7622665216457e-07
Setting atom values ...
  1 settings made for x
  1 settings made for y
  1 settings made for z
Setting up cg style minimization ...
  Unit style    : metal
  Current step  : 7965
Per MPI rank memory allocation (min/avg/max) = 5.441 | 5.816 | 6.074 Mbytes
Step PotEng KinEng TotEng v_fx v_fy v_fz 
    7965   -1152449.3            0   -1152449.3  0.042747302 -0.070376248  0.052724464 
    8000   -1152449.3            0   -1152449.3 -0.00039691095 -0.00021323001 -0.00053195444 
    8196   -1152449.3            0   -1152449.3 6.4408162e-06 5.9830673e-07 8.4921898e-06 
Loop time of 2.68488 on 104 procs for 231 steps with 288751 atoms

99.9% CPU use with 104 MPI tasks x 1 OpenMP threads

Minimization stats:
  Stopping criterion = energy tolerance
  Energy initial, next-to-last, final = 
     -1152449.25418042  -1152449.25861599  -1152449.25861599
  Force two-norm initial, final = 0.1863316 4.8890558e-05
  Force max component initial, final = 0.08804366 8.4921898e-06
  Final line search alpha, max atom move = 1.0000000 8.4921898e-06
  Iterations, force evaluations = 231 462

MPI task timing breakdown:
Section |  min time  |  avg time  |  max time  |%varavg| %total
---------------------------------------------------------------
Pair    | 0.69685    | 1.9438     | 2.529      |  37.6 | 72.40
Neigh   | 0          | 0          | 0          |   0.0 |  0.00
Comm    | 0.039984   | 0.43774    | 1.3302     |  56.0 | 16.30
Output  | 0.00010221 | 0.00010954 | 0.00021703 |   0.0 |  0.00
Modify  | 2.5533e-05 | 0.0038166  | 0.0081173  |   2.9 |  0.14
Other   |            | 0.2995     |            |       | 11.15

Nlocal:        2776.45 ave        3961 max           0 min
Histogram: 8 4 4 0 6 10 8 6 24 34
Nghost:        3879.14 ave        5426 max         232 min
Histogram: 8 0 8 0 16 0 8 8 16 40
Neighs:        79213.5 ave      115431 max           0 min
Histogram: 8 4 4 0 10 6 8 8 24 32

Total # of neighbors = 8238204
Ave neighs/atom = 28.530478
Neighbor list builds = 0
Dangerous builds = 0
The dot product: 2.84755919510412e-07
Setting atom values ...
  1 settings made for x
  1 settings made for y
  1 settings made for z
Setting up cg style minimization ...
  Unit style    : metal
  Current step  : 8196
Per MPI rank memory allocation (min/avg/max) = 5.441 | 5.816 | 6.074 Mbytes
Step PotEng KinEng TotEng v_fx v_fy v_fz 
    8196   -1152449.3            0   -1152449.3 -0.038197355  0.051814238 -0.042856756 
[...]
Histogram: 8 0 8 0 16 0 8 8 16 40
Neighs:        79213.4 ave      115214 max           0 min
Histogram: 8 4 4 0 10 6 8 6 24 34

Total # of neighbors = 8238195
Ave neighs/atom = 28.530447
Neighbor list builds = 0
Dangerous builds = 0
The dot product: -1.47153587245927e-09
Setting atom values ...
  1 settings made for x
  1 settings made for y
  1 settings made for z
Setting up cg style minimization ...
  Unit style    : metal
  Current step  : 28340
Per MPI rank memory allocation (min/avg/max) = 5.441 | 5.816 | 6.075 Mbytes
Step PotEng KinEng TotEng v_fx v_fy v_fz 
   28340   -1152449.4            0   -1152449.4  0.026163738  0.015074103  0.031553829 
   28521   -1152449.4            0   -1152449.4 -3.0141509e-05 3.1974252e-06 -3.7354052e-05 
Loop time of 2.11762 on 104 procs for 181 steps with 288751 atoms

99.9% CPU use with 104 MPI tasks x 1 OpenMP threads

Minimization stats:
  Stopping criterion = energy tolerance
  Energy initial, next-to-last, final = 
     -1152449.41257348   -1152449.4140852   -1152449.4140852
  Force two-norm initial, final = 0.17777044 0.00015614013
  Force max component initial, final = 0.08153499 3.7354052e-05
  Final line search alpha, max atom move = 1.0000000 3.7354052e-05
  Iterations, force evaluations = 181 362

MPI task timing breakdown:
Section |  min time  |  avg time  |  max time  |%varavg| %total
---------------------------------------------------------------
Pair    | 0.54579    | 1.5141     | 2.0075     |  33.4 | 71.50
Neigh   | 0          | 0          | 0          |   0.0 |  0.00
Comm    | 0.030494   | 0.3456     | 1.0428     |  48.6 | 16.32
Output  | 0          | 0          | 0          |   0.0 |  0.00
Modify  | 2.2182e-05 | 0.0029887  | 0.0063439  |   2.6 |  0.14
Other   |            | 0.2549     |            |       | 12.04

Nlocal:        2776.45 ave        3958 max           0 min
Histogram: 8 4 4 0 4 12 8 4 24 36
Nghost:        3879.11 ave        5436 max         232 min
Histogram: 8 0 8 0 16 0 8 8 16 40
Neighs:        79213.5 ave      115214 max           0 min
Histogram: 8 4 4 0 10 6 8 6 24 34

Total # of neighbors = 8238199
Ave neighs/atom = 28.530461
Neighbor list builds = 0
Dangerous builds = 0
The dot product: -5.59583693491021e-08
Setting atom values ...
  1 settings made for x
  1 settings made for y
  1 settings made for z
Setting up cg style minimization ...
  Unit style    : metal
  Current step  : 28521
Per MPI rank memory allocation (min/avg/max) = 5.441 | 5.816 | 6.075 Mbytes
Step PotEng KinEng TotEng v_fx v_fy v_fz 
   28521   -1152449.4            0   -1152449.4   0.03101555 0.0074265849  0.037948609 
   28703   -1152449.4            0   -1152449.4 -2.4613829e-06 -2.3009917e-05 -1.926389e-06 
Loop time of 2.15346 on 104 procs for 182 steps with 288751 atoms

99.9% CPU use with 104 MPI tasks x 1 OpenMP threads

Minimization stats:
  Stopping criterion = energy tolerance
  Energy initial, next-to-last, final = 
     -1152449.41343641  -1152449.41497372  -1152449.41497372
  Force two-norm initial, final = 0.17940903 0.00015060245
  Force max component initial, final = 0.080873229 2.3009917e-05
  Final line search alpha, max atom move = 1.0000000 2.3009917e-05
  Iterations, force evaluations = 182 364

MPI task timing breakdown:
Section |  min time  |  avg time  |  max time  |%varavg| %total
---------------------------------------------------------------
Pair    | 0.55129    | 1.5286     | 2.027      |  33.7 | 70.99
Neigh   | 0          | 0          | 0          |   0.0 |  0.00
Comm    | 0.032004   | 0.35103    | 1.0448     |  48.3 | 16.30
Output  | 0          | 0          | 0          |   0.0 |  0.00
Modify  | 2.2237e-05 | 0.0030079  | 0.0064113  |   2.6 |  0.14
Other   |            | 0.2708     |            |       | 12.57

Nlocal:        2776.45 ave        3958 max           0 min
Histogram: 8 4 4 0 4 12 8 4 24 36
Nghost:        3879.07 ave        5436 max         232 min
Histogram: 8 0 8 0 16 0 8 8 16 40
Neighs:        79213.4 ave      115215 max           0 min
Histogram: 8 4 4 0 10 6 8 6 24 34

Total # of neighbors = 8238196
Ave neighs/atom = 28.530450
Neighbor list builds = 0
Dangerous builds = 0
The dot product: 2.55426962925845e-09
Setting atom values ...
  1 settings made for x
  1 settings made for y
  1 settings made for z
Setting up cg style minimization ...
  Unit style    : metal
  Current step  : 28703
Per MPI rank memory allocation (min/avg/max) = 5.441 | 5.816 | 6.075 Mbytes
Step PotEng KinEng TotEng v_fx v_fy v_fz 
   28703   -1152449.4            0   -1152449.4  0.035144629 0.0029481765  0.043332588 
   28872   -1152449.4            0   -1152449.4 -2.4841002e-06 1.4650412e-05 -3.7859739e-06 
Loop time of 1.97995 on 104 procs for 169 steps with 288751 atoms

99.9% CPU use with 104 MPI tasks x 1 OpenMP threads

Minimization stats:
  Stopping criterion = energy tolerance
  Energy initial, next-to-last, final = 
     -1152449.41254186  -1152449.41410446  -1152449.41410446
  Force two-norm initial, final = 0.18130509 0.00024432314
  Force max component initial, final = 0.080061205 4.3432313e-05
  Final line search alpha, max atom move = 1.0000000 4.3432313e-05
  Iterations, force evaluations = 169 338

MPI task timing breakdown:
Section |  min time  |  avg time  |  max time  |%varavg| %total
---------------------------------------------------------------
Pair    | 0.51086    | 1.4158     | 1.8786     |  32.3 | 71.50
Neigh   | 0          | 0          | 0          |   0.0 |  0.00
Comm    | 0.028795   | 0.32305    | 0.9752     |  47.0 | 16.32
Output  | 0          | 0          | 0          |   0.0 |  0.00
Modify  | 2.0515e-05 | 0.0027867  | 0.0059189  |   2.5 |  0.14
Other   |            | 0.2384     |            |       | 12.04

Nlocal:        2776.45 ave        3958 max           0 min
Histogram: 8 4 4 0 4 12 8 4 24 36
Nghost:        3879.11 ave        5437 max         232 min
Histogram: 8 0 8 0 16 0 8 8 16 40
Neighs:        79213.5 ave      115222 max           0 min
Histogram: 8 4 4 0 10 6 8 6 24 34

Total # of neighbors = 8238199
Ave neighs/atom = 28.530461
Neighbor list builds = 0
Dangerous builds = 0
The dot product: -3.6984102546625e-08
Setting atom values ...
  1 settings made for x
  1 settings made for y
  1 settings made for z
Setting up cg style minimization ...
  Unit style    : metal
  Current step  : 28872
Per MPI rank memory allocation (min/avg/max) = 5.441 | 5.816 | 6.075 Mbytes
Step PotEng KinEng TotEng v_fx v_fy v_fz 
   28872   -1152449.4            0   -1152449.4  0.035100571 0.0043992165  0.043313617 
   29000   -1152449.4            0   -1152449.4 8.4259224e-05 -9.5004577e-05 0.0001091941 
   29049   -1152449.4            0   -1152449.4 -2.8168192e-05 4.0069196e-05 -3.6914826e-05 
Loop time of 2.10383 on 104 procs for 177 steps with 288751 atoms

99.9% CPU use with 104 MPI tasks x 1 OpenMP threads

Minimization stats:
  Stopping criterion = energy tolerance
  Energy initial, next-to-last, final = 
     -1152449.41002481  -1152449.41156552  -1152449.41156552
  Force two-norm initial, final = 0.18009341 0.00018235512
  Force max component initial, final = 0.079090356 4.6283279e-05
  Final line search alpha, max atom move = 1.0000000 4.6283279e-05
  Iterations, force evaluations = 177 354

MPI task timing breakdown:
Section |  min time  |  avg time  |  max time  |%varavg| %total
---------------------------------------------------------------
Pair    | 0.53548    | 1.491      | 1.9613     |  33.0 | 70.87
Neigh   | 0          | 0          | 0          |   0.0 |  0.00
Comm    | 0.037947   | 0.34191    | 1.0291     |  48.2 | 16.25
Output  | 0.00010357 | 0.00010775 | 0.00028052 |   0.0 |  0.01
Modify  | 2.1944e-05 | 0.0029242  | 0.0062456  |   2.6 |  0.14
Other   |            | 0.2679     |            |       | 12.73

Nlocal:        2776.45 ave        3958 max           0 min
Histogram: 8 4 4 0 4 12 8 4 24 36
Nghost:        3879.07 ave        5437 max         232 min
Histogram: 8 0 8 0 16 0 8 8 16 40
Neighs:        79213.5 ave      115212 max           0 min
Histogram: 8 4 4 0 10 6 8 6 24 34

Total # of neighbors = 8238202
Ave neighs/atom = 28.530471
Neighbor list builds = 0
Dangerous builds = 0
The dot product: -2.2690138629756e-07
Setting atom values ...
  1 settings made for x
  1 settings made for y
  1 settings made for z
Setting up cg style minimization ...
  Unit style    : metal
  Current step  : 29049
Per MPI rank memory allocation (min/avg/max) = 5.441 | 5.816 | 6.075 Mbytes
Step PotEng KinEng TotEng v_fx v_fy v_fz 
   29049   -1152449.4            0   -1152449.4    0.0341848 0.0074322643  0.042129718 
   29295   -1152449.4            0   -1152449.4 1.9466979e-06 -2.4728166e-06 2.5443782e-06 
Loop time of 2.86905 on 104 procs for 246 steps with 288751 atoms

99.9% CPU use with 104 MPI tasks x 1 OpenMP threads

Minimization stats:
  Stopping criterion = energy tolerance
  Energy initial, next-to-last, final = 
     -1152449.40584548  -1152449.40734599  -1152449.40734599
  Force two-norm initial, final = 0.17783628 1.0916796e-05
  Force max component initial, final = 0.078125913 2.5443782e-06
  Final line search alpha, max atom move = 1.0000000 2.5443782e-06
  Iterations, force evaluations = 246 492

MPI task timing breakdown:
Section |  min time  |  avg time  |  max time  |%varavg| %total
---------------------------------------------------------------
Pair    | 0.74303    | 2.0604     | 2.7096     |  38.9 | 71.81
Neigh   | 0          | 0          | 0          |   0.0 |  0.00
Comm    | 0.044106   | 0.46886    | 1.4238     |  56.6 | 16.34
Output  | 0          | 0          | 0          |   0.0 |  0.00
Modify  | 3.0244e-05 | 0.0040592  | 0.0086234  |   3.0 |  0.14
Other   |            | 0.3357     |            |       | 11.70

Nlocal:        2776.45 ave        3958 max           0 min
Histogram: 8 4 4 0 4 12 8 4 24 36
Nghost:        3879.03 ave        5437 max         232 min
Histogram: 8 0 8 0 16 0 8 8 16 40
Neighs:        79213.5 ave      115208 max           0 min
Histogram: 8 4 4 0 10 6 8 6 24 34

Total # of neighbors = 8238202
Ave neighs/atom = 28.530471
Neighbor list builds = 0
Dangerous builds = 0
The dot product: 1.38357079468327e-08
Setting atom values ...
  1 settings made for x
  1 settings made for y
  1 settings made for z
Setting up cg style minimization ...
  Unit style    : metal
  Current step  : 29295
Per MPI rank memory allocation (min/avg/max) = 5.441 | 5.816 | 6.075 Mbytes
Step PotEng KinEng TotEng v_fx v_fy v_fz 
   29295   -1152449.4            0   -1152449.4  0.033146513  0.011353581  0.040734091 
   29487   -1152449.4            0   -1152449.4 -2.9410555e-06 -2.1907024e-05 -2.5549232e-06 
Loop time of 2.25505 on 104 procs for 192 steps with 288751 atoms

99.9% CPU use with 104 MPI tasks x 1 OpenMP threads

Minimization stats:
  Stopping criterion = energy tolerance
  Energy initial, next-to-last, final = 
     -1152449.40000271  -1152449.40145452  -1152449.40145452
  Force two-norm initial, final = 0.17532702 0.00011188399
  Force max component initial, final = 0.07713011 2.1907024e-05
  Final line search alpha, max atom move = 1.0000000 2.1907024e-05
  Iterations, force evaluations = 192 384

MPI task timing breakdown:
Section |  min time  |  avg time  |  max time  |%varavg| %total
---------------------------------------------------------------
Pair    | 0.58054    | 1.6119     | 2.1132     |  34.4 | 71.48
Neigh   | 0          | 0          | 0          |   0.0 |  0.00
Comm    | 0.032104   | 0.3698     | 1.1168     |  50.5 | 16.40
Output  | 0          | 0          | 0          |   0.0 |  0.00
Modify  | 2.478e-05  | 0.0031708  | 0.0067863  |   2.7 |  0.14
Other   |            | 0.2702     |            |       | 11.98

Nlocal:        2776.45 ave        3958 max           0 min
Histogram: 8 4 4 0 4 12 8 4 24 36
Nghost:        3879.03 ave        5437 max         232 min
Histogram: 8 0 8 0 16 0 8 8 16 40
Neighs:        79213.5 ave      115218 max           0 min
Histogram: 8 4 4 0 10 6 8 6 24 34

Total # of neighbors = 8238201
Ave neighs/atom = 28.530467
Neighbor list builds = 0
Dangerous builds = 0
The dot product: -2.3933635352248e-09
Setting atom values ...
  1 settings made for x
  1 settings made for y
  1 settings made for z
Setting up cg style minimization ...
  Unit style    : metal
  Current step  : 29487
Per MPI rank memory allocation (min/avg/max) = 5.441 | 5.816 | 6.075 Mbytes
Step PotEng KinEng TotEng v_fx v_fy v_fz 
   29487   -1152449.4            0   -1152449.4  0.031908389  0.016211494  0.039029473 
   29684   -1152449.4            0   -1152449.4 -1.4486333e-05 -6.3236756e-06 -1.7772152e-05 
Loop time of 2.28825 on 104 procs for 197 steps with 288751 atoms

99.9% CPU use with 104 MPI tasks x 1 OpenMP threads

Minimization stats:
  Stopping criterion = energy tolerance
  Energy initial, next-to-last, final = 
     -1152449.39253432  -1152449.39393174  -1152449.39393174
  Force two-norm initial, final = 0.17286812 9.8930858e-05
  Force max component initial, final = 0.076508685 1.7772152e-05
  Final line search alpha, max atom move = 1.0000000 1.7772152e-05
  Iterations, force evaluations = 197 394

MPI task timing breakdown:
Section |  min time  |  avg time  |  max time  |%varavg| %total
---------------------------------------------------------------
Pair    | 0.59387    | 1.6495     | 2.1688     |  34.8 | 72.09
Neigh   | 0          | 0          | 0          |   0.0 |  0.00
Comm    | 0.036089   | 0.37461    | 1.1252     |  50.9 | 16.37
Output  | 0          | 0          | 0          |   0.0 |  0.00
Modify  | 2.4556e-05 | 0.0032536  | 0.0069282  |   2.7 |  0.14
Other   |            | 0.2609     |            |       | 11.40

Nlocal:        2776.45 ave        3957 max           0 min
Histogram: 8 4 4 0 4 12 8 4 24 36
Nghost:        3879.05 ave        5438 max         232 min
Histogram: 8 0 8 0 16 0 8 8 16 40
Neighs:        79213.5 ave      115196 max           0 min
Histogram: 8 4 4 0 10 6 8 6 24 34

Total # of neighbors = 8238201
Ave neighs/atom = 28.530467
Neighbor list builds = 0
Dangerous builds = 0
The dot product: -7.56289994173387e-08
Setting atom values ...
  1 settings made for x
  1 settings made for y
  1 settings made for z
Setting up cg style minimization ...
  Unit style    : metal
  Current step  : 29684
Per MPI rank memory allocation (min/avg/max) = 5.441 | 5.816 | 6.075 Mbytes
Step PotEng KinEng TotEng v_fx v_fy v_fz 
   29684   -1152449.4            0   -1152449.4  0.030315357  0.022869442  0.036779883 
   29942   -1152449.4            0   -1152449.4 6.3532858e-07 -1.4148927e-06 8.6749308e-07 
Loop time of 2.99598 on 104 procs for 258 steps with 288751 atoms

99.9% CPU use with 104 MPI tasks x 1 OpenMP threads

Minimization stats:
  Stopping criterion = energy tolerance
  Energy initial, next-to-last, final = 
      -1152449.3835186  -1152449.38485997  -1152449.38485997
  Force two-norm initial, final = 0.17078391 5.6899851e-06
  Force max component initial, final = 0.076987563 1.4148927e-06
  Final line search alpha, max atom move = 1.0000000 1.4148927e-06
  Iterations, force evaluations = 258 516

MPI task timing breakdown:
Section |  min time  |  avg time  |  max time  |%varavg| %total
---------------------------------------------------------------
Pair    | 0.77842    | 2.1623     | 2.8415     |  39.9 | 72.17
Neigh   | 0          | 0          | 0          |   0.0 |  0.00
Comm    | 0.043538   | 0.49087    | 1.4845     |  58.2 | 16.38
Output  | 0          | 0          | 0          |   0.0 |  0.00
Modify  | 3.1759e-05 | 0.0042557  | 0.009053   |   3.1 |  0.14
Other   |            | 0.3386     |            |       | 11.30

Nlocal:        2776.45 ave        3957 max           0 min
Histogram: 8 4 4 0 4 12 8 4 24 36
Nghost:        3879.07 ave        5438 max         232 min
Histogram: 8 0 8 0 16 0 8 8 16 40
Neighs:        79213.5 ave      115193 max           0 min
Histogram: 8 4 4 0 10 6 8 6 24 34

Total # of neighbors = 8238199
Ave neighs/atom = 28.530461
Neighbor list builds = 0
Dangerous builds = 0
The dot product: 1.93041312726186e-09
Setting atom values ...
  1 settings made for x
  1 settings made for y
  1 settings made for z
Setting up cg style minimization ...
  Unit style    : metal
  Current step  : 29942
Per MPI rank memory allocation (min/avg/max) = 5.441 | 5.816 | 6.075 Mbytes
Step PotEng KinEng TotEng v_fx v_fy v_fz 
   29942   -1152449.4            0   -1152449.4   0.02799565  0.032869832  0.033450023 
   30000   -1152449.4            0   -1152449.4 0.00010354928 -4.2119699e-05 0.00013200822 
   30132   -1152449.4            0   -1152449.4 1.3608578e-05 -1.4777268e-05 1.7816406e-05 
Loop time of 2.23049 on 104 procs for 190 steps with 288751 atoms

99.9% CPU use with 104 MPI tasks x 1 OpenMP threads

Minimization stats:
  Stopping criterion = energy tolerance
  Energy initial, next-to-last, final = 
     -1152449.37315634  -1152449.37448288  -1152449.37448288
  Force two-norm initial, final = 0.17045063 8.2017856e-05
  Force max component initial, final = 0.077287301 2.0205406e-05
  Final line search alpha, max atom move = 1.0000000 2.0205406e-05
  Iterations, force evaluations = 190 380

MPI task timing breakdown:
Section |  min time  |  avg time  |  max time  |%varavg| %total
---------------------------------------------------------------
Pair    | 0.57339    | 1.5931     | 2.1151     |  34.2 | 71.42
Neigh   | 0          | 0          | 0          |   0.0 |  0.00
Comm    | 0.031471   | 0.3657     | 1.094      |  49.5 | 16.40
Output  | 0.00010424 | 0.00011626 | 0.00026799 |   0.0 |  0.01
Modify  | 2.3432e-05 | 0.0031352  | 0.00667    |   2.7 |  0.14
Other   |            | 0.2684     |            |       | 12.03

Nlocal:        2776.45 ave        3957 max           0 min
Histogram: 8 4 4 0 4 12 8 4 24 36
Nghost:        3879.07 ave        5438 max         232 min
Histogram: 8 0 8 0 16 0 8 8 16 40
Neighs:        79213.4 ave      115193 max           0 min
Histogram: 8 4 4 0 10 6 8 6 24 34

Total # of neighbors = 8238197
Ave neighs/atom = 28.530454
Neighbor list builds = 0
Dangerous builds = 0
The dot product: 8.66019719887481e-09
Setting atom values ...
  1 settings made for x
  1 settings made for y
  1 settings made for z
Setting up cg style minimization ...
  Unit style    : metal
  Current step  : 30132
Per MPI rank memory allocation (min/avg/max) = 5.441 | 5.816 | 6.075 Mbytes
Step PotEng KinEng TotEng v_fx v_fy v_fz 
   30132   -1152449.4            0   -1152449.4  0.025291307  0.044613281  0.029599864 
   30214   -1152449.4            0   -1152449.4 1.4643306e-05 -2.0305354e-05 1.9390833e-05 
Loop time of 0.964764 on 104 procs for 82 steps with 288751 atoms

99.9% CPU use with 104 MPI tasks x 1 OpenMP threads

Minimization stats:
  Stopping criterion = energy tolerance
  Energy initial, next-to-last, final = 
     -1152449.36195584  -1152449.36360038  -1152449.36360038
  Force two-norm initial, final = 0.17373358 0.0002099304
  Force max component initial, final = 0.077103205 2.7031560e-05
  Final line search alpha, max atom move = 1.0000000 2.7031560e-05
  Iterations, force evaluations = 82 164

MPI task timing breakdown:
Section |  min time  |  avg time  |  max time  |%varavg| %total
---------------------------------------------------------------
Pair    | 0.24874    | 0.69038    | 0.91447    |  22.6 | 71.56
Neigh   | 0          | 0          | 0          |   0.0 |  0.00
Comm    | 0.013621   | 0.15724    | 0.47371    |  32.7 | 16.30
Output  | 0          | 0          | 0          |   0.0 |  0.00
Modify  | 1.0351e-05 | 0.0013589  | 0.0028845  |   1.7 |  0.14
Other   |            | 0.1158     |            |       | 12.00

Nlocal:        2776.45 ave        3957 max           0 min
Histogram: 8 4 4 0 4 12 8 4 24 36
Nghost:        3879.05 ave        5438 max         232 min
Histogram: 8 0 8 0 16 0 8 8 16 40
Neighs:        79213.4 ave      115193 max           0 min
Histogram: 8 4 4 0 10 6 8 6 24 34

Total # of neighbors = 8238198
Ave neighs/atom = 28.530457
Neighbor list builds = 0
Dangerous builds = 0
The dot product: -1.94165444016809e-07
