LAMMPS (29 Oct 2020)
OMP_NUM_THREADS environment is not set. Defaulting to 1 thread. (../comm.cpp:94)
  using 1 OpenMP thread(s) per MPI task
OMP_NUM_THREADS environment is not set. Defaulting to 1 thread. (../comm.cpp:94)
  using 1 OpenMP thread(s) per MPI task
Reading data file ...
  orthogonal box = (-122.39241 -121.13707 -37.090501) to (122.39241 121.13707 37.090501)
  13 by 4 by 2 MPI processor grid
  reading atoms ...
  288751 atoms
  read_data CPU = 0.370 seconds
199981 atoms in group inner
88770 atoms in group outer
1 atoms in group carbon
Neighbor list info ...
  update every 1 steps, delay 0 steps, check yes
  max neighbors/atom: 2000, page size: 100000
  master list distance cutoff = 5.6
  ghost atom cutoff = 5.6
  binsize = 2.8, bins = 88 87 27
  1 neighbor lists, perpetual/occasional/extra = 1 0 0
  (1) pair eam/alloy, perpetual
      attributes: half, newton on
      pair build: half/bin/atomonly/newton
      stencil: half/bin/3d/newton
      bin: standard
Setting up cg style minimization ...
  Unit style    : metal
  Current step  : 0
Per MPI rank memory allocation (min/avg/max) = 5.441 | 5.816 | 6.074 Mbytes
Step v_fx v_fy v_fz PotEng KinEng TotEng 
       0    1.7142235  -0.74942479   -2.5260792   -1152447.8            0   -1152447.8 
     192 -1.4835714e-06 -2.6753135e-07 1.0602332e-05   -1152449.5            0   -1152449.5 
Loop time of 2.24073 on 104 procs for 192 steps with 288751 atoms

99.8% CPU use with 104 MPI tasks x 1 OpenMP threads

Minimization stats:
  Stopping criterion = energy tolerance
  Energy initial, next-to-last, final = 
     -1152447.78419938  -1152449.45035286  -1152449.45035286
  Force two-norm initial, final = 10.157809 2.6182775e-05
  Force max component initial, final = 6.1790540 1.0602332e-05
  Final line search alpha, max atom move = 1.0000000 1.0602332e-05
  Iterations, force evaluations = 192 383

MPI task timing breakdown:
Section |  min time  |  avg time  |  max time  |%varavg| %total
---------------------------------------------------------------
Pair    | 0.60146    | 1.6103     | 2.0966     |  33.7 | 71.86
Neigh   | 3.1605e-05 | 0.0088193  | 0.012912   |   3.9 |  0.39
Comm    | 0.040422   | 0.36103    | 1.0833     |  50.3 | 16.11
Output  | 0          | 0          | 0          |   0.0 |  0.00
Modify  | 2.2295e-05 | 0.0020628  | 0.0052986  |   2.8 |  0.09
Other   |            | 0.2586     |            |       | 11.54

Nlocal:        2776.45 ave        3960 max           0 min
Histogram: 8 4 4 0 4 12 8 2 28 34
Nghost:        3879.01 ave        5424 max         232 min
Histogram: 8 0 8 0 16 0 8 8 16 40
Neighs:        79213.5 ave      115440 max           0 min
Histogram: 8 4 4 0 10 6 8 8 24 32

Total # of neighbors = 8238206
Ave neighs/atom = 28.530485
Neighbor list builds = 3
Dangerous builds = 0
Setting atom values ...
  1 settings made for x
  1 settings made for y
  1 settings made for z
Setting up cg style minimization ...
  Unit style    : metal
  Current step  : 192
Per MPI rank memory allocation (min/avg/max) = 5.441 | 5.816 | 6.074 Mbytes
Step PotEng KinEng TotEng v_fx v_fy v_fz 
     192   -1152449.4            0   -1152449.4  0.012430117 -0.016207738 -0.020755089 
     342   -1152449.5            0   -1152449.5 1.1996552e-05 -2.2910047e-05 -4.3234946e-05 
Loop time of 1.74352 on 104 procs for 150 steps with 288751 atoms

99.9% CPU use with 104 MPI tasks x 1 OpenMP threads

Minimization stats:
  Stopping criterion = energy tolerance
  Energy initial, next-to-last, final = 
     -1152449.44947032  -1152449.45002044  -1152449.45002044
  Force two-norm initial, final = 0.10820627 0.00016258182
  Force max component initial, final = 0.047627457 4.6177631e-05
  Final line search alpha, max atom move = 1.0000000 4.6177631e-05
  Iterations, force evaluations = 150 300

MPI task timing breakdown:
Section |  min time  |  avg time  |  max time  |%varavg| %total
---------------------------------------------------------------
Pair    | 0.46002    | 1.2661     | 1.6451     |  30.2 | 72.62
Neigh   | 0          | 0          | 0          |   0.0 |  0.00
Comm    | 0.029163   | 0.28372    | 0.85712    |  45.1 | 16.27
Output  | 0          | 0          | 0          |   0.0 |  0.00
Modify  | 2.0328e-05 | 0.0024847  | 0.0053281  |   2.3 |  0.14
Other   |            | 0.1912     |            |       | 10.97

Nlocal:        2776.45 ave        3961 max           0 min
Histogram: 8 4 4 0 6 10 8 2 28 34
Nghost:        3879.01 ave        5424 max         232 min
Histogram: 8 0 8 0 16 0 8 8 16 40
Neighs:        79213.4 ave      115455 max           0 min
Histogram: 8 4 4 0 10 6 8 8 24 32

Total # of neighbors = 8238197
Ave neighs/atom = 28.530454
Neighbor list builds = 0
Dangerous builds = 0
Setting atom values ...
  1 settings made for x
  1 settings made for y
  1 settings made for z
Setting up cg style minimization ...
  Unit style    : metal
  Current step  : 342
Per MPI rank memory allocation (min/avg/max) = 5.441 | 5.816 | 6.074 Mbytes
Step PotEng KinEng TotEng v_fx v_fy v_fz 
     342   -1152449.4            0   -1152449.4  0.021658761 -0.023307003 -0.033974374 
     522   -1152449.4            0   -1152449.4 -6.0811479e-06 5.7958532e-06 5.852312e-06 
Loop time of 2.09915 on 104 procs for 180 steps with 288751 atoms

99.9% CPU use with 104 MPI tasks x 1 OpenMP threads

Minimization stats:
  Stopping criterion = energy tolerance
  Energy initial, next-to-last, final = 
     -1152449.44665706  -1152449.44808478  -1152449.44808478
  Force two-norm initial, final = 0.17479894 9.4287669e-05
  Force max component initial, final = 0.079499072 2.2754970e-05
  Final line search alpha, max atom move = 1.0000000 2.2754970e-05
  Iterations, force evaluations = 180 360

MPI task timing breakdown:
Section |  min time  |  avg time  |  max time  |%varavg| %total
---------------------------------------------------------------
Pair    | 0.55123    | 1.5113     | 1.9752     |  33.0 | 71.99
Neigh   | 0          | 0          | 0          |   0.0 |  0.00
Comm    | 0.036491   | 0.3408     | 1.015      |  48.8 | 16.24
Output  | 0          | 0          | 0          |   0.0 |  0.00
Modify  | 2.3143e-05 | 0.0029753  | 0.006356   |   2.6 |  0.14
Other   |            | 0.2441     |            |       | 11.63

Nlocal:        2776.45 ave        3961 max           0 min
Histogram: 8 4 4 0 6 10 8 2 28 34
Nghost:        3879.01 ave        5424 max         232 min
Histogram: 8 0 8 0 16 0 8 8 16 40
Neighs:        79213.5 ave      115455 max           0 min
Histogram: 8 4 4 0 10 6 8 8 24 32

Total # of neighbors = 8238199
Ave neighs/atom = 28.530461
Neighbor list builds = 0
Dangerous builds = 0
The dot product: -1.61632292638037e-08
Setting atom values ...
  1 settings made for x
  1 settings made for y
  1 settings made for z
Setting up cg style minimization ...
  Unit style    : metal
  Current step  : 522
Per MPI rank memory allocation (min/avg/max) = 5.441 | 5.816 | 6.074 Mbytes
Step PotEng KinEng TotEng v_fx v_fy v_fz 
     522   -1152449.4            0   -1152449.4  0.021002985 -0.019095292 -0.032013296 
     666   -1152449.4            0   -1152449.4 7.7389578e-07 -4.246441e-07 1.4534385e-06 
Loop time of 1.663 on 104 procs for 144 steps with 288751 atoms

99.9% CPU use with 104 MPI tasks x 1 OpenMP threads

Minimization stats:
  Stopping criterion = energy tolerance
  Energy initial, next-to-last, final = 
     -1152449.44327896  -1152449.44465968  -1152449.44465968
  Force two-norm initial, final = 0.17154204 4.7958191e-05
  Force max component initial, final = 0.079137661 9.8759891e-06
  Final line search alpha, max atom move = 1.0000000 9.8759891e-06
  Iterations, force evaluations = 144 288

MPI task timing breakdown:
Section |  min time  |  avg time  |  max time  |%varavg| %total
---------------------------------------------------------------
Pair    | 0.43954    | 1.2128     | 1.5774     |  29.6 | 72.93
Neigh   | 0          | 0          | 0          |   0.0 |  0.00
Comm    | 0.026805   | 0.26896    | 0.81169    |  44.3 | 16.17
Output  | 0          | 0          | 0          |   0.0 |  0.00
Modify  | 1.7265e-05 | 0.0023746  | 0.0050712  |   2.3 |  0.14
Other   |            | 0.1788     |            |       | 10.75

Nlocal:        2776.45 ave        3961 max           0 min
Histogram: 8 4 4 0 6 10 8 2 28 34
Nghost:        3879.01 ave        5424 max         232 min
Histogram: 8 0 8 0 16 0 8 8 16 40
Neighs:        79213.5 ave      115455 max           0 min
Histogram: 8 4 4 0 10 6 8 8 24 32

Total # of neighbors = 8238199
Ave neighs/atom = 28.530461
Neighbor list builds = 0
Dangerous builds = 0
The dot product: -5.37052543543961e-09
Setting atom values ...
  1 settings made for x
  1 settings made for y
  1 settings made for z
Setting up cg style minimization ...
  Unit style    : metal
  Current step  : 666
Per MPI rank memory allocation (min/avg/max) = 5.441 | 5.816 | 6.074 Mbytes
Step PotEng KinEng TotEng v_fx v_fy v_fz 
     666   -1152449.4            0   -1152449.4  0.019608079 -0.015637498 -0.026383847 
     818   -1152449.4            0   -1152449.4 -1.4506861e-05 9.9702542e-06 -4.3447565e-05 
Loop time of 1.76803 on 104 procs for 152 steps with 288751 atoms

99.9% CPU use with 104 MPI tasks x 1 OpenMP threads

Minimization stats:
  Stopping criterion = energy tolerance
  Energy initial, next-to-last, final = 
     -1152449.43854471  -1152449.43990892  -1152449.43990892
  Force two-norm initial, final = 0.16889159 0.00016015196
  Force max component initial, final = 0.077234684 4.3447565e-05
  Final line search alpha, max atom move = 1.0000000 4.3447565e-05
  Iterations, force evaluations = 152 304

MPI task timing breakdown:
Section |  min time  |  avg time  |  max time  |%varavg| %total
---------------------------------------------------------------
Pair    | 0.46891    | 1.2749     | 1.6653     |  30.3 | 72.11
Neigh   | 0          | 0          | 0          |   0.0 |  0.00
Comm    | 0.031467   | 0.28394    | 0.85769    |  45.1 | 16.06
Output  | 0          | 0          | 0          |   0.0 |  0.00
Modify  | 1.9161e-05 | 0.0025125  | 0.0053744  |   2.4 |  0.14
Other   |            | 0.2067     |            |       | 11.69

Nlocal:        2776.45 ave        3961 max           0 min
Histogram: 8 4 4 0 6 10 8 2 28 34
Nghost:        3879.01 ave        5424 max         232 min
Histogram: 8 0 8 0 16 0 8 8 16 40
Neighs:        79213.5 ave      115455 max           0 min
Histogram: 8 4 4 0 10 6 8 8 24 32

Total # of neighbors = 8238201
Ave neighs/atom = 28.530467
Neighbor list builds = 0
Dangerous builds = 0
The dot product: 1.73110238510869e-07
Setting atom values ...
  1 settings made for x
  1 settings made for y
  1 settings made for z
Setting up cg style minimization ...
  Unit style    : metal
  Current step  : 818
Per MPI rank memory allocation (min/avg/max) = 5.441 | 5.816 | 6.074 Mbytes
Step PotEng KinEng TotEng v_fx v_fy v_fz 
     818   -1152449.4            0   -1152449.4  0.017878176 -0.013505435  -0.01969245 
     989   -1152449.4            0   -1152449.4 -1.2458966e-05 9.0212823e-06 2.4957543e-05 
Loop time of 1.97612 on 104 procs for 171 steps with 288751 atoms

99.9% CPU use with 104 MPI tasks x 1 OpenMP threads

Minimization stats:
  Stopping criterion = energy tolerance
  Energy initial, next-to-last, final = 
     -1152449.43244046  -1152449.43379677  -1152449.43379677
  Force two-norm initial, final = 0.1673188 0.00017446655
  Force max component initial, final = 0.074590171 3.7925369e-05
  Final line search alpha, max atom move = 1.0000000 3.7925369e-05
  Iterations, force evaluations = 171 342

MPI task timing breakdown:
Section |  min time  |  avg time  |  max time  |%varavg| %total
---------------------------------------------------------------
Pair    | 0.52304    | 1.4385     | 1.8723     |  32.3 | 72.80
Neigh   | 0          | 0          | 0          |   0.0 |  0.00
Comm    | 0.031008   | 0.31883    | 0.96464    |  48.2 | 16.13
Output  | 0          | 0          | 0          |   0.0 |  0.00
Modify  | 2.0838e-05 | 0.0028239  | 0.006096   |   2.5 |  0.14
Other   |            | 0.2159     |            |       | 10.93

Nlocal:        2776.45 ave        3961 max           0 min
Histogram: 8 4 4 0 6 10 8 2 28 34
Nghost:        3879.01 ave        5424 max         232 min
Histogram: 8 0 8 0 16 0 8 8 16 40
Neighs:        79213.5 ave      115455 max           0 min
Histogram: 8 4 4 0 10 6 8 8 24 32

Total # of neighbors = 8238202
Ave neighs/atom = 28.530471
Neighbor list builds = 0
Dangerous builds = 0
The dot product: -4.44865652381701e-08
Setting atom values ...
  1 settings made for x
  1 settings made for y
  1 settings made for z
Setting up cg style minimization ...
  Unit style    : metal
  Current step  : 989
Per MPI rank memory allocation (min/avg/max) = 5.441 | 5.816 | 6.074 Mbytes
Step PotEng KinEng TotEng v_fx v_fy v_fz 
     989   -1152449.4            0   -1152449.4  0.016174199  -0.01237559  -0.01358955 
    1000   -1152449.4            0   -1152449.4 0.00070787829 -0.00055282019 -0.00045229899 
    1128   -1152449.4            0   -1152449.4 1.2525216e-05 -1.0897239e-05 6.1982275e-06 
Loop time of 1.60634 on 104 procs for 139 steps with 288751 atoms

99.9% CPU use with 104 MPI tasks x 1 OpenMP threads

Minimization stats:
  Stopping criterion = energy tolerance
  Energy initial, next-to-last, final = 
     -1152449.42492578  -1152449.42628266  -1152449.42628266
  Force two-norm initial, final = 0.16677285 0.00018378316
  Force max component initial, final = 0.074420192 2.7287627e-05
  Final line search alpha, max atom move = 1.0000000 2.7287627e-05
  Iterations, force evaluations = 139 278

MPI task timing breakdown:
Section |  min time  |  avg time  |  max time  |%varavg| %total
---------------------------------------------------------------
Pair    | 0.42569    | 1.1651     | 1.5199     |  29.0 | 72.53
Neigh   | 0          | 0          | 0          |   0.0 |  0.00
Comm    | 0.024246   | 0.25923    | 0.78273    |  43.1 | 16.14
Output  | 0.00013092 | 0.00013983 | 0.00021391 |   0.0 |  0.01
Modify  | 1.7202e-05 | 0.0022921  | 0.0049031  |   2.3 |  0.14
Other   |            | 0.1796     |            |       | 11.18

Nlocal:        2776.45 ave        3961 max           0 min
Histogram: 8 4 4 0 6 10 8 2 28 34
Nghost:        3879.01 ave        5424 max         232 min
Histogram: 8 0 8 0 16 0 8 8 16 40
Neighs:        79213.5 ave      115455 max           0 min
Histogram: 8 4 4 0 10 6 8 8 24 32

Total # of neighbors = 8238201
Ave neighs/atom = 28.530467
Neighbor list builds = 0
Dangerous builds = 0
The dot product: -5.9508846321636e-08
Setting atom values ...
  1 settings made for x
  1 settings made for y
  1 settings made for z
Setting up cg style minimization ...
  Unit style    : metal
  Current step  : 1128
Per MPI rank memory allocation (min/avg/max) = 5.441 | 5.816 | 6.074 Mbytes
Step PotEng KinEng TotEng v_fx v_fy v_fz 
    1128   -1152449.4            0   -1152449.4   0.01479318 -0.011937247 -0.0086769827 
    1276   -1152449.4            0   -1152449.4 1.6885743e-05 -1.3439718e-05 -1.159166e-05 
Loop time of 1.71665 on 104 procs for 148 steps with 288751 atoms

99.9% CPU use with 104 MPI tasks x 1 OpenMP threads

Minimization stats:
  Stopping criterion = energy tolerance
  Energy initial, next-to-last, final = 
     -1152449.41597166  -1152449.41733569  -1152449.41733569
  Force two-norm initial, final = 0.16682846 0.0002363164
  Force max component initial, final = 0.074730265 3.5141239e-05
  Final line search alpha, max atom move = 1.0000000 3.5141239e-05
  Iterations, force evaluations = 148 296

MPI task timing breakdown:
Section |  min time  |  avg time  |  max time  |%varavg| %total
---------------------------------------------------------------
Pair    | 0.45276    | 1.2456     | 1.6171     |  29.9 | 72.56
Neigh   | 0          | 0          | 0          |   0.0 |  0.00
Comm    | 0.027764   | 0.27548    | 0.836      |  44.8 | 16.05
Output  | 0          | 0          | 0          |   0.0 |  0.00
Modify  | 1.8244e-05 | 0.0024443  | 0.0052471  |   2.3 |  0.14
Other   |            | 0.1931     |            |       | 11.25

Nlocal:        2776.45 ave        3961 max           0 min
Histogram: 8 4 4 0 6 10 8 2 28 34
Nghost:        3879.01 ave        5424 max         232 min
Histogram: 8 0 8 0 16 0 8 8 16 40
Neighs:        79213.5 ave      115455 max           0 min
Histogram: 8 4 4 0 10 6 8 8 24 32

Total # of neighbors = 8238203
Ave neighs/atom = 28.530474
Neighbor list builds = 0
Dangerous builds = 0
The dot product: -3.94630019014318e-08
Setting atom values ...
  1 settings made for x
  1 settings made for y
  1 settings made for z
Setting up cg style minimization ...
  Unit style    : metal
  Current step  : 1276
Per MPI rank memory allocation (min/avg/max) = 5.441 | 5.816 | 6.074 Mbytes
Step PotEng KinEng TotEng v_fx v_fy v_fz 
    1276   -1152449.4            0   -1152449.4  0.013955648 -0.012044183 -0.0050987468 
    1395   -1152449.4            0   -1152449.4 -2.8836236e-05 1.5050653e-05 8.3756334e-05 
Loop time of 1.37854 on 104 procs for 119 steps with 288751 atoms

99.9% CPU use with 104 MPI tasks x 1 OpenMP threads

Minimization stats:
  Stopping criterion = energy tolerance
  Energy initial, next-to-last, final = 
     -1152449.40555814  -1152449.40692997  -1152449.40692997
  Force two-norm initial, final = 0.16716103 0.00029235572
  Force max component initial, final = 0.074692657 8.3756334e-05
  Final line search alpha, max atom move = 1.0000000 8.3756334e-05
  Iterations, force evaluations = 119 238

MPI task timing breakdown:
Section |  min time  |  avg time  |  max time  |%varavg| %total
---------------------------------------------------------------
Pair    | 0.36421    | 0.99867    | 1.2998     |  26.9 | 72.44
Neigh   | 0          | 0          | 0          |   0.0 |  0.00
Comm    | 0.020653   | 0.22179    | 0.67251    |  40.1 | 16.09
Output  | 0          | 0          | 0          |   0.0 |  0.00
Modify  | 1.4782e-05 | 0.0019709  | 0.0042194  |   2.1 |  0.14
Other   |            | 0.1561     |            |       | 11.32

Nlocal:        2776.45 ave        3960 max           0 min
Histogram: 8 4 4 0 4 12 8 2 28 34
Nghost:        3879.01 ave        5424 max         232 min
Histogram: 8 0 8 0 16 0 8 8 16 40
Neighs:        79213.5 ave      115412 max           0 min
Histogram: 8 4 4 0 10 6 8 8 24 32

Total # of neighbors = 8238201
Ave neighs/atom = 28.530467
Neighbor list builds = 0
Dangerous builds = 0
The dot product: -5.49424750242492e-08
Setting atom values ...
  1 settings made for x
  1 settings made for y
  1 settings made for z
Setting up cg style minimization ...
  Unit style    : metal
  Current step  : 1395
Per MPI rank memory allocation (min/avg/max) = 5.441 | 5.816 | 6.074 Mbytes
Step PotEng KinEng TotEng v_fx v_fy v_fz 
    1395   -1152449.4            0   -1152449.4  0.013857943 -0.012794086 -0.0023791689 
    1541   -1152449.4            0   -1152449.4 -3.3572195e-06 -8.7007062e-06 7.7612078e-05 
Loop time of 1.69282 on 104 procs for 146 steps with 288751 atoms

99.9% CPU use with 104 MPI tasks x 1 OpenMP threads

Minimization stats:
  Stopping criterion = energy tolerance
  Energy initial, next-to-last, final = 
     -1152449.39366407  -1152449.39504271  -1152449.39504271
  Force two-norm initial, final = 0.16756593 0.00026089532
  Force max component initial, final = 0.074565155 7.7612078e-05
  Final line search alpha, max atom move = 1.0000000 7.7612078e-05
  Iterations, force evaluations = 146 292

MPI task timing breakdown:
Section |  min time  |  avg time  |  max time  |%varavg| %total
---------------------------------------------------------------
Pair    | 0.44994    | 1.2314     | 1.5983     |  29.7 | 72.74
Neigh   | 0          | 0          | 0          |   0.0 |  0.00
Comm    | 0.028958   | 0.27225    | 0.81916    |  44.4 | 16.08
Output  | 0          | 0          | 0          |   0.0 |  0.00
Modify  | 1.7591e-05 | 0.0024108  | 0.0051503  |   2.3 |  0.14
Other   |            | 0.1868     |            |       | 11.03

Nlocal:        2776.45 ave        3957 max           0 min
Histogram: 8 4 4 0 4 12 8 2 28 34
Nghost:        3879.01 ave        5424 max         232 min
Histogram: 8 0 8 0 16 0 8 8 16 40
Neighs:        79213.5 ave      115331 max           0 min
Histogram: 8 4 4 0 10 6 8 8 24 32

Total # of neighbors = 8238202
Ave neighs/atom = 28.530471
Neighbor list builds = 0
Dangerous builds = 0
The dot product: -1.35758963096532e-07
Setting atom values ...
  1 settings made for x
  1 settings made for y
  1 settings made for z
Setting up cg style minimization ...
  Unit style    : metal
  Current step  : 1541
Per MPI rank memory allocation (min/avg/max) = 5.441 | 5.816 | 6.074 Mbytes
Step PotEng KinEng TotEng v_fx v_fy v_fz 
    1541   -1152449.4            0   -1152449.4  0.014554792 -0.014177653 -0.00065841887 
    1774   -1152449.4            0   -1152449.4 -1.6956372e-06 1.622892e-06 2.4730067e-07 
Loop time of 2.69632 on 104 procs for 233 steps with 288751 atoms

99.9% CPU use with 104 MPI tasks x 1 OpenMP threads

Minimization stats:
  Stopping criterion = energy tolerance
  Energy initial, next-to-last, final = 
     -1152449.38027053  -1152449.38165427  -1152449.38165427
  Force two-norm initial, final = 0.16799411 2.0749963e-05
  Force max component initial, final = 0.074334999 3.5357563e-06
  Final line search alpha, max atom move = 1.0000000 3.5357563e-06
  Iterations, force evaluations = 233 466

MPI task timing breakdown:
Section |  min time  |  avg time  |  max time  |%varavg| %total
---------------------------------------------------------------
Pair    | 0.71093    | 1.9556     | 2.5518     |  37.6 | 72.53
Neigh   | 0          | 0          | 0          |   0.0 |  0.00
Comm    | 0.042803   | 0.43591    | 1.326      |  56.2 | 16.17
Output  | 0          | 0          | 0          |   0.0 |  0.00
Modify  | 2.7795e-05 | 0.003845   | 0.0082219  |   2.9 |  0.14
Other   |            | 0.3009     |            |       | 11.16

Nlocal:        2776.45 ave        3955 max           0 min
Histogram: 8 4 4 0 4 12 8 2 28 34
Nghost:        3879.01 ave        5424 max         232 min
Histogram: 8 0 8 0 16 0 8 8 16 40
Neighs:        79213.5 ave      115270 max           0 min
Histogram: 8 4 4 0 10 6 8 8 24 32

Total # of neighbors = 8238203
Ave neighs/atom = 28.530474
Neighbor list builds = 0
Dangerous builds = 0
The dot product: 5.49108225498463e-09
Setting atom values ...
  1 settings made for x
  1 settings made for y
  1 settings made for z
Setting up cg style minimization ...
  Unit style    : metal
  Current step  : 1774
Per MPI rank memory allocation (min/avg/max) = 5.441 | 5.816 | 6.074 Mbytes
Step PotEng KinEng TotEng v_fx v_fy v_fz 
    1774   -1152449.4            0   -1152449.4  0.015596121 -0.015759171 0.0002246462 
    1913   -1152449.4            0   -1152449.4 1.4975658e-05 -5.9575603e-06 -4.9967042e-05 
Loop time of 1.62065 on 104 procs for 139 steps with 288751 atoms

99.9% CPU use with 104 MPI tasks x 1 OpenMP threads

Minimization stats:
  Stopping criterion = energy tolerance
  Energy initial, next-to-last, final = 
     -1152449.36535967  -1152449.36674776  -1152449.36674776
  Force two-norm initial, final = 0.16836956 0.00017589826
  Force max component initial, final = 0.074309803 4.9967042e-05
  Final line search alpha, max atom move = 1.0000000 4.9967042e-05
  Iterations, force evaluations = 139 278

MPI task timing breakdown:
Section |  min time  |  avg time  |  max time  |%varavg| %total
---------------------------------------------------------------
Pair    | 0.42753    | 1.1721     | 1.5218     |  29.1 | 72.32
Neigh   | 0          | 0          | 0          |   0.0 |  0.00
Comm    | 0.025688   | 0.2629     | 0.79456    |  43.3 | 16.22
Output  | 0          | 0          | 0          |   0.0 |  0.00
Modify  | 1.663e-05  | 0.0022931  | 0.0049472  |   2.3 |  0.14
Other   |            | 0.1834     |            |       | 11.32

Nlocal:        2776.45 ave        3951 max           0 min
Histogram: 8 4 4 0 4 12 8 2 28 34
Nghost:        3879.01 ave        5424 max         232 min
Histogram: 8 0 8 0 16 0 8 8 16 40
Neighs:        79213.5 ave      115155 max           0 min
Histogram: 8 4 4 0 10 6 8 8 24 32

Total # of neighbors = 8238204
Ave neighs/atom = 28.530478
Neighbor list builds = 0
Dangerous builds = 0
The dot product: 4.81428819782119e-08
Setting atom values ...
  1 settings made for x
  1 settings made for y
  1 settings made for z
Setting up cg style minimization ...
  Unit style    : metal
  Current step  : 1913
Per MPI rank memory allocation (min/avg/max) = 5.441 | 5.816 | 6.074 Mbytes
Step PotEng KinEng TotEng v_fx v_fy v_fz 
    1913   -1152449.3            0   -1152449.3  0.016275215 -0.016859449 0.00057106744 
    2000   -1152449.4            0   -1152449.4 6.4768293e-05 -3.5594718e-05 -0.00015864689 
    2100   -1152449.4            0   -1152449.4 9.7564377e-07 2.0042111e-06 -1.5368134e-05 
Loop time of 2.16552 on 104 procs for 187 steps with 288751 atoms

99.9% CPU use with 104 MPI tasks x 1 OpenMP threads

Minimization stats:
  Stopping criterion = energy tolerance
  Energy initial, next-to-last, final = 
     -1152449.34890856  -1152449.35030139  -1152449.35030139
  Force two-norm initial, final = 0.16863515 9.3570984e-05
  Force max component initial, final = 0.074381541 2.3550643e-05
  Final line search alpha, max atom move = 1.0000000 2.3550643e-05
  Iterations, force evaluations = 187 374

MPI task timing breakdown:
Section |  min time  |  avg time  |  max time  |%varavg| %total
---------------------------------------------------------------
Pair    | 0.57463    | 1.5653     | 2.0443     |  33.6 | 72.28
Neigh   | 0          | 0          | 0          |   0.0 |  0.00
Comm    | 0.033244   | 0.34793    | 1.0478     |  49.9 | 16.07
Output  | 9.3777e-05 | 0.0001008  | 0.00022124 |   0.0 |  0.00
Modify  | 2.247e-05  | 0.0030814  | 0.0066018  |   2.6 |  0.14
Other   |            | 0.2491     |            |       | 11.50

Nlocal:        2776.45 ave        3947 max           0 min
Histogram: 8 4 4 0 4 12 8 2 26 36
Nghost:        3879.05 ave        5424 max         232 min
Histogram: 8 0 8 0 16 0 8 8 16 40
Neighs:        79213.5 ave      115022 max           0 min
Histogram: 8 4 4 0 10 6 8 8 24 32

Total # of neighbors = 8238204
Ave neighs/atom = 28.530478
Neighbor list builds = 0
Dangerous builds = 0
The dot product: 3.16418866537202e-08
Setting atom values ...
  1 settings made for x
  1 settings made for y
  1 settings made for z
Setting up cg style minimization ...
  Unit style    : metal
  Current step  : 2100
Per MPI rank memory allocation (min/avg/max) = 5.441 | 5.816 | 6.074 Mbytes
Step PotEng KinEng TotEng v_fx v_fy v_fz 
    2100   -1152449.3            0   -1152449.3  0.016158704 -0.016886544 -0.00024151416 
    2236   -1152449.3            0   -1152449.3 -2.1306109e-05 1.0234554e-05 5.7635275e-05 
Loop time of 1.56829 on 104 procs for 136 steps with 288751 atoms

99.9% CPU use with 104 MPI tasks x 1 OpenMP threads

Minimization stats:
  Stopping criterion = energy tolerance
  Energy initial, next-to-last, final = 
      -1152449.3308902  -1152449.33230192  -1152449.33230192
  Force two-norm initial, final = 0.16872665 0.00021555469
  Force max component initial, final = 0.074464725 5.7635275e-05
  Final line search alpha, max atom move = 1.0000000 5.7635275e-05
  Iterations, force evaluations = 136 272

MPI task timing breakdown:
Section |  min time  |  avg time  |  max time  |%varavg| %total
---------------------------------------------------------------
Pair    | 0.41653    | 1.143      | 1.4813     |  28.7 | 72.88
Neigh   | 0          | 0          | 0          |   0.0 |  0.00
Comm    | 0.026907   | 0.25257    | 0.76167    |  43.2 | 16.11
Output  | 0          | 0          | 0          |   0.0 |  0.00
Modify  | 1.6115e-05 | 0.0022445  | 0.0048101  |   2.2 |  0.14
Other   |            | 0.1704     |            |       | 10.87

Nlocal:        2776.45 ave        3943 max           0 min
Histogram: 8 4 4 0 4 12 8 2 26 36
Nghost:        3879.05 ave        5424 max         232 min
Histogram: 8 0 8 0 16 0 8 8 16 40
Neighs:        79213.5 ave      114867 max           0 min
Histogram: 8 4 4 0 10 6 8 8 22 34

Total # of neighbors = 8238202
Ave neighs/atom = 28.530471
Neighbor list builds = 0
Dangerous builds = 0
The dot product: -1.11479843697299e-07
Setting atom values ...
  1 settings made for x
  1 settings made for y
  1 settings made for z
Setting up cg style minimization ...
  Unit style    : metal
  Current step  : 2236
Per MPI rank memory allocation (min/avg/max) = 5.441 | 5.816 | 6.074 Mbytes
Step PotEng KinEng TotEng v_fx v_fy v_fz 
    2236   -1152449.3            0   -1152449.3  0.013832086 -0.013873916 -0.0041743179 
    2457   -1152449.3            0   -1152449.3 4.3050674e-06 -1.7775776e-06 -1.2332305e-05 
Loop time of 2.53863 on 104 procs for 221 steps with 288751 atoms

99.9% CPU use with 104 MPI tasks x 1 OpenMP threads

Minimization stats:
  Stopping criterion = energy tolerance
  Energy initial, next-to-last, final = 
     -1152449.31130157  -1152449.31286921  -1152449.31286921
  Force two-norm initial, final = 0.16862807 5.1426044e-05
  Force max component initial, final = 0.074315125 1.2332305e-05
  Final line search alpha, max atom move = 1.0000000 1.2332305e-05
  Iterations, force evaluations = 221 442

MPI task timing breakdown:
Section |  min time  |  avg time  |  max time  |%varavg| %total
---------------------------------------------------------------
Pair    | 0.67446    | 1.8494     | 2.4069     |  36.6 | 72.85
Neigh   | 0          | 0          | 0          |   0.0 |  0.00
Comm    | 0.038852   | 0.41073    | 1.2443     |  54.6 | 16.18
Output  | 0          | 0          | 0          |   0.0 |  0.00
Modify  | 2.7028e-05 | 0.0036404  | 0.0078092  |   2.9 |  0.14
Other   |            | 0.2749     |            |       | 10.83

Nlocal:        2776.45 ave        3936 max           0 min
Histogram: 8 4 4 0 4 12 8 0 28 36
Nghost:        3879.05 ave        5424 max         232 min
Histogram: 8 0 8 0 16 0 8 8 16 40
Neighs:        79213.4 ave      114634 max           0 min
Histogram: 8 4 4 0 8 8 8 8 20 36

Total # of neighbors = 8238196
Ave neighs/atom = 28.530450
Neighbor list builds = 0
Dangerous builds = 0
The dot product: 7.09536571212356e-08
Setting atom values ...
  1 settings made for x
  1 settings made for y
  1 settings made for z
Setting up cg style minimization ...
  Unit style    : metal
  Current step  : 2457
Per MPI rank memory allocation (min/avg/max) = 5.441 | 5.816 | 6.074 Mbytes
Step PotEng KinEng TotEng v_fx v_fy v_fz 
    2457   -1152449.3            0   -1152449.3 -0.0018573168  0.010101204 -0.027615414 
    2664   -1152449.3            0   -1152449.3 -9.8839256e-06 5.6821451e-06 1.9567266e-05 
Loop time of 2.41841 on 104 procs for 207 steps with 288751 atoms

99.9% CPU use with 104 MPI tasks x 1 OpenMP threads

Minimization stats:
  Stopping criterion = energy tolerance
  Energy initial, next-to-last, final = 
     -1152449.29038913  -1152449.29271059  -1152449.29271059
  Force two-norm initial, final = 0.17085998 0.00010367058
  Force max component initial, final = 0.072013936 1.9567266e-05
  Final line search alpha, max atom move = 1.0000000 1.9567266e-05
  Iterations, force evaluations = 207 414

MPI task timing breakdown:
Section |  min time  |  avg time  |  max time  |%varavg| %total
---------------------------------------------------------------
Pair    | 0.64349    | 1.7476     | 2.2516     |  34.9 | 72.26
Neigh   | 0          | 0          | 0          |   0.0 |  0.00
Comm    | 0.046781   | 0.39062    | 1.1681     |  52.9 | 16.15
Output  | 0          | 0          | 0          |   0.0 |  0.00
Modify  | 2.4811e-05 | 0.00342    | 0.0073146  |   2.8 |  0.14
Other   |            | 0.2768     |            |       | 11.44

Nlocal:        2776.45 ave        3930 max           0 min
Histogram: 8 4 4 0 4 12 8 0 26 38
Nghost:        3879.05 ave        5424 max         232 min
Histogram: 8 0 8 0 16 0 8 8 16 40
Neighs:        79213.5 ave      114457 max           0 min
Histogram: 8 4 4 0 8 8 8 8 20 36

Total # of neighbors = 8238199
Ave neighs/atom = 28.530461
Neighbor list builds = 0
Dangerous builds = 0
The dot product: -1.14270174495883e-07
Setting atom values ...
  1 settings made for x
  1 settings made for y
  1 settings made for z
Setting up cg style minimization ...
  Unit style    : metal
  Current step  : 2664
Per MPI rank memory allocation (min/avg/max) = 5.441 | 5.816 | 6.074 Mbytes
Step PotEng KinEng TotEng v_fx v_fy v_fz 
    2664   -1152449.3            0   -1152449.3 -0.025322102  0.058409207  -0.05901111 
    2865   -1152449.3            0   -1152449.3 -2.5095594e-05 3.0436217e-06 7.2892392e-05 
Loop time of 2.30935 on 104 procs for 201 steps with 288751 atoms

99.9% CPU use with 104 MPI tasks x 1 OpenMP threads

Minimization stats:
  Stopping criterion = energy tolerance
  Energy initial, next-to-last, final = 
     -1152449.26908385  -1152449.27260214  -1152449.27260214
  Force two-norm initial, final = 0.19069197 0.00018871895
  Force max component initial, final = 0.078957577 7.2892392e-05
  Final line search alpha, max atom move = 1.0000000 7.2892392e-05
  Iterations, force evaluations = 201 402

MPI task timing breakdown:
Section |  min time  |  avg time  |  max time  |%varavg| %total
---------------------------------------------------------------
Pair    | 0.6138     | 1.6816     | 2.1866     |  34.9 | 72.82
Neigh   | 0          | 0          | 0          |   0.0 |  0.00
Comm    | 0.037162   | 0.37279    | 1.1283     |  52.0 | 16.14
Output  | 0          | 0          | 0          |   0.0 |  0.00
Modify  | 2.4746e-05 | 0.0033113  | 0.0070937  |   2.7 |  0.14
Other   |            | 0.2516     |            |       | 10.90

Nlocal:        2776.45 ave        3930 max           0 min
Histogram: 8 4 4 0 4 12 8 0 26 38
Nghost:        3879.09 ave        5425 max         232 min
Histogram: 8 0 8 0 16 0 8 8 16 40
Neighs:        79213.4 ave      114453 max           0 min
Histogram: 8 4 4 0 8 8 8 8 20 36

Total # of neighbors = 8238195
Ave neighs/atom = 28.530447
Neighbor list builds = 0
Dangerous builds = 0
The dot product: -9.87463542355837e-07
Setting atom values ...
  1 settings made for x
  1 settings made for y
  1 settings made for z
Setting up cg style minimization ...
  Unit style    : metal
  Current step  : 2865
Per MPI rank memory allocation (min/avg/max) = 5.441 | 5.816 | 6.074 Mbytes
Step PotEng KinEng TotEng v_fx v_fy v_fz 
    2865   -1152449.2            0   -1152449.2 -0.031763418  0.091170534 -0.064352274 
    3000   -1152449.3            0   -1152449.3 1.401949e-05 1.4485076e-05 -6.1553599e-05 
    3056   -1152449.3            0   -1152449.3 -2.987638e-05 -1.3420273e-06 8.2638925e-05 
Loop time of 2.20222 on 104 procs for 191 steps with 288751 atoms

99.9% CPU use with 104 MPI tasks x 1 OpenMP threads

Minimization stats:
  Stopping criterion = energy tolerance
  Energy initial, next-to-last, final = 
     -1152449.24798736  -1152449.25211272  -1152449.25211272
  Force two-norm initial, final = 0.20676827 0.0002455448
  Force max component initial, final = 0.091170534 8.2638925e-05
  Final line search alpha, max atom move = 1.0000000 8.2638925e-05
  Iterations, force evaluations = 191 382

MPI task timing breakdown:
Section |  min time  |  avg time  |  max time  |%varavg| %total
---------------------------------------------------------------
Pair    | 0.58605    | 1.6084     | 2.0897     |  34.0 | 73.04
Neigh   | 0          | 0          | 0          |   0.0 |  0.00
Comm    | 0.034263   | 0.35594    | 1.0748     |  51.0 | 16.16
Output  | 0.00010746 | 0.00010994 | 0.00024241 |   0.0 |  0.00
Modify  | 2.3634e-05 | 0.0031437  | 0.006749   |   2.6 |  0.14
Other   |            | 0.2346     |            |       | 10.65

Nlocal:        2776.45 ave        3936 max           0 min
Histogram: 8 4 4 0 4 12 8 0 28 36
Nghost:        3879.12 ave        5425 max         232 min
Histogram: 8 0 8 0 16 0 8 8 16 40
Neighs:        79213.4 ave      114620 max           0 min
Histogram: 8 4 4 0 8 8 8 8 20 36

Total # of neighbors = 8238198
Ave neighs/atom = 28.530457
Neighbor list builds = 0
Dangerous builds = 0
The dot product: -1.26350688067482e-06
Setting atom values ...
  1 settings made for x
  1 settings made for y
  1 settings made for z
Setting up cg style minimization ...
  Unit style    : metal
  Current step  : 3056
Per MPI rank memory allocation (min/avg/max) = 5.441 | 5.816 | 6.074 Mbytes
Step PotEng KinEng TotEng v_fx v_fy v_fz 
    3056   -1152449.2            0   -1152449.2 -0.025549663   0.10295684 -0.056873576 
    3271   -1152449.2            0   -1152449.2 -3.0071787e-06 4.8977068e-06  1.52985e-06 
Loop time of 2.52827 on 104 procs for 215 steps with 288751 atoms

99.9% CPU use with 104 MPI tasks x 1 OpenMP threads

Minimization stats:
  Stopping criterion = energy tolerance
  Energy initial, next-to-last, final = 
     -1152449.22677845  -1152449.23080139  -1152449.23080139
  Force two-norm initial, final = 0.20959724 0.00011088138
  Force max component initial, final = 0.10295684 1.0931498e-05
  Final line search alpha, max atom move = 1.0000000 1.0931498e-05
  Iterations, force evaluations = 215 430

MPI task timing breakdown:
Section |  min time  |  avg time  |  max time  |%varavg| %total
---------------------------------------------------------------
Pair    | 0.66073    | 1.8078     | 2.3552     |  36.0 | 71.50
Neigh   | 0          | 0          | 0          |   0.0 |  0.00
Comm    | 0.037902   | 0.40945    | 1.235      |  53.3 | 16.19
Output  | 0          | 0          | 0          |   0.0 |  0.00
Modify  | 2.6712e-05 | 0.003551   | 0.00758    |   2.8 |  0.14
Other   |            | 0.3075     |            |       | 12.16

Nlocal:        2776.45 ave        3946 max           0 min
Histogram: 8 4 4 0 4 12 8 2 26 36
Nghost:        3879.07 ave        5425 max         232 min
Histogram: 8 0 8 0 16 0 8 8 16 40
Neighs:        79213.5 ave      114972 max           0 min
Histogram: 8 4 4 0 10 6 8 8 24 32

Total # of neighbors = 8238203
Ave neighs/atom = 28.530474
Neighbor list builds = 0
Dangerous builds = 0
The dot product: 1.36400730164631e-07
Setting atom values ...
  1 settings made for x
  1 settings made for y
  1 settings made for z
Setting up cg style minimization ...
  Unit style    : metal
  Current step  : 3271
Per MPI rank memory allocation (min/avg/max) = 5.441 | 5.816 | 6.074 Mbytes
Step PotEng KinEng TotEng v_fx v_fy v_fz 
    3271   -1152449.2            0   -1152449.2 -0.015403958  0.094016436  -0.04322815 
    3513   -1152449.2            0   -1152449.2 5.6541912e-06 2.4115983e-07 -1.2327046e-05 
Loop time of 2.79802 on 104 procs for 242 steps with 288751 atoms

99.9% CPU use with 104 MPI tasks x 1 OpenMP threads

Minimization stats:
  Stopping criterion = energy tolerance
  Energy initial, next-to-last, final = 
     -1152449.20475902  -1152449.20820462  -1152449.20820462
  Force two-norm initial, final = 0.20087227 3.4501356e-05
  Force max component initial, final = 0.11011451 1.2327046e-05
  Final line search alpha, max atom move = 1.0000000 1.2327046e-05
  Iterations, force evaluations = 242 484

MPI task timing breakdown:
Section |  min time  |  avg time  |  max time  |%varavg| %total
---------------------------------------------------------------
Pair    | 0.74167    | 2.036      | 2.6489     |  38.2 | 72.76
Neigh   | 0          | 0          | 0          |   0.0 |  0.00
Comm    | 0.043676   | 0.45205    | 1.3592     |  57.2 | 16.16
Output  | 0          | 0          | 0          |   0.0 |  0.00
Modify  | 2.8862e-05 | 0.0039907  | 0.0085445  |   3.0 |  0.14
Other   |            | 0.306      |            |       | 10.94

Nlocal:        2776.45 ave        3954 max           0 min
Histogram: 8 4 4 0 4 12 8 2 28 34
Nghost:        3879.03 ave        5425 max         232 min
Histogram: 8 0 8 0 16 0 8 8 16 40
Neighs:        79213.5 ave      115235 max           0 min
Histogram: 8 4 4 0 10 6 8 8 24 32

Total # of neighbors = 8238206
Ave neighs/atom = 28.530485
Neighbor list builds = 0
Dangerous builds = 0
The dot product: 1.66969193666075e-07
Setting atom values ...
  1 settings made for x
  1 settings made for y
  1 settings made for z
Setting up cg style minimization ...
  Unit style    : metal
  Current step  : 3513
Per MPI rank memory allocation (min/avg/max) = 5.441 | 5.816 | 6.074 Mbytes
Step PotEng KinEng TotEng v_fx v_fy v_fz 
    3513   -1152449.2            0   -1152449.2 -0.0059635354  0.077654671 -0.034131935 
    3701   -1152449.2            0   -1152449.2 5.2989986e-06 1.9032262e-06 -1.1602482e-05 
Loop time of 2.16901 on 104 procs for 188 steps with 288751 atoms

99.9% CPU use with 104 MPI tasks x 1 OpenMP threads

Minimization stats:
  Stopping criterion = energy tolerance
  Energy initial, next-to-last, final = 
     -1152449.18155718  -1152449.18464772  -1152449.18464772
  Force two-norm initial, final = 0.19072095 0.00018286065
  Force max component initial, final = 0.11590368 2.1020087e-05
  Final line search alpha, max atom move = 1.0000000 2.1020087e-05
  Iterations, force evaluations = 188 376

MPI task timing breakdown:
Section |  min time  |  avg time  |  max time  |%varavg| %total
---------------------------------------------------------------
Pair    | 0.57471    | 1.5809     | 2.058      |  33.9 | 72.89
Neigh   | 0          | 0          | 0          |   0.0 |  0.00
Comm    | 0.034234   | 0.35211    | 1.0746     |  50.8 | 16.23
Output  | 0          | 0          | 0          |   0.0 |  0.00
Modify  | 2.2229e-05 | 0.0031057  | 0.0066745  |   2.6 |  0.14
Other   |            | 0.2329     |            |       | 10.74

Nlocal:        2776.45 ave        3956 max           0 min
Histogram: 8 4 4 0 4 12 8 2 28 34
Nghost:        3878.96 ave        5425 max         232 min
Histogram: 8 0 8 0 16 0 8 8 16 40
Neighs:        79213.5 ave      115298 max           0 min
Histogram: 8 4 4 0 10 6 8 8 24 32

Total # of neighbors = 8238206
Ave neighs/atom = 28.530485
Neighbor list builds = 0
Dangerous builds = 0
The dot product: 2.07427575623203e-07
Setting atom values ...
  1 settings made for x
  1 settings made for y
  1 settings made for z
Setting up cg style minimization ...
  Unit style    : metal
  Current step  : 3701
Per MPI rank memory allocation (min/avg/max) = 5.441 | 5.816 | 6.074 Mbytes
Step PotEng KinEng TotEng v_fx v_fy v_fz 
    3701   -1152449.2            0   -1152449.2 0.0025157944  0.063889869  -0.03243216 
    3889   -1152449.2            0   -1152449.2 3.7248492e-06 -2.7761321e-06 -5.5912442e-06 
Loop time of 2.16847 on 104 procs for 188 steps with 288751 atoms

99.9% CPU use with 104 MPI tasks x 1 OpenMP threads

Minimization stats:
  Stopping criterion = energy tolerance
  Energy initial, next-to-last, final = 
     -1152449.15753676  -1152449.16027163  -1152449.16027163
  Force two-norm initial, final = 0.18405265 0.00016426979
  Force max component initial, final = 0.12003475 1.4503562e-05
  Final line search alpha, max atom move = 1.0000000 1.4503562e-05
  Iterations, force evaluations = 188 376

MPI task timing breakdown:
Section |  min time  |  avg time  |  max time  |%varavg| %total
---------------------------------------------------------------
Pair    | 0.57437    | 1.577      | 2.0575     |  33.7 | 72.72
Neigh   | 0          | 0          | 0          |   0.0 |  0.00
Comm    | 0.034499   | 0.34793    | 1.0527     |  50.4 | 16.04
Output  | 0          | 0          | 0          |   0.0 |  0.00
Modify  | 2.3208e-05 | 0.0031092  | 0.0066618  |   2.6 |  0.14
Other   |            | 0.2405     |            |       | 11.09

Nlocal:        2776.45 ave        3956 max           0 min
Histogram: 8 4 4 0 4 12 8 2 28 34
Nghost:        3878.97 ave        5425 max         232 min
Histogram: 8 0 8 0 16 0 8 8 16 40
Neighs:        79213.6 ave      115300 max           0 min
Histogram: 8 4 4 0 10 6 8 8 24 32

Total # of neighbors = 8238211
Ave neighs/atom = 28.530502
Neighbor list builds = 0
Dangerous builds = 0
The dot product: 4.02286409323042e-08
Setting atom values ...
  1 settings made for x
  1 settings made for y
  1 settings made for z
Setting up cg style minimization ...
  Unit style    : metal
  Current step  : 3889
Per MPI rank memory allocation (min/avg/max) = 5.441 | 5.816 | 6.074 Mbytes
Step PotEng KinEng TotEng v_fx v_fy v_fz 
    3889   -1152449.1            0   -1152449.1 0.0087366776   0.05602588 -0.032679903 
    4000   -1152449.1            0   -1152449.1 -0.00011046857 -9.4795541e-06 0.00018958042 
    4061   -1152449.1            0   -1152449.1 1.3816197e-05 -6.0848257e-06 -2.1384354e-05 
Loop time of 1.98918 on 104 procs for 172 steps with 288751 atoms

99.9% CPU use with 104 MPI tasks x 1 OpenMP threads

Minimization stats:
  Stopping criterion = energy tolerance
  Energy initial, next-to-last, final = 
     -1152449.13244018  -1152449.13490855  -1152449.13490855
  Force two-norm initial, final = 0.18139439 0.00026566188
  Force max component initial, final = 0.12420503 2.8835459e-05
  Final line search alpha, max atom move = 1.0000000 2.8835459e-05
  Iterations, force evaluations = 172 344

MPI task timing breakdown:
Section |  min time  |  avg time  |  max time  |%varavg| %total
---------------------------------------------------------------
Pair    | 0.52668    | 1.4408     | 1.8824     |  32.2 | 72.43
Neigh   | 0          | 0          | 0          |   0.0 |  0.00
Comm    | 0.034508   | 0.32148    | 0.96955    |  48.1 | 16.16
Output  | 9.5102e-05 | 9.7397e-05 | 0.00022188 |   0.0 |  0.00
Modify  | 2.12e-05   | 0.0028329  | 0.0060614  |   2.5 |  0.14
Other   |            | 0.224      |            |       | 11.26

Nlocal:        2776.45 ave        3957 max           0 min
Histogram: 8 4 4 0 4 12 8 2 28 34
Nghost:        3878.98 ave        5425 max         232 min
Histogram: 8 0 8 0 16 0 8 8 16 40
Neighs:        79213.6 ave      115339 max           0 min
Histogram: 8 4 4 0 10 6 8 8 24 32

Total # of neighbors = 8238214
Ave neighs/atom = 28.530512
Neighbor list builds = 0
Dangerous builds = 0
The dot product: 2.52554031417732e-07
Setting atom values ...
  1 settings made for x
  1 settings made for y
  1 settings made for z
Setting up cg style minimization ...
  Unit style    : metal
  Current step  : 4061
Per MPI rank memory allocation (min/avg/max) = 5.441 | 5.816 | 6.074 Mbytes
Step PotEng KinEng TotEng v_fx v_fy v_fz 
    4061   -1152449.1            0   -1152449.1  0.011383308   0.04654766  -0.02892797 
    4235   -1152449.1            0   -1152449.1 3.398768e-07 2.9966585e-06 -1.243687e-06 
Loop time of 2.01268 on 104 procs for 174 steps with 288751 atoms

99.9% CPU use with 104 MPI tasks x 1 OpenMP threads

Minimization stats:
  Stopping criterion = energy tolerance
  Energy initial, next-to-last, final = 
      -1152449.1061564  -1152449.10829401  -1152449.10829401
  Force two-norm initial, final = 0.17857432 0.00020972754
  Force max component initial, final = 0.12816343 1.9247302e-05
  Final line search alpha, max atom move = 1.0000000 1.9247302e-05
  Iterations, force evaluations = 174 348

MPI task timing breakdown:
Section |  min time  |  avg time  |  max time  |%varavg| %total
---------------------------------------------------------------
Pair    | 0.54048    | 1.4663     | 1.9041     |  32.3 | 72.85
Neigh   | 0          | 0          | 0          |   0.0 |  0.00
Comm    | 0.032386   | 0.32626    | 0.98877    |  48.5 | 16.21
Output  | 0          | 0          | 0          |   0.0 |  0.00
Modify  | 2.1141e-05 | 0.0028777  | 0.0061969  |   2.5 |  0.14
Other   |            | 0.2172     |            |       | 10.79

Nlocal:        2776.45 ave        3957 max           0 min
Histogram: 8 4 4 0 4 12 8 2 28 34
Nghost:        3879.02 ave        5426 max         232 min
Histogram: 8 0 8 0 16 0 8 8 16 40
Neighs:        79213.6 ave      115336 max           0 min
Histogram: 8 4 4 0 10 6 8 8 24 32

Total # of neighbors = 8238213
Ave neighs/atom = 28.530509
Neighbor list builds = 0
Dangerous builds = 0
The dot product: 5.17243479084151e-08
Setting atom values ...
  1 settings made for x
  1 settings made for y
  1 settings made for z
Setting up cg style minimization ...
  Unit style    : metal
  Current step  : 4235
Per MPI rank memory allocation (min/avg/max) = 5.441 | 5.816 | 6.074 Mbytes
Step PotEng KinEng TotEng v_fx v_fy v_fz 
    4235   -1152449.1            0   -1152449.1  0.010846469  0.035987847 -0.022576185 
    4484   -1152449.1            0   -1152449.1 -1.6702481e-07 -1.6227776e-07 2.7736271e-07 
Loop time of 2.8723 on 104 procs for 249 steps with 288751 atoms

99.9% CPU use with 104 MPI tasks x 1 OpenMP threads

Minimization stats:
  Stopping criterion = energy tolerance
  Energy initial, next-to-last, final = 
     -1152449.07842428  -1152449.08032561  -1152449.08032561
  Force two-norm initial, final = 0.17612436 9.6885820e-06
  Force max component initial, final = 0.13180953 8.9976130e-07
  Final line search alpha, max atom move = 1.0000000 8.9976130e-07
  Iterations, force evaluations = 249 498

MPI task timing breakdown:
Section |  min time  |  avg time  |  max time  |%varavg| %total
---------------------------------------------------------------
Pair    | 0.76147    | 2.0835     | 2.7252     |  38.8 | 72.54
Neigh   | 0          | 0          | 0          |   0.0 |  0.00
Comm    | 0.044293   | 0.46388    | 1.3992     |  57.7 | 16.15
Output  | 0          | 0          | 0          |   0.0 |  0.00
Modify  | 3.0196e-05 | 0.0041044  | 0.0087963  |   3.0 |  0.14
Other   |            | 0.3208     |            |       | 11.17

Nlocal:        2776.45 ave        3957 max           0 min
Histogram: 8 4 4 0 4 12 8 2 28 34
Nghost:        3878.99 ave        5426 max         232 min
Histogram: 8 0 8 0 16 0 8 8 16 40
Neighs:        79213.6 ave      115337 max           0 min
Histogram: 8 4 4 0 10 6 8 8 24 32

Total # of neighbors = 8238212
Ave neighs/atom = 28.530506
Neighbor list builds = 0
Dangerous builds = 0
The dot product: -4.80817008270923e-09
Setting atom values ...
  1 settings made for x
  1 settings made for y
  1 settings made for z
Setting up cg style minimization ...
  Unit style    : metal
  Current step  : 4484
Per MPI rank memory allocation (min/avg/max) = 5.441 | 5.816 | 6.074 Mbytes
Step PotEng KinEng TotEng v_fx v_fy v_fz 
    4484     -1152449            0     -1152449 0.0089458536  0.026422615 -0.016429338 
    4766   -1152449.1            0   -1152449.1 -7.5290283e-07 8.6147672e-08 1.0567759e-06 
Loop time of 3.29878 on 104 procs for 282 steps with 288751 atoms

99.9% CPU use with 104 MPI tasks x 1 OpenMP threads

Minimization stats:
  Stopping criterion = energy tolerance
  Energy initial, next-to-last, final = 
     -1152449.04926494  -1152449.05102076  -1152449.05102076
  Force two-norm initial, final = 0.17483203 4.1887205e-06
  Force max component initial, final = 0.13496065 1.0567759e-06
  Final line search alpha, max atom move = 1.0000000 1.0567759e-06
  Iterations, force evaluations = 282 564

MPI task timing breakdown:
Section |  min time  |  avg time  |  max time  |%varavg| %total
---------------------------------------------------------------
Pair    | 0.86363    | 2.3785     | 3.1015     |  41.4 | 72.10
Neigh   | 0          | 0          | 0          |   0.0 |  0.00
Comm    | 0.053776   | 0.53081    | 1.601      |  61.7 | 16.09
Output  | 0          | 0          | 0          |   0.0 |  0.00
Modify  | 3.4139e-05 | 0.0046445  | 0.0099791  |   3.2 |  0.14
Other   |            | 0.3848     |            |       | 11.67

Nlocal:        2776.45 ave        3957 max           0 min
Histogram: 8 4 4 0 4 12 8 2 28 34
Nghost:        3879.01 ave        5426 max         232 min
Histogram: 8 0 8 0 16 0 8 8 16 40
Neighs:        79213.6 ave      115337 max           0 min
Histogram: 8 4 4 0 10 6 8 8 24 32

Total # of neighbors = 8238215
Ave neighs/atom = 28.530516
Neighbor list builds = 0
Dangerous builds = 0
The dot product: -1.07457647929664e-08
Setting atom values ...
  1 settings made for x
  1 settings made for y
  1 settings made for z
Setting up cg style minimization ...
  Unit style    : metal
  Current step  : 4766
Per MPI rank memory allocation (min/avg/max) = 5.441 | 5.816 | 6.074 Mbytes
Step PotEng KinEng TotEng v_fx v_fy v_fz 
    4766     -1152449            0     -1152449 0.0066724431   0.01873467 -0.011299237 
    4928     -1152449            0     -1152449 -4.9358274e-05 1.2701307e-05 6.6086381e-05 
Loop time of 1.88424 on 104 procs for 162 steps with 288751 atoms

99.9% CPU use with 104 MPI tasks x 1 OpenMP threads

Minimization stats:
  Stopping criterion = energy tolerance
  Energy initial, next-to-last, final = 
     -1152449.01876671  -1152449.02048564  -1152449.02048564
  Force two-norm initial, final = 0.17461138 0.00030313053
  Force max component initial, final = 0.13772071 8.0487235e-05
  Final line search alpha, max atom move = 1.0000000 8.0487235e-05
  Iterations, force evaluations = 162 324

MPI task timing breakdown:
Section |  min time  |  avg time  |  max time  |%varavg| %total
---------------------------------------------------------------
Pair    | 0.50071    | 1.3595     | 1.7805     |  31.1 | 72.15
Neigh   | 0          | 0          | 0          |   0.0 |  0.00
Comm    | 0.031131   | 0.30417    | 0.91298    |  46.4 | 16.14
Output  | 0          | 0          | 0          |   0.0 |  0.00
Modify  | 1.9558e-05 | 0.0026687  | 0.0057534  |   2.4 |  0.14
Other   |            | 0.2179     |            |       | 11.56

Nlocal:        2776.45 ave        3957 max           0 min
Histogram: 8 4 4 0 4 12 8 2 28 34
Nghost:        3879.03 ave        5426 max         232 min
Histogram: 8 0 8 0 16 0 8 8 16 40
Neighs:        79213.6 ave      115339 max           0 min
Histogram: 8 4 4 0 10 6 8 8 24 32

Total # of neighbors = 8238218
Ave neighs/atom = 28.530526
Neighbor list builds = 0
Dangerous builds = 0
The dot product: -5.72685534859477e-07
Setting atom values ...
  1 settings made for x
  1 settings made for y
  1 settings made for z
Setting up cg style minimization ...
  Unit style    : metal
  Current step  : 4928
Per MPI rank memory allocation (min/avg/max) = 5.441 | 5.816 | 6.074 Mbytes
Step PotEng KinEng TotEng v_fx v_fy v_fz 
    4928     -1152449            0     -1152449 0.0047363375  0.013001431 -0.0075694908 
    5000     -1152449            0     -1152449 -5.7229452e-05 3.2454115e-05 7.2765138e-05 
    5116     -1152449            0     -1152449 -7.561478e-06 1.7833978e-06 9.8611983e-06 
Loop time of 2.19293 on 104 procs for 188 steps with 288751 atoms

99.9% CPU use with 104 MPI tasks x 1 OpenMP threads

Minimization stats:
  Stopping criterion = energy tolerance
  Energy initial, next-to-last, final = 
     -1152448.98714838  -1152448.98883169  -1152448.98883169
  Force two-norm initial, final = 0.1749844 0.00012065107
  Force max component initial, final = 0.14008877 1.5977374e-05
  Final line search alpha, max atom move = 1.0000000 1.5977374e-05
  Iterations, force evaluations = 188 376

MPI task timing breakdown:
Section |  min time  |  avg time  |  max time  |%varavg| %total
---------------------------------------------------------------
Pair    | 0.57333    | 1.5833     | 2.0748     |  33.8 | 72.20
Neigh   | 0          | 0          | 0          |   0.0 |  0.00
Comm    | 0.036719   | 0.35522    | 1.0635     |  50.2 | 16.20
Output  | 9.2579e-05 | 0.00010159 | 0.00021293 |   0.0 |  0.00
Modify  | 2.287e-05  | 0.0030981  | 0.0066374  |   2.6 |  0.14
Other   |            | 0.2512     |            |       | 11.45

Nlocal:        2776.45 ave        3957 max           0 min
Histogram: 8 4 4 0 4 12 8 2 28 34
Nghost:        3879.05 ave        5426 max         232 min
Histogram: 8 0 8 0 16 0 8 8 16 40
Neighs:        79213.6 ave      115348 max           0 min
Histogram: 8 4 4 0 10 6 8 8 24 32

Total # of neighbors = 8238215
Ave neighs/atom = 28.530516
Neighbor list builds = 0
Dangerous builds = 0
The dot product: -7.81238841268508e-08
Setting atom values ...
  1 settings made for x
  1 settings made for y
  1 settings made for z
Setting up cg style minimization ...
  Unit style    : metal
  Current step  : 5116
Per MPI rank memory allocation (min/avg/max) = 5.441 | 5.816 | 6.074 Mbytes
Step PotEng KinEng TotEng v_fx v_fy v_fz 
    5116     -1152449            0     -1152449 0.0027731213 0.0087782905 -0.0043549718 
    5331     -1152449            0     -1152449 1.3495795e-05 -1.7949541e-06 -1.7301738e-05 
Loop time of 2.48328 on 104 procs for 215 steps with 288751 atoms

99.9% CPU use with 104 MPI tasks x 1 OpenMP threads

Minimization stats:
  Stopping criterion = energy tolerance
  Energy initial, next-to-last, final = 
     -1152448.95444619  -1152448.95615388  -1152448.95615388
  Force two-norm initial, final = 0.17566497 8.2211551e-05
  Force max component initial, final = 0.1421178 1.7873356e-05
  Final line search alpha, max atom move = 1.0000000 1.7873356e-05
  Iterations, force evaluations = 215 430

MPI task timing breakdown:
Section |  min time  |  avg time  |  max time  |%varavg| %total
---------------------------------------------------------------
Pair    | 0.65383    | 1.8039     | 2.3563     |  36.2 | 72.64
Neigh   | 0          | 0          | 0          |   0.0 |  0.00
Comm    | 0.037029   | 0.40297    | 1.2219     |  54.0 | 16.23
Output  | 0          | 0          | 0          |   0.0 |  0.00
Modify  | 2.5719e-05 | 0.0035363  | 0.0075849  |   2.8 |  0.14
Other   |            | 0.2729     |            |       | 10.99

Nlocal:        2776.45 ave        3956 max           0 min
Histogram: 8 4 4 0 4 12 8 0 30 34
Nghost:        3878.99 ave        5426 max         232 min
Histogram: 8 0 8 0 16 0 8 8 16 40
Neighs:        79213.6 ave      115346 max           0 min
Histogram: 8 4 4 0 10 6 8 8 24 32

Total # of neighbors = 8238219
Ave neighs/atom = 28.530530
Neighbor list builds = 0
Dangerous builds = 0
The dot product: 1.32258443888093e-07
Setting atom values ...
  1 settings made for x
  1 settings made for y
  1 settings made for z
Setting up cg style minimization ...
  Unit style    : metal
  Current step  : 5331
Per MPI rank memory allocation (min/avg/max) = 5.441 | 5.816 | 6.074 Mbytes
Step PotEng KinEng TotEng v_fx v_fy v_fz 
    5331   -1152448.9            0   -1152448.9 0.0012044871 0.0059238265 -0.0019972824 
    5522   -1152448.9            0   -1152448.9 2.4293836e-05 -2.1374355e-06 -3.055066e-05 
Loop time of 2.21048 on 104 procs for 191 steps with 288751 atoms

99.9% CPU use with 104 MPI tasks x 1 OpenMP threads

Minimization stats:
  Stopping criterion = energy tolerance
  Energy initial, next-to-last, final = 
     -1152448.92085989  -1152448.92257021  -1152448.92257021
  Force two-norm initial, final = 0.17634627 0.00014768208
  Force max component initial, final = 0.14378889 3.6032894e-05
  Final line search alpha, max atom move = 1.0000000 3.6032894e-05
  Iterations, force evaluations = 191 382

MPI task timing breakdown:
Section |  min time  |  avg time  |  max time  |%varavg| %total
---------------------------------------------------------------
Pair    | 0.58558    | 1.6076     | 2.0946     |  34.0 | 72.72
Neigh   | 0          | 0          | 0          |   0.0 |  0.00
Comm    | 0.036519   | 0.3585     | 1.0834     |  50.9 | 16.22
Output  | 0          | 0          | 0          |   0.0 |  0.00
Modify  | 2.3169e-05 | 0.0031502  | 0.0067567  |   2.7 |  0.14
Other   |            | 0.2413     |            |       | 10.91

Nlocal:        2776.45 ave        3956 max           0 min
Histogram: 8 4 4 0 4 12 8 0 30 34
Nghost:        3879.03 ave        5426 max         232 min
Histogram: 8 0 8 0 16 0 8 8 16 40
Neighs:        79213.6 ave      115324 max           0 min
Histogram: 8 4 4 0 10 6 8 8 24 32

Total # of neighbors = 8238214
Ave neighs/atom = 28.530512
Neighbor list builds = 0
Dangerous builds = 0
The dot product: 2.12496465182972e-07
Setting atom values ...
  1 settings made for x
  1 settings made for y
  1 settings made for z
Setting up cg style minimization ...
  Unit style    : metal
  Current step  : 5522
Per MPI rank memory allocation (min/avg/max) = 5.441 | 5.816 | 6.074 Mbytes
Step PotEng KinEng TotEng v_fx v_fy v_fz 
    5522   -1152448.9            0   -1152448.9 -0.00083319003 0.0039424829 0.00073639657 
    5729   -1152448.9            0   -1152448.9 8.7756604e-06 -2.2665792e-06 -1.071348e-05 
Loop time of 2.40309 on 104 procs for 207 steps with 288751 atoms

99.9% CPU use with 104 MPI tasks x 1 OpenMP threads

Minimization stats:
  Stopping criterion = energy tolerance
  Energy initial, next-to-last, final = 
     -1152448.88636166  -1152448.88798393  -1152448.88798393
  Force two-norm initial, final = 0.17722084 8.5853828e-05
  Force max component initial, final = 0.14539791 1.4393792e-05
  Final line search alpha, max atom move = 1.0000000 1.4393792e-05
  Iterations, force evaluations = 207 414

MPI task timing breakdown:
Section |  min time  |  avg time  |  max time  |%varavg| %total
---------------------------------------------------------------
Pair    | 0.63253    | 1.7381     | 2.2704     |  35.4 | 72.33
Neigh   | 0          | 0          | 0          |   0.0 |  0.00
Comm    | 0.035548   | 0.38951    | 1.1813     |  52.9 | 16.21
Output  | 0          | 0          | 0          |   0.0 |  0.00
Modify  | 2.498e-05  | 0.0034134  | 0.0073218  |   2.8 |  0.14
Other   |            | 0.272      |            |       | 11.32

Nlocal:        2776.45 ave        3956 max           0 min
Histogram: 8 4 4 0 4 12 8 0 30 34
Nghost:        3879.03 ave        5426 max         232 min
Histogram: 8 0 8 0 16 0 8 8 16 40
Neighs:        79213.6 ave      115348 max           0 min
Histogram: 8 4 4 0 10 6 8 8 24 32

Total # of neighbors = 8238216
Ave neighs/atom = 28.530519
Neighbor list builds = 0
Dangerous builds = 0
The dot product: 6.01278794340481e-08
Setting atom values ...
  1 settings made for x
  1 settings made for y
  1 settings made for z
Setting up cg style minimization ...
  Unit style    : metal
  Current step  : 5729
Per MPI rank memory allocation (min/avg/max) = 5.441 | 5.816 | 6.074 Mbytes
Step PotEng KinEng TotEng v_fx v_fy v_fz 
    5729   -1152448.9            0   -1152448.9 -0.0036828758  0.002615109 0.0043092349 
    5960   -1152448.9            0   -1152448.9 2.684051e-06 -7.9088681e-07 -3.2215031e-06 
Loop time of 2.69397 on 104 procs for 231 steps with 288751 atoms

99.9% CPU use with 104 MPI tasks x 1 OpenMP threads

Minimization stats:
  Stopping criterion = energy tolerance
  Energy initial, next-to-last, final = 
     -1152448.85072304  -1152448.85234774  -1152448.85234774
  Force two-norm initial, final = 0.17854918 4.0265418e-05
  Force max component initial, final = 0.14716627 6.0096701e-06
  Final line search alpha, max atom move = 1.0000000 6.0096701e-06
  Iterations, force evaluations = 231 462

MPI task timing breakdown:
Section |  min time  |  avg time  |  max time  |%varavg| %total
---------------------------------------------------------------
Pair    | 0.71612    | 1.9479     | 2.5277     |  37.2 | 72.31
Neigh   | 0          | 0          | 0          |   0.0 |  0.00
Comm    | 0.046576   | 0.4352     | 1.3128     |  55.6 | 16.15
Output  | 0          | 0          | 0          |   0.0 |  0.00
Modify  | 2.7618e-05 | 0.0038177  | 0.0081423  |   2.9 |  0.14
Other   |            | 0.307      |            |       | 11.40

Nlocal:        2776.45 ave        3956 max           0 min
Histogram: 8 4 4 0 4 12 8 0 30 34
Nghost:        3879.02 ave        5426 max         232 min
Histogram: 8 0 8 0 16 0 8 8 16 40
Neighs:        79213.6 ave      115349 max           0 min
Histogram: 8 4 4 0 10 6 8 8 24 32

Total # of neighbors = 8238215
Ave neighs/atom = 28.530516
Neighbor list builds = 0
Dangerous builds = 0
The dot product: 1.50113327539719e-08
Setting atom values ...
  1 settings made for x
  1 settings made for y
  1 settings made for z
Setting up cg style minimization ...
  Unit style    : metal
  Current step  : 5960
Per MPI rank memory allocation (min/avg/max) = 5.441 | 5.816 | 6.074 Mbytes
Step PotEng KinEng TotEng v_fx v_fy v_fz 
    5960   -1152448.8            0   -1152448.8 -0.0062602737  0.001939313 0.0074189968 
    6000   -1152448.8            0   -1152448.8 -0.00052551802 8.7260045e-05 0.00062816813 
    6247   -1152448.8            0   -1152448.8 1.0243557e-06 -2.4351278e-07 -1.2192137e-06 
Loop time of 3.3135 on 104 procs for 287 steps with 288751 atoms

99.9% CPU use with 104 MPI tasks x 1 OpenMP threads

Minimization stats:
  Stopping criterion = energy tolerance
  Energy initial, next-to-last, final = 
     -1152448.81408127  -1152448.81584158  -1152448.81584158
  Force two-norm initial, final = 0.1797612 5.6225004e-06
  Force max component initial, final = 0.14871828 1.5609078e-06
  Final line search alpha, max atom move = 1.0000000 1.5609078e-06
  Iterations, force evaluations = 287 574

MPI task timing breakdown:
Section |  min time  |  avg time  |  max time  |%varavg| %total
---------------------------------------------------------------
Pair    | 0.8739     | 2.3982     | 3.1429     |  41.6 | 72.38
Neigh   | 0          | 0          | 0          |   0.0 |  0.00
Comm    | 0.050806   | 0.5345     | 1.6074     |  61.8 | 16.13
Output  | 9.2909e-05 | 9.9706e-05 | 0.00019626 |   0.0 |  0.00
Modify  | 3.5003e-05 | 0.0047278  | 0.010104   |   3.2 |  0.14
Other   |            | 0.3759     |            |       | 11.35

Nlocal:        2776.45 ave        3955 max           0 min
Histogram: 8 4 4 0 4 12 8 0 30 34
Nghost:        3879.02 ave        5426 max         232 min
Histogram: 8 0 8 0 16 0 8 8 16 40
Neighs:        79213.6 ave      115348 max           0 min
Histogram: 8 4 4 0 10 6 8 8 24 32

Total # of neighbors = 8238213
Ave neighs/atom = 28.530509
Neighbor list builds = 0
Dangerous builds = 0
The dot product: 5.01208303550524e-09
Setting atom values ...
  1 settings made for x
  1 settings made for y
  1 settings made for z
Setting up cg style minimization ...
  Unit style    : metal
  Current step  : 6247
Per MPI rank memory allocation (min/avg/max) = 5.441 | 5.816 | 6.074 Mbytes
Step PotEng KinEng TotEng v_fx v_fy v_fz 
    6247   -1152448.8            0   -1152448.8 -0.0083727503  0.001744379 0.0098835965 
    6417   -1152448.8            0   -1152448.8 -3.7194166e-05 8.5978534e-06 4.3845682e-05 
Loop time of 1.98681 on 104 procs for 170 steps with 288751 atoms

99.9% CPU use with 104 MPI tasks x 1 OpenMP threads

Minimization stats:
  Stopping criterion = energy tolerance
  Energy initial, next-to-last, final = 
     -1152448.77673938  -1152448.77835661  -1152448.77835661
  Force two-norm initial, final = 0.18037982 0.00025088048
  Force max component initial, final = 0.14980709 5.1140326e-05
  Final line search alpha, max atom move = 1.0000000 5.1140326e-05
  Iterations, force evaluations = 170 340

MPI task timing breakdown:
Section |  min time  |  avg time  |  max time  |%varavg| %total
---------------------------------------------------------------
Pair    | 0.51907    | 1.4348     | 1.8766     |  32.3 | 72.22
Neigh   | 0          | 0          | 0          |   0.0 |  0.00
Comm    | 0.031723   | 0.3237     | 0.97239    |  47.6 | 16.29
Output  | 0          | 0          | 0          |   0.0 |  0.00
Modify  | 2.0988e-05 | 0.0028075  | 0.0060914  |   2.5 |  0.14
Other   |            | 0.2255     |            |       | 11.35

Nlocal:        2776.45 ave        3956 max           0 min
Histogram: 8 4 4 0 4 12 8 0 30 34
Nghost:        3879.00 ave        5426 max         232 min
Histogram: 8 0 8 0 16 0 8 8 16 40
Neighs:        79213.6 ave      115347 max           0 min
Histogram: 8 4 4 0 10 6 8 8 24 32

Total # of neighbors = 8238215
Ave neighs/atom = 28.530516
Neighbor list builds = 0
Dangerous builds = 0
The dot product: -1.19143048100786e-07
Setting atom values ...
  1 settings made for x
  1 settings made for y
  1 settings made for z
Setting up cg style minimization ...
  Unit style    : metal
  Current step  : 6417
Per MPI rank memory allocation (min/avg/max) = 5.441 | 5.816 | 6.074 Mbytes
Step PotEng KinEng TotEng v_fx v_fy v_fz 
    6417   -1152448.7            0   -1152448.7 -0.011596962 0.0020606124  0.013627938 
    6596   -1152448.7            0   -1152448.7 -2.1106041e-05 6.6891018e-06 2.4593559e-05 
Loop time of 2.07928 on 104 procs for 179 steps with 288751 atoms

99.9% CPU use with 104 MPI tasks x 1 OpenMP threads

Minimization stats:
  Stopping criterion = energy tolerance
  Energy initial, next-to-last, final = 
      -1152448.7382448  -1152448.73989163  -1152448.73989163
  Force two-norm initial, final = 0.18137101 0.00020181098
  Force max component initial, final = 0.15119052 4.6078365e-05
  Final line search alpha, max atom move = 1.0000000 4.6078365e-05
  Iterations, force evaluations = 179 358

MPI task timing breakdown:
Section |  min time  |  avg time  |  max time  |%varavg| %total
---------------------------------------------------------------
Pair    | 0.54566    | 1.4989     | 1.9676     |  33.0 | 72.09
Neigh   | 0          | 0          | 0          |   0.0 |  0.00
Comm    | 0.032628   | 0.3342     | 1.0087     |  49.0 | 16.07
Output  | 0          | 0          | 0          |   0.0 |  0.00
Modify  | 2.1469e-05 | 0.0029561  | 0.0063089  |   2.6 |  0.14
Other   |            | 0.2432     |            |       | 11.70

Nlocal:        2776.45 ave        3956 max           0 min
Histogram: 8 4 4 0 4 12 8 0 30 34
Nghost:        3878.96 ave        5425 max         232 min
Histogram: 8 0 8 0 16 0 8 8 16 40
Neighs:        79213.6 ave      115344 max           0 min
Histogram: 8 4 4 0 10 6 8 8 24 32

Total # of neighbors = 8238213
Ave neighs/atom = 28.530509
Neighbor list builds = 0
Dangerous builds = 0
The dot product: -4.00603224913948e-08
Setting atom values ...
  1 settings made for x
  1 settings made for y
  1 settings made for z
Setting up cg style minimization ...
  Unit style    : metal
  Current step  : 6596
Per MPI rank memory allocation (min/avg/max) = 5.441 | 5.816 | 6.074 Mbytes
Step PotEng KinEng TotEng v_fx v_fy v_fz 
    6596   -1152448.7            0   -1152448.7  -0.01429626 0.0027538346  0.016724623 
    6771   -1152448.7            0   -1152448.7 1.9410051e-05 -5.8959166e-06 -2.2552109e-05 
Loop time of 2.03849 on 104 procs for 175 steps with 288751 atoms

99.9% CPU use with 104 MPI tasks x 1 OpenMP threads

Minimization stats:
  Stopping criterion = energy tolerance
  Energy initial, next-to-last, final = 
     -1152448.69892087  -1152448.70080622  -1152448.70080622
  Force two-norm initial, final = 0.18156042 0.00012914403
  Force max component initial, final = 0.15212135 3.3043207e-05
  Final line search alpha, max atom move = 1.0000000 3.3043207e-05
  Iterations, force evaluations = 175 350

MPI task timing breakdown:
Section |  min time  |  avg time  |  max time  |%varavg| %total
---------------------------------------------------------------
Pair    | 0.53544    | 1.4756     | 1.9295     |  32.7 | 72.39
Neigh   | 0          | 0          | 0          |   0.0 |  0.00
Comm    | 0.032466   | 0.33024    | 0.99187    |  48.7 | 16.20
Output  | 0          | 0          | 0          |   0.0 |  0.00
Modify  | 2.0991e-05 | 0.0028872  | 0.0062221  |   2.5 |  0.14
Other   |            | 0.2297     |            |       | 11.27

Nlocal:        2776.45 ave        3955 max           0 min
Histogram: 8 4 4 0 4 12 8 0 30 34
Nghost:        3878.97 ave        5425 max         232 min
Histogram: 8 0 8 0 16 0 8 8 16 40
Neighs:        79213.6 ave      115307 max           0 min
Histogram: 8 4 4 0 10 6 8 8 24 32

Total # of neighbors = 8238215
Ave neighs/atom = 28.530516
Neighbor list builds = 0
Dangerous builds = 0
The dot product: 2.13493259819274e-08
Setting atom values ...
  1 settings made for x
  1 settings made for y
  1 settings made for z
Setting up cg style minimization ...
  Unit style    : metal
  Current step  : 6771
Per MPI rank memory allocation (min/avg/max) = 5.441 | 5.816 | 6.074 Mbytes
Step PotEng KinEng TotEng v_fx v_fy v_fz 
    6771   -1152448.7            0   -1152448.7 -0.016307795 0.0032906129  0.019030402 
    6916   -1152448.7            0   -1152448.7 -2.8964303e-05 3.9821151e-06 3.3936825e-05 
Loop time of 1.67454 on 104 procs for 145 steps with 288751 atoms

99.9% CPU use with 104 MPI tasks x 1 OpenMP threads

Minimization stats:
  Stopping criterion = energy tolerance
  Energy initial, next-to-last, final = 
     -1152448.65946322  -1152448.66125393  -1152448.66125393
  Force two-norm initial, final = 0.18017167 0.00013392812
  Force max component initial, final = 0.15186642 3.3936825e-05
  Final line search alpha, max atom move = 1.0000000 3.3936825e-05
  Iterations, force evaluations = 145 290

MPI task timing breakdown:
Section |  min time  |  avg time  |  max time  |%varavg| %total
---------------------------------------------------------------
Pair    | 0.44418    | 1.2168     | 1.5886     |  29.6 | 72.66
Neigh   | 0          | 0          | 0          |   0.0 |  0.00
Comm    | 0.025574   | 0.27056    | 0.82028    |  44.3 | 16.16
Output  | 0          | 0          | 0          |   0.0 |  0.00
Modify  | 1.7709e-05 | 0.0024013  | 0.0051397  |   2.3 |  0.14
Other   |            | 0.1848     |            |       | 11.04

Nlocal:        2776.45 ave        3956 max           0 min
Histogram: 8 4 4 0 4 12 8 0 30 34
Nghost:        3878.92 ave        5425 max         232 min
Histogram: 8 0 8 0 16 0 8 8 16 40
Neighs:        79213.5 ave      115335 max           0 min
Histogram: 8 4 4 0 10 6 8 8 24 32

Total # of neighbors = 8238200
Ave neighs/atom = 28.530464
Neighbor list builds = 0
Dangerous builds = 0
The dot product: 2.2344340919606e-08
Setting atom values ...
  1 settings made for x
  1 settings made for y
  1 settings made for z
Setting up cg style minimization ...
  Unit style    : metal
  Current step  : 6916
Per MPI rank memory allocation (min/avg/max) = 5.441 | 5.816 | 6.074 Mbytes
Step PotEng KinEng TotEng v_fx v_fy v_fz 
    6916   -1152448.6            0   -1152448.6 -0.019237725 0.0037431168  0.022488688 
    7000   -1152448.6            0   -1152448.6 -0.00012342849 2.7986961e-05 0.00014398445 
    7099   -1152448.6            0   -1152448.6 -4.6174707e-05 7.1608904e-06 5.4116419e-05 
Loop time of 2.13064 on 104 procs for 183 steps with 288751 atoms

99.9% CPU use with 104 MPI tasks x 1 OpenMP threads

Minimization stats:
  Stopping criterion = energy tolerance
  Energy initial, next-to-last, final = 
     -1152448.61982766  -1152448.62197792  -1152448.62197792
  Force two-norm initial, final = 0.17915843 0.00022048756
  Force max component initial, final = 0.15124152 5.5990719e-05
  Final line search alpha, max atom move = 1.0000000 5.5990719e-05
  Iterations, force evaluations = 183 366

MPI task timing breakdown:
Section |  min time  |  avg time  |  max time  |%varavg| %total
---------------------------------------------------------------
Pair    | 0.5591     | 1.5384     | 2.0067     |  33.3 | 72.20
Neigh   | 0          | 0          | 0          |   0.0 |  0.00
Comm    | 0.033241   | 0.34332    | 1.0252     |  49.2 | 16.11
Output  | 0.0001022  | 0.00010782 | 0.00022129 |   0.0 |  0.01
Modify  | 2.2065e-05 | 0.0030228  | 0.0064491  |   2.6 |  0.14
Other   |            | 0.2458     |            |       | 11.54

Nlocal:        2776.45 ave        3955 max           0 min
Histogram: 8 4 4 0 4 12 8 0 30 34
Nghost:        3878.91 ave        5425 max         232 min
Histogram: 8 0 8 0 16 0 8 8 16 40
Neighs:        79213.5 ave      115295 max           0 min
Histogram: 8 4 4 0 10 6 8 8 24 32

Total # of neighbors = 8238201
Ave neighs/atom = 28.530467
Neighbor list builds = 0
Dangerous builds = 0
The dot product: 3.58536604821557e-08
Setting atom values ...
  1 settings made for x
  1 settings made for y
  1 settings made for z
Setting up cg style minimization ...
  Unit style    : metal
  Current step  : 7099
Per MPI rank memory allocation (min/avg/max) = 5.441 | 5.816 | 6.074 Mbytes
Step PotEng KinEng TotEng v_fx v_fy v_fz 
    7099   -1152448.6            0   -1152448.6   -0.0215465 0.0008690738  0.025483489 
    7381   -1152448.6            0   -1152448.6 3.578715e-06 -5.2626283e-07 -4.2023116e-06 
Loop time of 3.27752 on 104 procs for 282 steps with 288751 atoms

99.9% CPU use with 104 MPI tasks x 1 OpenMP threads

Minimization stats:
  Stopping criterion = energy tolerance
  Energy initial, next-to-last, final = 
     -1152448.58158623   -1152448.5860969   -1152448.5860969
  Force two-norm initial, final = 0.17849336 2.6205042e-05
  Force max component initial, final = 0.14835583 5.2029481e-06
  Final line search alpha, max atom move = 1.0000000 5.2029481e-06
  Iterations, force evaluations = 282 564

MPI task timing breakdown:
Section |  min time  |  avg time  |  max time  |%varavg| %total
---------------------------------------------------------------
Pair    | 0.86425    | 2.3651     | 3.089      |  41.3 | 72.16
Neigh   | 1.0558e-05 | 0.0029605  | 0.0043643  |   2.2 |  0.09
Comm    | 0.054314   | 0.52997    | 1.6009     |  61.7 | 16.17
Output  | 0          | 0          | 0          |   0.0 |  0.00
Modify  | 3.3305e-05 | 0.0046462  | 0.0099301  |   3.2 |  0.14
Other   |            | 0.3749     |            |       | 11.44

Nlocal:        2776.45 ave        3956 max           0 min
Histogram: 8 4 4 0 4 12 8 0 30 34
Nghost:        3878.95 ave        5425 max         232 min
Histogram: 8 0 8 0 16 0 8 8 16 40
Neighs:        79213.4 ave      115316 max           0 min
Histogram: 8 4 4 0 10 6 8 8 24 32

Total # of neighbors = 8238195
Ave neighs/atom = 28.530447
Neighbor list builds = 1
Dangerous builds = 0
The dot product: 6.94868388233807e-08
Setting atom values ...
  1 settings made for x
  1 settings made for y
  1 settings made for z
Setting up cg style minimization ...
  Unit style    : metal
  Current step  : 7381
Per MPI rank memory allocation (min/avg/max) = 5.441 | 5.816 | 6.074 Mbytes
Step PotEng KinEng TotEng v_fx v_fy v_fz 
    7381   -1152448.6            0   -1152448.6 -0.011706047 -0.0012500728  0.013542372 
    7596   -1152448.6            0   -1152448.6 5.6705457e-06 -9.1523301e-07 -6.432018e-06 
Loop time of 2.48395 on 104 procs for 215 steps with 288751 atoms

99.9% CPU use with 104 MPI tasks x 1 OpenMP threads

Minimization stats:
  Stopping criterion = energy tolerance
  Energy initial, next-to-last, final = 
     -1152448.55848315  -1152448.56158076  -1152448.56158076
  Force two-norm initial, final = 0.18440394 9.0761461e-05
  Force max component initial, final = 0.14846171 8.4897355e-06
  Final line search alpha, max atom move = 1.0000000 8.4897355e-06
  Iterations, force evaluations = 215 430

MPI task timing breakdown:
Section |  min time  |  avg time  |  max time  |%varavg| %total
---------------------------------------------------------------
Pair    | 0.65744    | 1.8099     | 2.3558     |  36.2 | 72.86
Neigh   | 0          | 0          | 0          |   0.0 |  0.00
Comm    | 0.041986   | 0.40388    | 1.2251     |  54.1 | 16.26
Output  | 0          | 0          | 0          |   0.0 |  0.00
Modify  | 2.6353e-05 | 0.0035445  | 0.0076198  |   2.8 |  0.14
Other   |            | 0.2666     |            |       | 10.73

Nlocal:        2776.45 ave        3956 max           0 min
Histogram: 8 4 4 0 4 12 8 0 30 34
Nghost:        3879.03 ave        5426 max         232 min
Histogram: 8 0 8 0 16 0 8 8 16 40
Neighs:        79213.4 ave      115331 max           0 min
Histogram: 8 4 4 0 10 6 8 8 24 32

Total # of neighbors = 8238198
Ave neighs/atom = 28.530457
Neighbor list builds = 0
Dangerous builds = 0
The dot product: 5.2815763022669e-08
Setting atom values ...
  1 settings made for x
  1 settings made for y
  1 settings made for z
Setting up cg style minimization ...
  Unit style    : metal
  Current step  : 7596
Per MPI rank memory allocation (min/avg/max) = 5.441 | 5.816 | 6.074 Mbytes
Step PotEng KinEng TotEng v_fx v_fy v_fz 
    7596   -1152448.5            0   -1152448.5 -0.024680953 0.0041704686  0.027535936 
    7813   -1152448.5            0   -1152448.5 -1.5155314e-05 2.1704055e-06 1.6941915e-05 
[...]

Nlocal:        2776.45 ave        3948 max           0 min
Histogram: 8 4 4 0 4 12 8 0 26 38
Nghost:        3879.07 ave        5426 max         232 min
Histogram: 8 0 8 0 16 0 8 8 16 40
Neighs:        79213.6 ave      114959 max           0 min
Histogram: 8 4 4 0 10 6 8 8 24 32

Total # of neighbors = 8238212
Ave neighs/atom = 28.530506
Neighbor list builds = 0
Dangerous builds = 0
The dot product: -1.13953083311373e-08
Setting atom values ...
  1 settings made for x
  1 settings made for y
  1 settings made for z
Setting up cg style minimization ...
  Unit style    : metal
  Current step  : 19588
Per MPI rank memory allocation (min/avg/max) = 5.441 | 5.816 | 6.074 Mbytes
Step PotEng KinEng TotEng v_fx v_fy v_fz 
   19588   -1152448.1            0   -1152448.1  0.028499555 -0.0059449255  -0.01144167 
   19759   -1152448.1            0   -1152448.1 8.3683978e-06 -3.434817e-05 2.434068e-05 
Loop time of 1.97309 on 104 procs for 171 steps with 288751 atoms

99.9% CPU use with 104 MPI tasks x 1 OpenMP threads

Minimization stats:
  Stopping criterion = energy tolerance
  Energy initial, next-to-last, final = 
     -1152448.07171791  -1152448.07258559  -1152448.07258559
  Force two-norm initial, final = 0.12408615 0.00015960651
  Force max component initial, final = 0.053568074 6.8315327e-05
  Final line search alpha, max atom move = 1.0000000 6.8315327e-05
  Iterations, force evaluations = 171 342

MPI task timing breakdown:
Section |  min time  |  avg time  |  max time  |%varavg| %total
---------------------------------------------------------------
Pair    | 0.52339    | 1.4361     | 1.8647     |  32.3 | 72.78
Neigh   | 0          | 0          | 0          |   0.0 |  0.00
Comm    | 0.029176   | 0.32586    | 0.9894     |  47.6 | 16.52
Output  | 0          | 0          | 0          |   0.0 |  0.00
Modify  | 1.9612e-05 | 0.0028093  | 0.0059986  |   2.5 |  0.14
Other   |            | 0.2083     |            |       | 10.56

Nlocal:        2776.45 ave        3948 max           0 min
Histogram: 8 4 4 0 4 12 8 0 26 38
Nghost:        3879.07 ave        5426 max         232 min
Histogram: 8 0 8 0 16 0 8 8 16 40
Neighs:        79213.6 ave      114967 max           0 min
Histogram: 8 4 4 0 10 6 8 8 24 32

Total # of neighbors = 8238215
Ave neighs/atom = 28.530516
Neighbor list builds = 0
Dangerous builds = 0
The dot product: 3.50657633745727e-08
Setting atom values ...
  1 settings made for x
  1 settings made for y
  1 settings made for z
Setting up cg style minimization ...
  Unit style    : metal
  Current step  : 19759
Per MPI rank memory allocation (min/avg/max) = 5.441 | 5.816 | 6.074 Mbytes
Step PotEng KinEng TotEng v_fx v_fy v_fz 
   19759   -1152448.1            0   -1152448.1  0.031042717 -0.0019400161 -0.016371833 
   19920   -1152448.1            0   -1152448.1 1.205943e-05 -1.8257058e-05 8.5078726e-06 
Loop time of 1.84737 on 104 procs for 161 steps with 288751 atoms

99.9% CPU use with 104 MPI tasks x 1 OpenMP threads

Minimization stats:
  Stopping criterion = energy tolerance
  Energy initial, next-to-last, final = 
       -1152448.051366  -1152448.05219993  -1152448.05219993
  Force two-norm initial, final = 0.1228495 0.00013452318
  Force max component initial, final = 0.053481856 2.2343866e-05
  Final line search alpha, max atom move = 1.0000000 2.2343866e-05
  Iterations, force evaluations = 161 322

MPI task timing breakdown:
Section |  min time  |  avg time  |  max time  |%varavg| %total
---------------------------------------------------------------
Pair    | 0.49205    | 1.352      | 1.7509     |  31.4 | 73.18
Neigh   | 0          | 0          | 0          |   0.0 |  0.00
Comm    | 0.027998   | 0.30127    | 0.91201    |  46.6 | 16.31
Output  | 0          | 0          | 0          |   0.0 |  0.00
Modify  | 1.8851e-05 | 0.0026479  | 0.0057098  |   2.4 |  0.14
Other   |            | 0.1915     |            |       | 10.37

Nlocal:        2776.45 ave        3948 max           0 min
Histogram: 8 4 4 0 4 12 8 0 26 38
Nghost:        3879.08 ave        5426 max         232 min
Histogram: 8 0 8 0 16 0 8 8 16 40
Neighs:        79213.6 ave      114976 max           0 min
Histogram: 8 4 4 0 10 6 8 8 24 32

Total # of neighbors = 8238216
Ave neighs/atom = 28.530519
Neighbor list builds = 0
Dangerous builds = 0
The dot product: 3.39243821802752e-08
Setting atom values ...
  1 settings made for x
  1 settings made for y
  1 settings made for z
Setting up cg style minimization ...
  Unit style    : metal
  Current step  : 19920
Per MPI rank memory allocation (min/avg/max) = 5.441 | 5.816 | 6.074 Mbytes
Step PotEng KinEng TotEng v_fx v_fy v_fz 
   19920     -1152448            0     -1152448  0.036532929 0.0047366815 -0.025328296 
   20000   -1152448.8            0   -1152448.8  0.060962612 -0.067486218  0.021816867 
   20276   -1152448.8            0   -1152448.8 3.1596457e-05 -4.8763136e-06 -1.4278767e-05 
Loop time of 4.14961 on 104 procs for 356 steps with 288751 atoms

99.9% CPU use with 104 MPI tasks x 1 OpenMP threads

Minimization stats:
  Stopping criterion = energy tolerance
  Energy initial, next-to-last, final = 
     -1152448.03059594  -1152448.79933854  -1152448.79933854
  Force two-norm initial, final = 0.12508273 9.8337709e-05
  Force max component initial, final = 0.05333377 3.1596457e-05
  Final line search alpha, max atom move = 1.0000000 3.1596457e-05
  Iterations, force evaluations = 356 710

MPI task timing breakdown:
Section |  min time  |  avg time  |  max time  |%varavg| %total
---------------------------------------------------------------
Pair    | 1.1291     | 2.9886     | 3.8503     |  45.6 | 72.02
Neigh   | 0.00011224 | 0.032413   | 0.047077   |   7.4 |  0.78
Comm    | 0.080317   | 0.6742     | 2.0364     |  68.7 | 16.25
Output  | 0.00014454 | 0.00015444 | 0.00034928 |   0.0 |  0.00
Modify  | 4.3643e-05 | 0.0058418  | 0.012607   |   3.6 |  0.14
Other   |            | 0.4484     |            |       | 10.81

Nlocal:        2776.45 ave        3939 max           0 min
Histogram: 8 4 4 0 4 12 8 0 28 36
Nghost:        3879.09 ave        5424 max         232 min
Histogram: 8 0 8 0 16 0 8 8 16 40
Neighs:        79213.5 ave      114742 max           0 min
Histogram: 8 4 4 0 9 7 8 8 22 34

Total # of neighbors = 8238202
Ave neighs/atom = 28.530471
Neighbor list builds = 11
Dangerous builds = 0
The dot product: 2.94158839897619e-06
Setting atom values ...
  1 settings made for x
  1 settings made for y
  1 settings made for z
Setting up cg style minimization ...
  Unit style    : metal
  Current step  : 20276
Per MPI rank memory allocation (min/avg/max) = 5.441 | 5.816 | 6.074 Mbytes
Step PotEng KinEng TotEng v_fx v_fy v_fz 
   20276   -1152448.8            0   -1152448.8 -0.0024681662  -0.20665392   0.26208964 
   20515   -1152448.9            0   -1152448.9 1.825508e-05 -5.5629877e-06 -6.050349e-06 
Loop time of 2.75824 on 104 procs for 239 steps with 288751 atoms

99.9% CPU use with 104 MPI tasks x 1 OpenMP threads

Minimization stats:
  Stopping criterion = energy tolerance
  Energy initial, next-to-last, final = 
     -1152448.83438557  -1152448.85236941  -1152448.85236941
  Force two-norm initial, final = 0.37370827 6.8329459e-05
  Force max component initial, final = 0.26208964 1.8255080e-05
  Final line search alpha, max atom move = 1.0000000 1.8255080e-05
  Iterations, force evaluations = 239 478

MPI task timing breakdown:
Section |  min time  |  avg time  |  max time  |%varavg| %total
---------------------------------------------------------------
Pair    | 0.73256    | 2.0073     | 2.583      |  38.2 | 72.78
Neigh   | 1.0074e-05 | 0.0029547  | 0.0042891  |   2.2 |  0.11
Comm    | 0.045123   | 0.45173    | 1.3626     |  56.6 | 16.38
Output  | 0          | 0          | 0          |   0.0 |  0.00
Modify  | 2.7516e-05 | 0.0039341  | 0.008452   |   3.0 |  0.14
Other   |            | 0.2923     |            |       | 10.60

Nlocal:        2776.45 ave        3930 max           0 min
Histogram: 8 4 4 0 4 12 8 0 26 38
Nghost:        3879.01 ave        5426 max         232 min
Histogram: 8 0 8 0 16 0 8 8 16 40
Neighs:        79213.3 ave      114448 max           0 min
Histogram: 8 4 4 0 8 8 8 8 20 36

Total # of neighbors = 8238186
Ave neighs/atom = 28.530415
Neighbor list builds = 1
Dangerous builds = 0
The dot product: -4.3749227669339e-08
Setting atom values ...
  1 settings made for x
  1 settings made for y
  1 settings made for z
Setting up cg style minimization ...
  Unit style    : metal
  Current step  : 20515
Per MPI rank memory allocation (min/avg/max) = 5.441 | 5.816 | 6.074 Mbytes
Step PotEng KinEng TotEng v_fx v_fy v_fz 
   20515   -1152448.9            0   -1152448.9 0.0017012828  0.052794792 -0.062056634 
   20650   -1152448.9            0   -1152448.9 6.9723688e-06 3.9780066e-06 -9.3386002e-06 
Loop time of 1.55347 on 104 procs for 135 steps with 288751 atoms

99.9% CPU use with 104 MPI tasks x 1 OpenMP threads

Minimization stats:
  Stopping criterion = energy tolerance
  Energy initial, next-to-last, final = 
      -1152448.8861524  -1152448.88816014  -1152448.88816014
  Force two-norm initial, final = 0.18908901 0.00010207077
  Force max component initial, final = 0.10545146 2.9442774e-05
  Final line search alpha, max atom move = 1.0000000 2.9442774e-05
  Iterations, force evaluations = 135 270

MPI task timing breakdown:
Section |  min time  |  avg time  |  max time  |%varavg| %total
---------------------------------------------------------------
Pair    | 0.41327    | 1.1338     | 1.4701     |  28.7 | 72.98
Neigh   | 0          | 0          | 0          |   0.0 |  0.00
Comm    | 0.0267     | 0.25332    | 0.76781    |  42.6 | 16.31
Output  | 0          | 0          | 0          |   0.0 |  0.00
Modify  | 1.5192e-05 | 0.0022202  | 0.0047548  |   2.2 |  0.14
Other   |            | 0.1641     |            |       | 10.57

Nlocal:        2776.45 ave        3930 max           0 min
Histogram: 8 4 4 0 4 12 8 0 26 38
Nghost:        3879.07 ave        5425 max         232 min
Histogram: 8 0 8 0 16 0 8 8 16 40
Neighs:        79213.3 ave      114442 max           0 min
Histogram: 8 4 4 0 8 8 8 8 20 36

Total # of neighbors = 8238183
Ave neighs/atom = 28.530405
Neighbor list builds = 0
Dangerous builds = 0
The dot product: 1.63573950240096e-07
Setting atom values ...
  1 settings made for x
  1 settings made for y
  1 settings made for z
Setting up cg style minimization ...
  Unit style    : metal
  Current step  : 20650
Per MPI rank memory allocation (min/avg/max) = 5.441 | 5.816 | 6.074 Mbytes
Step PotEng KinEng TotEng v_fx v_fy v_fz 
   20650   -1152448.9            0   -1152448.9  0.004789279 -0.0027417538 -6.9580822e-05 
   20856   -1152448.9            0   -1152448.9 -1.0646013e-05 -3.5245987e-07 7.7196912e-06 
Loop time of 2.35599 on 104 procs for 206 steps with 288751 atoms

99.9% CPU use with 104 MPI tasks x 1 OpenMP threads

Minimization stats:
  Stopping criterion = energy tolerance
  Energy initial, next-to-last, final = 
     -1152448.92032436  -1152448.92167538  -1152448.92167538
  Force two-norm initial, final = 0.16962737 7.7093192e-05
  Force max component initial, final = 0.10389465 1.9488883e-05
  Final line search alpha, max atom move = 1.0000000 1.9488883e-05
  Iterations, force evaluations = 206 412

MPI task timing breakdown:
Section |  min time  |  avg time  |  max time  |%varavg| %total
---------------------------------------------------------------
Pair    | 0.62805    | 1.7282     | 2.2324     |  35.5 | 73.35
Neigh   | 0          | 0          | 0          |   0.0 |  0.00
Comm    | 0.035982   | 0.38506    | 1.172      |  52.9 | 16.34
Output  | 0          | 0          | 0          |   0.0 |  0.00
Modify  | 2.4185e-05 | 0.0033913  | 0.0072621  |   2.8 |  0.14
Other   |            | 0.2393     |            |       | 10.16

Nlocal:        2776.45 ave        3930 max           0 min
Histogram: 8 4 4 0 4 12 8 0 26 38
Nghost:        3879.07 ave        5425 max         232 min
Histogram: 8 0 8 0 16 0 8 8 16 40
Neighs:        79213.3 ave      114442 max           0 min
Histogram: 8 4 4 0 8 8 8 8 20 36

Total # of neighbors = 8238184
Ave neighs/atom = 28.530409
Neighbor list builds = 0
Dangerous builds = 0
The dot product: 1.9131044121417e-08
Setting atom values ...
  1 settings made for x
  1 settings made for y
  1 settings made for z
Setting up cg style minimization ...
  Unit style    : metal
  Current step  : 20856
Per MPI rank memory allocation (min/avg/max) = 5.441 | 5.816 | 6.074 Mbytes
Step PotEng KinEng TotEng v_fx v_fy v_fz 
   20856     -1152449            0     -1152449  0.004716975 0.0082769202 -0.012917214 
   21000     -1152449            0     -1152449 4.6521367e-05 -1.2223995e-06 -3.0443314e-05 
   21113     -1152449            0     -1152449 -4.3298853e-07 -1.333491e-07 4.5269986e-07 
Loop time of 2.94628 on 104 procs for 257 steps with 288751 atoms

99.9% CPU use with 104 MPI tasks x 1 OpenMP threads

Minimization stats:
  Stopping criterion = energy tolerance
  Energy initial, next-to-last, final = 
     -1152448.95218569  -1152448.95352813  -1152448.95352813
  Force two-norm initial, final = 0.16979567 6.7837863e-06
  Force max component initial, final = 0.10327396 1.8881079e-06
  Final line search alpha, max atom move = 1.0000000 1.8881079e-06
  Iterations, force evaluations = 257 514

MPI task timing breakdown:
Section |  min time  |  avg time  |  max time  |%varavg| %total
---------------------------------------------------------------
Pair    | 0.78933    | 2.1573     | 2.7868     |  39.5 | 73.22
Neigh   | 0          | 0          | 0          |   0.0 |  0.00
Comm    | 0.047878   | 0.48344    | 1.4533     |  58.5 | 16.41
Output  | 9.8376e-05 | 0.00010733 | 0.00029963 |   0.0 |  0.00
Modify  | 2.9341e-05 | 0.0042255  | 0.009155   |   3.1 |  0.14
Other   |            | 0.3012     |            |       | 10.22

Nlocal:        2776.45 ave        3930 max           0 min
Histogram: 8 4 4 0 4 12 8 0 26 38
Nghost:        3879.07 ave        5425 max         232 min
Histogram: 8 0 8 0 16 0 8 8 16 40
Neighs:        79213.3 ave      114442 max           0 min
Histogram: 8 4 4 0 8 8 8 8 20 36

Total # of neighbors = 8238185
Ave neighs/atom = 28.530412
Neighbor list builds = 0
Dangerous builds = 0
The dot product: -2.5575988977661e-10
Setting atom values ...
  1 settings made for x
  1 settings made for y
  1 settings made for z
Setting up cg style minimization ...
  Unit style    : metal
  Current step  : 21113
Per MPI rank memory allocation (min/avg/max) = 5.441 | 5.816 | 6.074 Mbytes
Step PotEng KinEng TotEng v_fx v_fy v_fz 
   21113     -1152449            0     -1152449 0.0063421403  0.006999052 -0.012544045 
   21297     -1152449            0     -1152449 -1.7345035e-05 5.7592975e-06 5.1380101e-06 
Loop time of 2.10845 on 104 procs for 184 steps with 288751 atoms

99.9% CPU use with 104 MPI tasks x 1 OpenMP threads

Minimization stats:
  Stopping criterion = energy tolerance
  Energy initial, next-to-last, final = 
     -1152448.98240305  -1152448.98374327  -1152448.98374327
  Force two-norm initial, final = 0.16907315 0.00013603646
  Force max component initial, final = 0.1023815 1.7345035e-05
  Final line search alpha, max atom move = 1.0000000 1.7345035e-05
  Iterations, force evaluations = 184 368

MPI task timing breakdown:
Section |  min time  |  avg time  |  max time  |%varavg| %total
---------------------------------------------------------------
Pair    | 0.55946    | 1.5427     | 1.9987     |  33.5 | 73.17
Neigh   | 0          | 0          | 0          |   0.0 |  0.00
Comm    | 0.031912   | 0.34299    | 1.0452     |  50.0 | 16.27
Output  | 0          | 0          | 0          |   0.0 |  0.00
Modify  | 2.0732e-05 | 0.0030376  | 0.0065348  |   2.6 |  0.14
Other   |            | 0.2197     |            |       | 10.42

Nlocal:        2776.45 ave        3930 max           0 min
Histogram: 8 4 4 0 4 12 8 0 26 38
Nghost:        3879.03 ave        5425 max         232 min
Histogram: 8 0 8 0 16 0 8 8 16 40
Neighs:        79213.3 ave      114441 max           0 min
Histogram: 8 4 4 0 8 8 8 8 20 36

Total # of neighbors = 8238187
Ave neighs/atom = 28.530419
Neighbor list builds = 0
Dangerous builds = 0
The dot product: 4.08332402835332e-09
Setting atom values ...
  1 settings made for x
  1 settings made for y
  1 settings made for z
Setting up cg style minimization ...
  Unit style    : metal
  Current step  : 21297
Per MPI rank memory allocation (min/avg/max) = 5.441 | 5.816 | 6.074 Mbytes
Step PotEng KinEng TotEng v_fx v_fy v_fz 
   21297     -1152449            0     -1152449 0.0074652539 0.0078688207 -0.014337783 
   21581     -1152449            0     -1152449 -4.7681093e-07 5.894445e-08 2.5763837e-07 
Loop time of 3.2523 on 104 procs for 284 steps with 288751 atoms

99.9% CPU use with 104 MPI tasks x 1 OpenMP threads

Minimization stats:
  Stopping criterion = energy tolerance
  Energy initial, next-to-last, final = 
     -1152449.01098701  -1152449.01232725  -1152449.01232725
  Force two-norm initial, final = 0.16866216 2.3209619e-06
  Force max component initial, final = 0.10146928 5.4030300e-07
  Final line search alpha, max atom move = 1.0000000 5.4030300e-07
  Iterations, force evaluations = 284 568

MPI task timing breakdown:
Section |  min time  |  avg time  |  max time  |%varavg| %total
---------------------------------------------------------------
Pair    | 0.86469    | 2.3833     | 3.0773     |  41.7 | 73.28
Neigh   | 0          | 0          | 0          |   0.0 |  0.00
Comm    | 0.049229   | 0.53883    | 1.6516     |  61.9 | 16.57
Output  | 0          | 0          | 0          |   0.0 |  0.00
Modify  | 3.1791e-05 | 0.0046741  | 0.010025   |   3.2 |  0.14
Other   |            | 0.3255     |            |       | 10.01

Nlocal:        2776.45 ave        3930 max           0 min
Histogram: 8 4 4 0 4 12 8 0 26 38
Nghost:        3879.03 ave        5425 max         232 min
Histogram: 8 0 8 0 16 0 8 8 16 40
Neighs:        79213.4 ave      114440 max           0 min
Histogram: 8 4 4 0 8 8 8 8 20 36

Total # of neighbors = 8238189
Ave neighs/atom = 28.530426
Neighbor list builds = 0
Dangerous builds = 0
The dot product: -7.49705934389088e-11
Setting up cg style minimization ...
  Unit style    : metal
  Current step  : 21581
Per MPI rank memory allocation (min/avg/max) = 5.441 | 5.816 | 6.074 Mbytes
Step PotEng KinEng TotEng v_fx v_fy v_fz 
   21581     -1152449            0     -1152449   0.56428882   0.96517016   0.82351068 
   21855   -1152449.3            0   -1152449.3 -1.600679e-05 6.4928942e-07 1.2250028e-05 
Loop time of 3.16127 on 104 procs for 274 steps with 288751 atoms

99.9% CPU use with 104 MPI tasks x 1 OpenMP threads

Minimization stats:
  Stopping criterion = energy tolerance
  Energy initial, next-to-last, final = 
     -1152449.01232725  -1152449.26566399  -1152449.26566399
  Force two-norm initial, final = 1.3885767 6.9971220e-05
  Force max component initial, final = 0.96517016 1.6006790e-05
  Final line search alpha, max atom move = 1.0000000 1.6006790e-05
  Iterations, force evaluations = 274 548

MPI task timing breakdown:
Section |  min time  |  avg time  |  max time  |%varavg| %total
---------------------------------------------------------------
Pair    | 0.83619    | 2.2977     | 2.9614     |  40.8 | 72.68
Neigh   | 1.0249e-05 | 0.0029609  | 0.0042893  |   2.2 |  0.09
Comm    | 0.049611   | 0.51506    | 1.5581     |  60.5 | 16.29
Output  | 0          | 0          | 0          |   0.0 |  0.00
Modify  | 2.8361e-05 | 0.0029329  | 0.0075065  |   3.4 |  0.09
Other   |            | 0.3426     |            |       | 10.84

Nlocal:        2776.45 ave        3930 max           0 min
Histogram: 8 4 4 0 4 12 8 0 26 38
Nghost:        3878.97 ave        5425 max         232 min
Histogram: 8 0 8 0 16 0 8 8 16 40
Neighs:        79213.4 ave      114448 max           0 min
Histogram: 8 4 4 0 8 8 8 8 20 36

Total # of neighbors = 8238191
Ave neighs/atom = 28.530433
Neighbor list builds = 1
Dangerous builds = 0
