LAMMPS (29 Oct 2020)
OMP_NUM_THREADS environment is not set. Defaulting to 1 thread. (../comm.cpp:94)
  using 1 OpenMP thread(s) per MPI task
OMP_NUM_THREADS environment is not set. Defaulting to 1 thread. (../comm.cpp:94)
  using 1 OpenMP thread(s) per MPI task
Reading data file ...
  orthogonal box = (-122.39241 -121.13707 -37.090501) to (122.39241 121.13707 37.090501)
  13 by 4 by 1 MPI processor grid
  reading atoms ...
  288751 atoms
  read_data CPU = 0.425 seconds
199981 atoms in group inner
88770 atoms in group outer
1 atoms in group carbon
Neighbor list info ...
  update every 1 steps, delay 0 steps, check yes
  max neighbors/atom: 2000, page size: 100000
  master list distance cutoff = 5.6
  ghost atom cutoff = 5.6
  binsize = 2.8, bins = 88 87 27
  1 neighbor lists, perpetual/occasional/extra = 1 0 0
  (1) pair eam/alloy, perpetual
      attributes: half, newton on
      pair build: half/bin/atomonly/newton
      stencil: half/bin/3d/newton
      bin: standard
Setting up cg style minimization ...
  Unit style    : metal
  Current step  : 0
Per MPI rank memory allocation (min/avg/max) = 5.465 | 6.344 | 6.728 Mbytes
Step v_fx v_fy v_fz PotEng KinEng TotEng 
       0  -0.20988015    1.7917731    -2.430429   -1152447.8            0   -1152447.8 
     158 2.020442e-05 -3.4292661e-05 3.2990658e-05   -1152449.5            0   -1152449.5 
Loop time of 3.47878 on 52 procs for 158 steps with 288751 atoms

99.9% CPU use with 52 MPI tasks x 1 OpenMP threads

Minimization stats:
  Stopping criterion = energy tolerance
  Energy initial, next-to-last, final = 
       -1152447.793469  -1152449.45035258  -1152449.45035258
  Force two-norm initial, final = 10.060523 0.00015844145
  Force max component initial, final = 6.1264518 3.9810672e-05
  Final line search alpha, max atom move = 1.0000000 3.9810672e-05
  Iterations, force evaluations = 158 315

MPI task timing breakdown:
Section |  min time  |  avg time  |  max time  |%varavg| %total
---------------------------------------------------------------
Pair    | 0.92855    | 2.5254     | 3.3082     |  43.3 | 72.59
Neigh   | 7.9088e-05 | 0.018683   | 0.029194   |   5.8 |  0.54
Comm    | 0.047021   | 0.55943    | 1.7699     |  66.9 | 16.08
Output  | 0          | 0          | 0          |   0.0 |  0.00
Modify  | 5.0553e-05 | 0.0034714  | 0.0088075  |   3.6 |  0.10
Other   |            | 0.3718     |            |       | 10.69

Nlocal:        5552.90 ave        7912 max           0 min
Histogram: 4 2 2 0 2 6 4 0 15 17
Nghost:        6213.54 ave        8769 max         412 min
Histogram: 4 0 4 0 8 0 4 5 7 20
Neighs:       158427.0 ave      230647 max           0 min
Histogram: 4 2 2 0 5 3 4 4 12 16

Total # of neighbors = 8238204
Ave neighs/atom = 28.530478
Neighbor list builds = 3
Dangerous builds = 0
Setting atom values ...
  1 settings made for x
  1 settings made for y
  1 settings made for z
Setting up cg style minimization ...
  Unit style    : metal
  Current step  : 158
Per MPI rank memory allocation (min/avg/max) = 5.465 | 6.344 | 6.728 Mbytes
Step PotEng KinEng TotEng v_fx v_fy v_fz 
     158   -1152449.4            0   -1152449.4  0.015502095 0.0058501512 -0.019390505 
     307   -1152449.5            0   -1152449.5 -2.5074874e-05 1.6889022e-05 5.3907106e-05 
Loop time of 3.25581 on 52 procs for 149 steps with 288751 atoms

99.9% CPU use with 52 MPI tasks x 1 OpenMP threads

Minimization stats:
  Stopping criterion = energy tolerance
  Energy initial, next-to-last, final = 
     -1152449.44949236  -1152449.45006457  -1152449.45006457
  Force two-norm initial, final = 0.11243555 0.00022750355
  Force max component initial, final = 0.050031726 6.3078536e-05
  Final line search alpha, max atom move = 1.0000000 6.3078536e-05
  Iterations, force evaluations = 149 298

MPI task timing breakdown:
Section |  min time  |  avg time  |  max time  |%varavg| %total
---------------------------------------------------------------
Pair    | 0.84245    | 2.3768     | 3.1221     |  42.9 | 73.00
Neigh   | 0          | 0          | 0          |   0.0 |  0.00
Comm    | 0.043433   | 0.526      | 1.6813     |  65.3 | 16.16
Output  | 0          | 0          | 0          |   0.0 |  0.00
Modify  | 5.7592e-05 | 0.0049851  | 0.01065    |   3.3 |  0.15
Other   |            | 0.348      |            |       | 10.69

Nlocal:        5552.90 ave        7910 max           0 min
Histogram: 4 2 2 0 2 6 4 0 15 17
Nghost:        6213.54 ave        8769 max         412 min
Histogram: 4 0 4 0 8 0 4 5 7 20
Neighs:       158427.0 ave      230584 max           0 min
Histogram: 4 2 2 0 5 3 4 4 12 16

Total # of neighbors = 8238197
Ave neighs/atom = 28.530454
Neighbor list builds = 0
Dangerous builds = 0
Setting atom values ...
  1 settings made for x
  1 settings made for y
  1 settings made for z
Setting up cg style minimization ...
  Unit style    : metal
  Current step  : 307
Per MPI rank memory allocation (min/avg/max) = 5.465 | 6.344 | 6.728 Mbytes
Step PotEng KinEng TotEng v_fx v_fy v_fz 
     307   -1152449.4            0   -1152449.4  0.027241993 0.0091606535 -0.042696641 
     492   -1152449.4            0   -1152449.4 -9.3130031e-06 1.4228055e-06 2.0056328e-05 
Loop time of 4.0597 on 52 procs for 185 steps with 288751 atoms

99.9% CPU use with 52 MPI tasks x 1 OpenMP threads

Minimization stats:
  Stopping criterion = energy tolerance
  Energy initial, next-to-last, final = 
     -1152449.44631965  -1152449.44815048  -1152449.44815048
  Force two-norm initial, final = 0.2034218 0.000101192
  Force max component initial, final = 0.090312738 2.0567088e-05
  Final line search alpha, max atom move = 1.0000000 2.0567088e-05
  Iterations, force evaluations = 185 372

MPI task timing breakdown:
Section |  min time  |  avg time  |  max time  |%varavg| %total
---------------------------------------------------------------
Pair    | 1.0552     | 2.9607     | 3.8954     |  47.8 | 72.93
Neigh   | 0          | 0          | 0          |   0.0 |  0.00
Comm    | 0.053902   | 0.65188    | 2.0812     |  73.2 | 16.06
Output  | 0          | 0          | 0          |   0.0 |  0.00
Modify  | 6.8535e-05 | 0.0062255  | 0.013311   |   3.7 |  0.15
Other   |            | 0.4409     |            |       | 10.86

Nlocal:        5552.90 ave        7909 max           0 min
Histogram: 4 2 2 0 2 6 4 0 15 17
Nghost:        6213.54 ave        8769 max         412 min
Histogram: 4 0 4 0 8 0 4 5 7 20
Neighs:       158427.0 ave      230547 max           0 min
Histogram: 4 2 2 0 5 3 4 4 12 16

Total # of neighbors = 8238197
Ave neighs/atom = 28.530454
Neighbor list builds = 0
Dangerous builds = 0
The dot product: -6.85435863122506e-08
Setting atom values ...
  1 settings made for x
  1 settings made for y
  1 settings made for z
Setting up cg style minimization ...
  Unit style    : metal
  Current step  : 492
Per MPI rank memory allocation (min/avg/max) = 5.465 | 6.344 | 6.728 Mbytes
Step PotEng KinEng TotEng v_fx v_fy v_fz 
     492   -1152449.4            0   -1152449.4  0.027238798  0.011921375 -0.052075751 
     606   -1152449.4            0   -1152449.4 9.1848893e-06 -1.3736365e-06 -2.6960064e-05 
Loop time of 2.49766 on 52 procs for 114 steps with 288751 atoms

99.9% CPU use with 52 MPI tasks x 1 OpenMP threads

Minimization stats:
  Stopping criterion = energy tolerance
  Energy initial, next-to-last, final = 
     -1152449.44288724  -1152449.44469132  -1152449.44469132
  Force two-norm initial, final = 0.20372688 0.00018324584
  Force max component initial, final = 0.08925784 2.8599722e-05
  Final line search alpha, max atom move = 1.0000000 2.8599722e-05
  Iterations, force evaluations = 114 228

MPI task timing breakdown:
Section |  min time  |  avg time  |  max time  |%varavg| %total
---------------------------------------------------------------
Pair    | 0.64835    | 1.8271     | 2.392      |  37.6 | 73.15
Neigh   | 0          | 0          | 0          |   0.0 |  0.00
Comm    | 0.033448   | 0.40245    | 1.2809     |  57.3 | 16.11
Output  | 0          | 0          | 0          |   0.0 |  0.00
Modify  | 6.0426e-05 | 0.0038339  | 0.0081256  |   2.9 |  0.15
Other   |            | 0.2643     |            |       | 10.58

Nlocal:        5552.90 ave        7909 max           0 min
Histogram: 4 2 2 0 2 6 4 0 15 17
Nghost:        6213.54 ave        8769 max         412 min
Histogram: 4 0 4 0 8 0 4 5 7 20
Neighs:       158427.0 ave      230551 max           0 min
Histogram: 4 2 2 0 5 3 4 4 12 16

Total # of neighbors = 8238196
Ave neighs/atom = 28.530450
Neighbor list builds = 0
Dangerous builds = 0
The dot product: 1.56921646700147e-07
Setting atom values ...
  1 settings made for x
  1 settings made for y
  1 settings made for z
Setting up cg style minimization ...
  Unit style    : metal
  Current step  : 606
Per MPI rank memory allocation (min/avg/max) = 5.465 | 6.344 | 6.728 Mbytes
Step PotEng KinEng TotEng v_fx v_fy v_fz 
     606   -1152449.4            0   -1152449.4  0.026300483  0.020473165  -0.05471773 
     717   -1152449.4            0   -1152449.4 -3.9706023e-06 -4.7566826e-06 3.6664895e-06 
Loop time of 2.41084 on 52 procs for 111 steps with 288751 atoms

99.9% CPU use with 52 MPI tasks x 1 OpenMP threads

Minimization stats:
  Stopping criterion = energy tolerance
  Energy initial, next-to-last, final = 
     -1152449.43813306  -1152449.43991476  -1152449.43991476
  Force two-norm initial, final = 0.20167444 0.00018713246
  Force max component initial, final = 0.085609804 2.1164329e-05
  Final line search alpha, max atom move = 1.0000000 2.1164329e-05
  Iterations, force evaluations = 111 222

MPI task timing breakdown:
Section |  min time  |  avg time  |  max time  |%varavg| %total
---------------------------------------------------------------
Pair    | 0.62814    | 1.7665     | 2.3171     |  36.9 | 73.27
Neigh   | 0          | 0          | 0          |   0.0 |  0.00
Comm    | 0.030484   | 0.38666    | 1.2311     |  56.8 | 16.04
Output  | 0          | 0          | 0          |   0.0 |  0.00
Modify  | 3.8407e-05 | 0.0037204  | 0.0079018  |   2.8 |  0.15
Other   |            | 0.254      |            |       | 10.53

Nlocal:        5552.90 ave        7908 max           0 min
Histogram: 4 2 2 0 2 6 4 0 15 17
Nghost:        6213.54 ave        8769 max         412 min
Histogram: 4 0 4 0 8 0 4 5 7 20
Neighs:       158427.0 ave      230514 max           0 min
Histogram: 4 2 2 0 5 3 4 4 12 16

Total # of neighbors = 8238201
Ave neighs/atom = 28.530467
Neighbor list builds = 0
Dangerous builds = 0
The dot product: -3.2424473231261e-08
Setting atom values ...
  1 settings made for x
  1 settings made for y
  1 settings made for z
Setting up cg style minimization ...
  Unit style    : metal
  Current step  : 717
Per MPI rank memory allocation (min/avg/max) = 5.465 | 6.344 | 6.728 Mbytes
Step PotEng KinEng TotEng v_fx v_fy v_fz 
     717   -1152449.4            0   -1152449.4  0.023498129  0.027397556 -0.050989291 
     839   -1152449.4            0   -1152449.4 1.1451045e-06 3.9020838e-06 1.0458988e-05 
Loop time of 2.66019 on 52 procs for 122 steps with 288751 atoms

99.9% CPU use with 52 MPI tasks x 1 OpenMP threads

Minimization stats:
  Stopping criterion = energy tolerance
  Energy initial, next-to-last, final = 
      -1152449.4320686  -1152449.43380323  -1152449.43380323
  Force two-norm initial, final = 0.19747141 0.00027741081
  Force max component initial, final = 0.080735719 6.3263476e-05
  Final line search alpha, max atom move = 1.0000000 6.3263476e-05
  Iterations, force evaluations = 122 244

MPI task timing breakdown:
Section |  min time  |  avg time  |  max time  |%varavg| %total
---------------------------------------------------------------
Pair    | 0.68992    | 1.9465     | 2.5573     |  38.8 | 73.17
Neigh   | 0          | 0          | 0          |   0.0 |  0.00
Comm    | 0.032902   | 0.42984    | 1.3776     |  59.3 | 16.16
Output  | 0          | 0          | 0          |   0.0 |  0.00
Modify  | 4.3034e-05 | 0.0040788  | 0.0087599  |   3.0 |  0.15
Other   |            | 0.2798     |            |       | 10.52

Nlocal:        5552.90 ave        7907 max           0 min
Histogram: 4 2 2 0 2 6 4 0 15 17
Nghost:        6213.54 ave        8769 max         412 min
Histogram: 4 0 4 0 8 0 4 5 7 20
Neighs:       158427.0 ave      230476 max           0 min
Histogram: 4 2 2 0 5 3 4 4 12 16

Total # of neighbors = 8238198
Ave neighs/atom = 28.530457
Neighbor list builds = 0
Dangerous builds = 0
The dot product: -5.93019948386005e-08
Setting atom values ...
  1 settings made for x
  1 settings made for y
  1 settings made for z
Setting up cg style minimization ...
  Unit style    : metal
  Current step  : 839
Per MPI rank memory allocation (min/avg/max) = 5.465 | 6.344 | 6.728 Mbytes
Step PotEng KinEng TotEng v_fx v_fy v_fz 
     839   -1152449.4            0   -1152449.4  0.019971861  0.030489617 -0.044316146 
    1000   -1152449.4            0   -1152449.4 -2.8250713e-06 -4.3899258e-06 5.1489012e-06 
    1021   -1152449.4            0   -1152449.4 -2.4748422e-06 -2.2451817e-06 2.7757843e-05 
Loop time of 3.97979 on 52 procs for 182 steps with 288751 atoms

99.9% CPU use with 52 MPI tasks x 1 OpenMP threads

Minimization stats:
  Stopping criterion = linesearch alpha is zero
  Energy initial, next-to-last, final = 
       -1152449.424635  -1152449.42631411  -1152449.42631411
  Force two-norm initial, final = 0.19273598 0.00012160274
  Force max component initial, final = 0.075815755 3.0665978e-05
  Final line search alpha, max atom move = 0.5 1.5332989e-05
  Iterations, force evaluations = 182 365

MPI task timing breakdown:
Section |  min time  |  avg time  |  max time  |%varavg| %total
---------------------------------------------------------------
Pair    | 1.0318     | 2.8992     | 3.8109     |  47.3 | 72.85
Neigh   | 0          | 0          | 0          |   0.0 |  0.00
Comm    | 0.050233   | 0.63633    | 2.0102     |  72.6 | 15.99
Output  | 0.00020736 | 0.00021154 | 0.00035703 |   0.0 |  0.01
Modify  | 5.6273e-05 | 0.0060941  | 0.012952   |   3.6 |  0.15
Other   |            | 0.438      |            |       | 11.00

Nlocal:        5552.90 ave        7905 max           0 min
Histogram: 4 2 2 0 2 6 4 0 15 17
Nghost:        6213.54 ave        8769 max         412 min
Histogram: 4 0 4 0 8 0 4 5 7 20
Neighs:       158427.0 ave      230404 max           0 min
Histogram: 4 2 2 0 5 3 4 4 12 16

Total # of neighbors = 8238199
Ave neighs/atom = 28.530461
Neighbor list builds = 0
Dangerous builds = 0
The dot product: -1.71400542289091e-07
Setting atom values ...
  1 settings made for x
  1 settings made for y
  1 settings made for z
Setting up cg style minimization ...
  Unit style    : metal
  Current step  : 1021
Per MPI rank memory allocation (min/avg/max) = 5.465 | 6.344 | 6.728 Mbytes
Step PotEng KinEng TotEng v_fx v_fy v_fz 
    1021   -1152449.4            0   -1152449.4  0.016447814  0.030174606 -0.037423409 
    1195   -1152449.4            0   -1152449.4 8.8267219e-07 2.5606751e-06 -2.8492753e-05 
Loop time of 3.85103 on 52 procs for 174 steps with 288751 atoms

99.8% CPU use with 52 MPI tasks x 1 OpenMP threads

Minimization stats:
  Stopping criterion = energy tolerance
  Energy initial, next-to-last, final = 
     -1152449.41578069  -1152449.41740837  -1152449.41740837
  Force two-norm initial, final = 0.18843839 0.00016763209
  Force max component initial, final = 0.071671818 2.8492753e-05
  Final line search alpha, max atom move = 1.0000000 2.8492753e-05
  Iterations, force evaluations = 174 350

MPI task timing breakdown:
Section |  min time  |  avg time  |  max time  |%varavg| %total
---------------------------------------------------------------
Pair    | 0.98905    | 2.7937     | 3.6707     |  46.5 | 72.54
Neigh   | 0          | 0          | 0          |   0.0 |  0.00
Comm    | 0.050423   | 0.62338    | 1.9768     |  70.2 | 16.19
Output  | 0          | 0          | 0          |   0.0 |  0.00
Modify  | 5.4296e-05 | 0.005855   | 0.012399   |   3.6 |  0.15
Other   |            | 0.4281     |            |       | 11.12

Nlocal:        5552.90 ave        7905 max           0 min
Histogram: 4 2 2 0 2 6 4 0 15 17
Nghost:        6213.54 ave        8769 max         412 min
Histogram: 4 0 4 0 8 0 4 5 7 20
Neighs:       158427.0 ave      230383 max           0 min
Histogram: 4 2 2 0 5 3 4 4 12 16

Total # of neighbors = 8238200
Ave neighs/atom = 28.530464
Neighbor list builds = 0
Dangerous builds = 0
The dot product: 1.54901352361529e-07
Setting atom values ...
  1 settings made for x
  1 settings made for y
  1 settings made for z
Setting up cg style minimization ...
  Unit style    : metal
  Current step  : 1195
Per MPI rank memory allocation (min/avg/max) = 5.465 | 6.344 | 6.728 Mbytes
Step PotEng KinEng TotEng v_fx v_fy v_fz 
    1195   -1152449.4            0   -1152449.4  0.012865869  0.026898747 -0.031338212 
    1392   -1152449.4            0   -1152449.4 -6.7026538e-07 -2.5279893e-06 1.1116728e-05 
Loop time of 4.28354 on 52 procs for 197 steps with 288751 atoms

99.9% CPU use with 52 MPI tasks x 1 OpenMP threads

Minimization stats:
  Stopping criterion = energy tolerance
  Energy initial, next-to-last, final = 
     -1152449.40547256  -1152449.40706758  -1152449.40706758
  Force two-norm initial, final = 0.18475755 7.1988858e-05
  Force max component initial, final = 0.068342108 1.1116728e-05
  Final line search alpha, max atom move = 1.0000000 1.1116728e-05
  Iterations, force evaluations = 197 394

MPI task timing breakdown:
Section |  min time  |  avg time  |  max time  |%varavg| %total
---------------------------------------------------------------
Pair    | 1.1168     | 3.1362     | 4.115      |  49.1 | 73.21
Neigh   | 0          | 0          | 0          |   0.0 |  0.00
Comm    | 0.054972   | 0.68771    | 2.2019     |  75.6 | 16.05
Output  | 0          | 0          | 0          |   0.0 |  0.00
Modify  | 6.6084e-05 | 0.0065855  | 0.014097   |   3.8 |  0.15
Other   |            | 0.4531     |            |       | 10.58

Nlocal:        5552.90 ave        7903 max           0 min
Histogram: 4 2 2 0 2 6 4 0 15 17
Nghost:        6213.54 ave        8769 max         412 min
Histogram: 4 0 4 0 8 0 4 5 7 20
Neighs:       158427.0 ave      230321 max           0 min
Histogram: 4 2 2 0 5 3 4 4 12 16

Total # of neighbors = 8238204
Ave neighs/atom = 28.530478
Neighbor list builds = 0
Dangerous builds = 0
The dot product: -5.44381016108842e-08
Setting atom values ...
  1 settings made for x
  1 settings made for y
  1 settings made for z
Setting up cg style minimization ...
  Unit style    : metal
  Current step  : 1392
Per MPI rank memory allocation (min/avg/max) = 5.465 | 6.344 | 6.728 Mbytes
Step PotEng KinEng TotEng v_fx v_fy v_fz 
    1392   -1152449.4            0   -1152449.4 0.0085254628  0.020369006   -0.0269826 
    1520   -1152449.4            0   -1152449.4 3.1677568e-06 -9.3504905e-07 3.589843e-05 
Loop time of 2.84668 on 52 procs for 128 steps with 288751 atoms

99.9% CPU use with 52 MPI tasks x 1 OpenMP threads

Minimization stats:
  Stopping criterion = linesearch alpha is zero
  Energy initial, next-to-last, final = 
     -1152449.39371602  -1152449.39531293  -1152449.39531293
  Force two-norm initial, final = 0.18183757 0.00030093329
  Force max component initial, final = 0.070912954 3.5898430e-05
  Final line search alpha, max atom move = 0.125 4.4873037e-06
  Iterations, force evaluations = 128 261

MPI task timing breakdown:
Section |  min time  |  avg time  |  max time  |%varavg| %total
---------------------------------------------------------------
Pair    | 0.73838    | 2.0862     | 2.7371     |  40.3 | 73.29
Neigh   | 0          | 0          | 0          |   0.0 |  0.00
Comm    | 0.036942   | 0.45997    | 1.4611     |  61.3 | 16.16
Output  | 0          | 0          | 0          |   0.0 |  0.00
Modify  | 4.4428e-05 | 0.0043591  | 0.0093363  |   3.1 |  0.15
Other   |            | 0.2961     |            |       | 10.40

Nlocal:        5552.90 ave        7902 max           0 min
Histogram: 4 2 2 0 2 6 4 0 15 17
Nghost:        6213.54 ave        8769 max         412 min
Histogram: 4 0 4 0 8 0 4 5 7 20
Neighs:       158427.0 ave      230281 max           0 min
Histogram: 4 2 2 0 5 3 4 4 12 16

Total # of neighbors = 8238203
Ave neighs/atom = 28.530474
Neighbor list builds = 0
Dangerous builds = 0
The dot product: -1.74745089645282e-07
Setting atom values ...
  1 settings made for x
  1 settings made for y
  1 settings made for z
Setting up cg style minimization ...
  Unit style    : metal
  Current step  : 1520
Per MPI rank memory allocation (min/avg/max) = 5.465 | 6.344 | 6.728 Mbytes
Step PotEng KinEng TotEng v_fx v_fy v_fz 
    1520   -1152449.4            0   -1152449.4 0.0033973993   0.01177619 -0.024607258 
    1688   -1152449.4            0   -1152449.4 -3.7647361e-06 6.5481345e-06 -5.5292775e-05 
Loop time of 3.65094 on 52 procs for 168 steps with 288751 atoms

99.9% CPU use with 52 MPI tasks x 1 OpenMP threads

Minimization stats:
  Stopping criterion = energy tolerance
  Energy initial, next-to-last, final = 
     -1152449.38055415  -1152449.38220451  -1152449.38220451
  Force two-norm initial, final = 0.17998779 0.00023747238
  Force max component initial, final = 0.074582794 6.5145675e-05
  Final line search alpha, max atom move = 1.0000000 6.5145675e-05
  Iterations, force evaluations = 168 336

MPI task timing breakdown:
Section |  min time  |  avg time  |  max time  |%varavg| %total
---------------------------------------------------------------
Pair    | 0.95035    | 2.6765     | 3.5083     |  45.4 | 73.31
Neigh   | 0          | 0          | 0          |   0.0 |  0.00
Comm    | 0.045852   | 0.58549    | 1.8935     |  70.1 | 16.04
Output  | 0          | 0          | 0          |   0.0 |  0.00
Modify  | 5.8042e-05 | 0.00561    | 0.011931   |   3.5 |  0.15
Other   |            | 0.3833     |            |       | 10.50

Nlocal:        5552.90 ave        7898 max           0 min
Histogram: 4 2 2 0 2 6 4 0 14 18
Nghost:        6213.54 ave        8769 max         412 min
Histogram: 4 0 4 0 8 0 4 5 7 20
Neighs:       158427.0 ave      230125 max           0 min
Histogram: 4 2 2 0 5 3 4 4 12 16

Total # of neighbors = 8238203
Ave neighs/atom = 28.530474
Neighbor list builds = 0
Dangerous builds = 0
The dot product: 2.91717911840023e-07
Setting atom values ...
  1 settings made for x
  1 settings made for y
  1 settings made for z
Setting up cg style minimization ...
  Unit style    : metal
  Current step  : 1688
Per MPI rank memory allocation (min/avg/max) = 5.465 | 6.344 | 6.728 Mbytes
Step PotEng KinEng TotEng v_fx v_fy v_fz 
    1688   -1152449.4            0   -1152449.4 -0.0036382383  0.001358382 -0.025865258 
    1895   -1152449.4            0   -1152449.4 4.2424287e-07 3.0601448e-06 -8.3444459e-06 
Loop time of 4.51635 on 52 procs for 207 steps with 288751 atoms

99.9% CPU use with 52 MPI tasks x 1 OpenMP threads

Minimization stats:
  Stopping criterion = energy tolerance
  Energy initial, next-to-last, final = 
      -1152449.3660874  -1152449.36800443  -1152449.36800443
  Force two-norm initial, final = 0.17956806 7.2929556e-05
  Force max component initial, final = 0.078985852 1.4467918e-05
  Final line search alpha, max atom move = 1.0000000 1.4467918e-05
  Iterations, force evaluations = 207 414

MPI task timing breakdown:
Section |  min time  |  avg time  |  max time  |%varavg| %total
---------------------------------------------------------------
Pair    | 1.177      | 3.3032     | 4.3324     |  50.4 | 73.14
Neigh   | 0          | 0          | 0          |   0.0 |  0.00
Comm    | 0.059384   | 0.72946    | 2.3376     |  76.9 | 16.15
Output  | 0          | 0          | 0          |   0.0 |  0.00
Modify  | 9.9318e-05 | 0.0069708  | 0.014695   |   3.9 |  0.15
Other   |            | 0.4767     |            |       | 10.56

Nlocal:        5552.90 ave        7895 max           0 min
Histogram: 4 2 2 0 2 6 4 0 14 18
Nghost:        6213.54 ave        8769 max         412 min
Histogram: 4 0 4 0 8 0 4 5 7 20
Neighs:       158427.0 ave      230041 max           0 min
Histogram: 4 2 2 0 5 3 4 4 12 16

Total # of neighbors = 8238202
Ave neighs/atom = 28.530471
Neighbor list builds = 0
Dangerous builds = 0
The dot product: 5.27965591258769e-08
Setting atom values ...
  1 settings made for x
  1 settings made for y
  1 settings made for z
Setting up cg style minimization ...
  Unit style    : metal
  Current step  : 1895
Per MPI rank memory allocation (min/avg/max) = 5.465 | 6.344 | 6.728 Mbytes
Step PotEng KinEng TotEng v_fx v_fy v_fz 
    1895   -1152449.4            0   -1152449.4 -0.017397387 -0.013011021 -0.036790137 
    2000   -1152449.4            0   -1152449.4 2.1347999e-05 -3.5155177e-05 0.00019309811 
    2062   -1152449.4            0   -1152449.4 9.3070045e-06 -1.6836297e-05 8.8553984e-05 
Loop time of 3.62842 on 52 procs for 167 steps with 288751 atoms

99.9% CPU use with 52 MPI tasks x 1 OpenMP threads

Minimization stats:
  Stopping criterion = energy tolerance
  Energy initial, next-to-last, final = 
     -1152449.35079908   -1152449.3529845   -1152449.3529845
  Force two-norm initial, final = 0.18210687 0.00030161719
  Force max component initial, final = 0.085081234 8.8553984e-05
  Final line search alpha, max atom move = 1.0000000 8.8553984e-05
  Iterations, force evaluations = 167 334

MPI task timing breakdown:
Section |  min time  |  avg time  |  max time  |%varavg| %total
---------------------------------------------------------------
Pair    | 0.94399    | 2.655      | 3.4781     |  45.2 | 73.17
Neigh   | 0          | 0          | 0          |   0.0 |  0.00
Comm    | 0.048539   | 0.58234    | 1.8494     |  69.6 | 16.05
Output  | 0.00011853 | 0.00012304 | 0.00029199 |   0.0 |  0.00
Modify  | 5.9637e-05 | 0.0055763  | 0.011818   |   3.5 |  0.15
Other   |            | 0.3854     |            |       | 10.62

Nlocal:        5552.90 ave        7894 max           0 min
Histogram: 4 2 2 0 2 6 4 0 14 18
Nghost:        6213.58 ave        8769 max         412 min
Histogram: 4 0 4 0 8 0 4 5 7 20
Neighs:       158427.0 ave      230019 max           0 min
Histogram: 4 2 2 0 5 3 4 4 12 16

Total # of neighbors = 8238203
Ave neighs/atom = 28.530474
Neighbor list builds = 0
Dangerous builds = 0
The dot product: -1.00297289053525e-06
Setting atom values ...
  1 settings made for x
  1 settings made for y
  1 settings made for z
Setting up cg style minimization ...
  Unit style    : metal
  Current step  : 2062
Per MPI rank memory allocation (min/avg/max) = 5.465 | 6.344 | 6.728 Mbytes
Step PotEng KinEng TotEng v_fx v_fy v_fz 
    2062   -1152449.3            0   -1152449.3 -0.029477866 -0.021520617  -0.04145162 
    2244   -1152449.3            0   -1152449.3 1.7317678e-06 7.7496901e-07 3.6303033e-06 
Loop time of 3.95454 on 52 procs for 182 steps with 288751 atoms

99.9% CPU use with 52 MPI tasks x 1 OpenMP threads

Minimization stats:
  Stopping criterion = energy tolerance
  Energy initial, next-to-last, final = 
     -1152449.33480166  -1152449.33716326  -1152449.33716326
  Force two-norm initial, final = 0.18486545 0.00021009795
  Force max component initial, final = 0.09234405 3.9740654e-05
  Final line search alpha, max atom move = 1.0000000 3.9740654e-05
  Iterations, force evaluations = 182 364

MPI task timing breakdown:
Section |  min time  |  avg time  |  max time  |%varavg| %total
---------------------------------------------------------------
Pair    | 1.0328     | 2.9035     | 3.8014     |  47.3 | 73.42
Neigh   | 0          | 0          | 0          |   0.0 |  0.00
Comm    | 0.048822   | 0.64159    | 2.0755     |  72.7 | 16.22
Output  | 0          | 0          | 0          |   0.0 |  0.00
Modify  | 6.0471e-05 | 0.0061085  | 0.012994   |   3.7 |  0.15
Other   |            | 0.4033     |            |       | 10.20

Nlocal:        5552.90 ave        7891 max           0 min
Histogram: 4 2 2 0 2 6 4 0 14 18
Nghost:        6213.58 ave        8769 max         412 min
Histogram: 4 0 4 0 8 0 4 5 7 20
Neighs:       158427.0 ave      229968 max           0 min
Histogram: 4 2 2 0 5 3 4 4 12 16

Total # of neighbors = 8238205
Ave neighs/atom = 28.530481
Neighbor list builds = 0
Dangerous builds = 0
The dot product: -7.0043926290063e-08
Setting atom values ...
  1 settings made for x
  1 settings made for y
  1 settings made for z
Setting up cg style minimization ...
  Unit style    : metal
  Current step  : 2244
Per MPI rank memory allocation (min/avg/max) = 5.465 | 6.344 | 6.728 Mbytes
Step PotEng KinEng TotEng v_fx v_fy v_fz 
    2244   -1152449.3            0   -1152449.3 -0.033897594 -0.022465026   -0.0365369 
    2417   -1152449.3            0   -1152449.3 1.4967021e-05 -1.696898e-05 7.4489671e-05 
Loop time of 3.75295 on 52 procs for 173 steps with 288751 atoms

99.9% CPU use with 52 MPI tasks x 1 OpenMP threads

Minimization stats:
  Stopping criterion = energy tolerance
  Energy initial, next-to-last, final = 
      -1152449.3179331  -1152449.32014504  -1152449.32014504
  Force two-norm initial, final = 0.18420141 0.00029395132
  Force max component initial, final = 0.099132294 7.4489671e-05
  Final line search alpha, max atom move = 1.0000000 7.4489671e-05
  Iterations, force evaluations = 173 346

MPI task timing breakdown:
Section |  min time  |  avg time  |  max time  |%varavg| %total
---------------------------------------------------------------
Pair    | 0.97801    | 2.7464     | 3.6078     |  46.0 | 73.18
Neigh   | 0          | 0          | 0          |   0.0 |  0.00
Comm    | 0.046866   | 0.60303    | 1.9153     |  70.6 | 16.07
Output  | 0          | 0          | 0          |   0.0 |  0.00
Modify  | 5.9717e-05 | 0.005778   | 0.012334   |   3.6 |  0.15
Other   |            | 0.3977     |            |       | 10.60

Nlocal:        5552.90 ave        7888 max           0 min
Histogram: 4 2 2 0 2 6 4 0 14 18
Nghost:        6213.69 ave        8769 max         412 min
Histogram: 4 0 4 0 8 0 4 5 7 20
Neighs:       158427.0 ave      229874 max           0 min
Histogram: 4 2 2 0 5 3 4 4 11 17

Total # of neighbors = 8238204
Ave neighs/atom = 28.530478
Neighbor list builds = 0
Dangerous builds = 0
The dot product: -7.89432776226217e-07
Setting atom values ...
  1 settings made for x
  1 settings made for y
  1 settings made for z
Setting up cg style minimization ...
  Unit style    : metal
  Current step  : 2417
Per MPI rank memory allocation (min/avg/max) = 5.465 | 6.344 | 6.728 Mbytes
Step PotEng KinEng TotEng v_fx v_fy v_fz 
    2417   -1152449.3            0   -1152449.3 -0.031659297 -0.019607577 -0.027312447 
    2568   -1152449.3            0   -1152449.3 -6.0866523e-06 2.779234e-05 -6.8692632e-05 
Loop time of 3.28355 on 52 procs for 151 steps with 288751 atoms

99.9% CPU use with 52 MPI tasks x 1 OpenMP threads

Minimization stats:
  Stopping criterion = energy tolerance
  Energy initial, next-to-last, final = 
     -1152449.29973334  -1152449.30180013  -1152449.30180013
  Force two-norm initial, final = 0.18140638 0.00040943825
  Force max component initial, final = 0.10478555 7.1069827e-05
  Final line search alpha, max atom move = 1.0000000 7.1069827e-05
  Iterations, force evaluations = 151 302

MPI task timing breakdown:
Section |  min time  |  avg time  |  max time  |%varavg| %total
---------------------------------------------------------------
Pair    | 0.85451    | 2.4048     | 3.156      |  43.1 | 73.24
Neigh   | 0          | 0          | 0          |   0.0 |  0.00
Comm    | 0.041564   | 0.53171    | 1.6897     |  65.8 | 16.19
Output  | 0          | 0          | 0          |   0.0 |  0.00
Modify  | 5.1122e-05 | 0.0050789  | 0.010676   |   3.3 |  0.15
Other   |            | 0.342      |            |       | 10.41

Nlocal:        5552.90 ave        7885 max           0 min
Histogram: 4 2 2 0 2 6 4 0 14 18
Nghost:        6213.73 ave        8770 max         412 min
Histogram: 4 0 4 0 8 0 4 5 7 20
Neighs:       158427.0 ave      229763 max           0 min
Histogram: 4 2 2 0 5 3 4 4 11 17

Total # of neighbors = 8238208
Ave neighs/atom = 28.530492
Neighbor list builds = 0
Dangerous builds = 0
The dot product: 4.9639677606027e-07
Setting atom values ...
  1 settings made for x
  1 settings made for y
  1 settings made for z
Setting up cg style minimization ...
  Unit style    : metal
  Current step  : 2568
Per MPI rank memory allocation (min/avg/max) = 5.465 | 6.344 | 6.728 Mbytes
Step PotEng KinEng TotEng v_fx v_fy v_fz 
    2568   -1152449.3            0   -1152449.3 -0.027494915 -0.015683399 -0.020698113 
    2784   -1152449.3            0   -1152449.3 3.0936829e-06 -2.0193869e-06 9.5142286e-06 
Loop time of 4.69457 on 52 procs for 216 steps with 288751 atoms

99.9% CPU use with 52 MPI tasks x 1 OpenMP threads

Minimization stats:
  Stopping criterion = energy tolerance
  Energy initial, next-to-last, final = 
     -1152449.28018617  -1152449.28218919  -1152449.28218919
  Force two-norm initial, final = 0.17881714 7.3452794e-05
  Force max component initial, final = 0.10911886 1.8313187e-05
  Final line search alpha, max atom move = 1.0000000 1.8313187e-05
  Iterations, force evaluations = 216 432

MPI task timing breakdown:
Section |  min time  |  avg time  |  max time  |%varavg| %total
---------------------------------------------------------------
Pair    | 1.2227     | 3.4304     | 4.5122     |  51.4 | 73.07
Neigh   | 0          | 0          | 0          |   0.0 |  0.00
Comm    | 0.059364   | 0.75391    | 2.3884     |  78.9 | 16.06
Output  | 0          | 0          | 0          |   0.0 |  0.00
Modify  | 6.7318e-05 | 0.0071934  | 0.01528    |   4.0 |  0.15
Other   |            | 0.5031     |            |       | 10.72

Nlocal:        5552.90 ave        7881 max           0 min
Histogram: 4 2 2 0 2 6 4 0 14 18
Nghost:        6213.69 ave        8770 max         412 min
Histogram: 4 0 4 0 8 0 4 5 7 20
Neighs:       158427.0 ave      229625 max           0 min
Histogram: 4 2 2 0 5 3 4 4 11 17

Total # of neighbors = 8238213
Ave neighs/atom = 28.530509
Neighbor list builds = 0
Dangerous builds = 0
The dot product: -9.90478355792685e-08
Setting atom values ...
  1 settings made for x
  1 settings made for y
  1 settings made for z
Setting up cg style minimization ...
  Unit style    : metal
  Current step  : 2784
Per MPI rank memory allocation (min/avg/max) = 5.465 | 6.344 | 6.728 Mbytes
Step PotEng KinEng TotEng v_fx v_fy v_fz 
    2784   -1152449.3            0   -1152449.3  -0.02353235 -0.011428796 -0.017847848 
    3000   -1152449.3            0   -1152449.3 3.764526e-06 -4.5215634e-06 1.429169e-05 
    3003   -1152449.3            0   -1152449.3 3.2931376e-06 -3.2286692e-06 1.119325e-05 
Loop time of 4.78518 on 52 procs for 219 steps with 288751 atoms

99.9% CPU use with 52 MPI tasks x 1 OpenMP threads

Minimization stats:
  Stopping criterion = linesearch alpha is zero
  Energy initial, next-to-last, final = 
     -1152449.25944301  -1152449.26136213  -1152449.26136213
  Force two-norm initial, final = 0.17675017 6.2112505e-05
  Force max component initial, final = 0.11270809 1.4851441e-05
  Final line search alpha, max atom move = 0.5 7.4257207e-06
  Iterations, force evaluations = 219 439

MPI task timing breakdown:
Section |  min time  |  avg time  |  max time  |%varavg| %total
---------------------------------------------------------------
Pair    | 1.2424     | 3.5044     | 4.5923     |  52.1 | 73.23
Neigh   | 0          | 0          | 0          |   0.0 |  0.00
Comm    | 0.062893   | 0.77434    | 2.4565     |  79.3 | 16.18
Output  | 0.00020467 | 0.0002093  | 0.00037939 |   0.0 |  0.00
Modify  | 7.2341e-05 | 0.0073578  | 0.015513   |   4.0 |  0.15
Other   |            | 0.4989     |            |       | 10.43

Nlocal:        5552.90 ave        7875 max           0 min
Histogram: 4 2 2 0 2 6 4 0 14 18
Nghost:        6213.69 ave        8770 max         412 min
Histogram: 4 0 4 0 8 0 4 5 7 20
Neighs:       158427.0 ave      229417 max           0 min
Histogram: 4 2 2 0 4 4 4 4 11 17

Total # of neighbors = 8238216
Ave neighs/atom = 28.530519
Neighbor list builds = 0
Dangerous builds = 0
The dot product: -1.06926078571577e-07
Setting atom values ...
  1 settings made for x
  1 settings made for y
  1 settings made for z
Setting up cg style minimization ...
  Unit style    : metal
  Current step  : 3003
Per MPI rank memory allocation (min/avg/max) = 5.465 | 6.344 | 6.728 Mbytes
Step PotEng KinEng TotEng v_fx v_fy v_fz 
    3003   -1152449.2            0   -1152449.2 -0.020017516 -0.0078952972 -0.016068935 
    3193   -1152449.2            0   -1152449.2 3.5480888e-06 -1.6052535e-06 7.9993341e-06 
Loop time of 4.14065 on 52 procs for 190 steps with 288751 atoms

99.9% CPU use with 52 MPI tasks x 1 OpenMP threads

Minimization stats:
  Stopping criterion = energy tolerance
  Energy initial, next-to-last, final = 
      -1152449.2374537  -1152449.23933989  -1152449.23933989
  Force two-norm initial, final = 0.17513696 0.00013033834
  Force max component initial, final = 0.11583353 1.9995654e-05
  Final line search alpha, max atom move = 1.0000000 1.9995654e-05
  Iterations, force evaluations = 190 380

MPI task timing breakdown:
Section |  min time  |  avg time  |  max time  |%varavg| %total
---------------------------------------------------------------
Pair    | 1.0756     | 3.0227     | 3.9665     |  48.2 | 73.00
Neigh   | 0          | 0          | 0          |   0.0 |  0.00
Comm    | 0.05231    | 0.66304    | 2.1184     |  74.0 | 16.01
Output  | 0          | 0          | 0          |   0.0 |  0.00
Modify  | 6.1882e-05 | 0.006338   | 0.013514   |   3.7 |  0.15
Other   |            | 0.4486     |            |       | 10.83

Nlocal:        5552.90 ave        7871 max           0 min
Histogram: 4 2 2 0 2 6 4 0 14 18
Nghost:        6213.69 ave        8770 max         412 min
Histogram: 4 0 4 0 8 0 4 5 7 20
Neighs:       158427.0 ave      229299 max           0 min
Histogram: 4 2 2 0 4 4 4 4 11 17

Total # of neighbors = 8238212
Ave neighs/atom = 28.530506
Neighbor list builds = 0
Dangerous builds = 0
The dot product: -9.05547652775373e-08
Setting atom values ...
  1 settings made for x
  1 settings made for y
  1 settings made for z
Setting up cg style minimization ...
  Unit style    : metal
  Current step  : 3193
Per MPI rank memory allocation (min/avg/max) = 5.465 | 6.344 | 6.728 Mbytes
Step PotEng KinEng TotEng v_fx v_fy v_fz 
    3193   -1152449.2            0   -1152449.2 -0.018855724 -0.0050692126 -0.017186346 
    3390   -1152449.2            0   -1152449.2 -1.0814431e-06 -2.9047979e-06 3.2740716e-06 
Loop time of 4.30713 on 52 procs for 197 steps with 288751 atoms

99.9% CPU use with 52 MPI tasks x 1 OpenMP threads

Minimization stats:
  Stopping criterion = linesearch alpha is zero
  Energy initial, next-to-last, final = 
     -1152449.21432648  -1152449.21636617  -1152449.21636617
  Force two-norm initial, final = 0.17420218 0.0001120941
  Force max component initial, final = 0.11866467 1.5006258e-05
  Final line search alpha, max atom move = 0.5 7.5031290e-06
  Iterations, force evaluations = 197 397

MPI task timing breakdown:
Section |  min time  |  avg time  |  max time  |%varavg| %total
---------------------------------------------------------------
Pair    | 1.1218     | 3.1665     | 4.1409     |  49.5 | 73.52
Neigh   | 0          | 0          | 0          |   0.0 |  0.00
Comm    | 0.054669   | 0.69535    | 2.2273     |  75.7 | 16.14
Output  | 0          | 0          | 0          |   0.0 |  0.00
Modify  | 8.7345e-05 | 0.0066125  | 0.014092   |   3.8 |  0.15
Other   |            | 0.4387     |            |       | 10.18

Nlocal:        5552.90 ave        7869 max           0 min
Histogram: 4 2 2 0 2 6 4 0 14 18
Nghost:        6213.69 ave        8770 max         412 min
Histogram: 4 0 4 0 8 0 4 5 7 20
Neighs:       158427.0 ave      229242 max           0 min
Histogram: 4 2 2 0 4 4 4 4 10 18

Total # of neighbors = 8238211
Ave neighs/atom = 28.530502
Neighbor list builds = 0
Dangerous builds = 0
The dot product: -2.49274769700345e-08
Setting atom values ...
  1 settings made for x
  1 settings made for y
  1 settings made for z
Setting up cg style minimization ...
  Unit style    : metal
  Current step  : 3390
Per MPI rank memory allocation (min/avg/max) = 5.465 | 6.344 | 6.728 Mbytes
Step PotEng KinEng TotEng v_fx v_fy v_fz 
    3390   -1152449.2            0   -1152449.2 -0.023092439 -0.0023832653 -0.024467232 
    3559   -1152449.2            0   -1152449.2 4.4968739e-06 -5.1561343e-06 1.3365247e-05 
Loop time of 3.66535 on 52 procs for 169 steps with 288751 atoms

99.9% CPU use with 52 MPI tasks x 1 OpenMP threads

Minimization stats:
  Stopping criterion = energy tolerance
  Energy initial, next-to-last, final = 
     -1152449.19055517   -1152449.1927921   -1152449.1927921
  Force two-norm initial, final = 0.17446313 0.00021474691
  Force max component initial, final = 0.12128079 2.3971399e-05
  Final line search alpha, max atom move = 1.0000000 2.3971399e-05
  Iterations, force evaluations = 169 338

MPI task timing breakdown:
Section |  min time  |  avg time  |  max time  |%varavg| %total
---------------------------------------------------------------
Pair    | 0.95458    | 2.691      | 3.5223     |  45.6 | 73.42
Neigh   | 0          | 0          | 0          |   0.0 |  0.00
Comm    | 0.045235   | 0.59081    | 1.8855     |  70.0 | 16.12
Output  | 0          | 0          | 0          |   0.0 |  0.00
Modify  | 6.073e-05  | 0.0056429  | 0.012      |   3.5 |  0.15
Other   |            | 0.3779     |            |       | 10.31

Nlocal:        5552.90 ave        7870 max           0 min
Histogram: 4 2 2 0 2 6 4 0 14 18
Nghost:        6213.71 ave        8770 max         412 min
Histogram: 4 0 4 0 8 0 4 5 7 20
Neighs:       158427.0 ave      229261 max           0 min
Histogram: 4 2 2 0 4 4 4 4 10 18

Total # of neighbors = 8238211
Ave neighs/atom = 28.530502
Neighbor list builds = 0
Dangerous builds = 0
The dot product: -2.2237278313279e-07
Setting atom values ...
  1 settings made for x
  1 settings made for y
  1 settings made for z
Setting up cg style minimization ...
  Unit style    : metal
  Current step  : 3559
Per MPI rank memory allocation (min/avg/max) = 5.465 | 6.344 | 6.728 Mbytes
Step PotEng KinEng TotEng v_fx v_fy v_fz 
    3559   -1152449.2            0   -1152449.2 -0.028191861 -5.4080797e-05 -0.030475186 
    3751   -1152449.2            0   -1152449.2 2.1743662e-07 3.1099773e-06 -4.1931829e-06 
Loop time of 4.20236 on 52 procs for 192 steps with 288751 atoms

99.9% CPU use with 52 MPI tasks x 1 OpenMP threads

Minimization stats:
  Stopping criterion = energy tolerance
  Energy initial, next-to-last, final = 
     -1152449.16634221   -1152449.1685239   -1152449.1685239
  Force two-norm initial, final = 0.17522436 0.00010766278
  Force max component initial, final = 0.12400328 1.0227223e-05
  Final line search alpha, max atom move = 1.0000000 1.0227223e-05
  Iterations, force evaluations = 192 386

MPI task timing breakdown:
Section |  min time  |  avg time  |  max time  |%varavg| %total
---------------------------------------------------------------
Pair    | 1.0911     | 3.0695     | 4.0397     |  48.7 | 73.04
Neigh   | 0          | 0          | 0          |   0.0 |  0.00
Comm    | 0.051528   | 0.67945    | 2.1671     |  74.1 | 16.17
Output  | 0          | 0          | 0          |   0.0 |  0.00
Modify  | 6.5095e-05 | 0.0064612  | 0.01369    |   3.7 |  0.15
Other   |            | 0.4469     |            |       | 10.64

Nlocal:        5552.90 ave        7870 max           0 min
Histogram: 4 2 2 0 2 6 4 0 14 18
Nghost:        6213.71 ave        8770 max         412 min
Histogram: 4 0 4 0 8 0 4 5 7 20
Neighs:       158427.0 ave      229253 max           0 min
Histogram: 4 2 2 0 4 4 4 4 10 18

Total # of neighbors = 8238215
Ave neighs/atom = 28.530516
Neighbor list builds = 0
Dangerous builds = 0
The dot product: 5.51649374222671e-08
Setting atom values ...
  1 settings made for x
  1 settings made for y
  1 settings made for z
Setting up cg style minimization ...
  Unit style    : metal
  Current step  : 3751
Per MPI rank memory allocation (min/avg/max) = 5.465 | 6.344 | 6.728 Mbytes
Step PotEng KinEng TotEng v_fx v_fy v_fz 
    3751   -1152449.1            0   -1152449.1 -0.027496417 0.0012153148 -0.028396874 
    3997   -1152449.1            0   -1152449.1 6.5741175e-07 -1.5284545e-06 2.6795059e-06 
Loop time of 5.35219 on 52 procs for 246 steps with 288751 atoms

99.9% CPU use with 52 MPI tasks x 1 OpenMP threads

Minimization stats:
  Stopping criterion = linesearch alpha is zero
  Energy initial, next-to-last, final = 
     -1152449.14120879  -1152449.14326096  -1152449.14326096
  Force two-norm initial, final = 0.17465854 1.6614028e-05
  Force max component initial, final = 0.12710071 3.9236543e-06
  Final line search alpha, max atom move = 0.5 1.9618271e-06
  Iterations, force evaluations = 246 493

MPI task timing breakdown:
Section |  min time  |  avg time  |  max time  |%varavg| %total
---------------------------------------------------------------
Pair    | 1.3919     | 3.92       | 5.1184     |  55.0 | 73.24
Neigh   | 0          | 0          | 0          |   0.0 |  0.00
Comm    | 0.069832   | 0.85941    | 2.7322     |  84.7 | 16.06
Output  | 0          | 0          | 0          |   0.0 |  0.00
Modify  | 8.629e-05  | 0.0082505  | 0.017595   |   4.2 |  0.15
Other   |            | 0.5645     |            |       | 10.55

Nlocal:        5552.90 ave        7871 max           0 min
Histogram: 4 2 2 0 2 6 4 0 14 18
Nghost:        6213.71 ave        8770 max         412 min
Histogram: 4 0 4 0 8 0 4 5 7 20
Neighs:       158427.0 ave      229265 max           0 min
Histogram: 4 2 2 0 4 4 4 4 10 18

Total # of neighbors = 8238215
Ave neighs/atom = 28.530516
Neighbor list builds = 0
Dangerous builds = 0
The dot product: -3.92604309899407e-08
Setting atom values ...
  1 settings made for x
  1 settings made for y
  1 settings made for z
Setting up cg style minimization ...
  Unit style    : metal
  Current step  : 3997
Per MPI rank memory allocation (min/avg/max) = 5.465 | 6.344 | 6.728 Mbytes
Step PotEng KinEng TotEng v_fx v_fy v_fz 
    3997   -1152449.1            0   -1152449.1 -0.023932136 0.0019149591 -0.023699354 
    4000   -1152449.1            0   -1152449.1 -0.0019527211 0.00030181156 -0.002117503 
    4191   -1152449.1            0   -1152449.1 -5.1218178e-07 5.3629213e-06 -7.2262651e-06 
Loop time of 4.29521 on 52 procs for 194 steps with 288751 atoms

99.8% CPU use with 52 MPI tasks x 1 OpenMP threads

Minimization stats:
  Stopping criterion = linesearch alpha is zero
  Energy initial, next-to-last, final = 
     -1152449.11495183  -1152449.11681102  -1152449.11681102
  Force two-norm initial, final = 0.17380254 0.00011044588
  Force max component initial, final = 0.13008874 1.2464348e-05
  Final line search alpha, max atom move = 0.5 6.2321740e-06
  Iterations, force evaluations = 194 391

MPI task timing breakdown:
Section |  min time  |  avg time  |  max time  |%varavg| %total
---------------------------------------------------------------
Pair    | 1.1098     | 3.1238     | 4.1085     |  49.2 | 72.73
Neigh   | 0          | 0          | 0          |   0.0 |  0.00
Comm    | 0.052515   | 0.69874    | 2.2392     |  74.6 | 16.27
Output  | 0.00011831 | 0.00012224 | 0.00026407 |   0.0 |  0.00
Modify  | 7.5235e-05 | 0.0065517  | 0.01393    |   3.8 |  0.15
Other   |            | 0.466      |            |       | 10.85

Nlocal:        5552.90 ave        7871 max           0 min
Histogram: 4 2 2 0 2 6 4 0 14 18
Nghost:        6213.73 ave        8771 max         412 min
Histogram: 4 0 4 0 8 0 4 5 7 20
Neighs:       158427.0 ave      229255 max           0 min
Histogram: 4 2 2 0 4 4 4 4 10 18

Total # of neighbors = 8238214
Ave neighs/atom = 28.530512
Neighbor list builds = 0
Dangerous builds = 0
The dot product: 8.35396623393832e-08
Setting atom values ...
  1 settings made for x
  1 settings made for y
  1 settings made for z
Setting up cg style minimization ...
  Unit style    : metal
  Current step  : 4191
Per MPI rank memory allocation (min/avg/max) = 5.465 | 6.344 | 6.728 Mbytes
Step PotEng KinEng TotEng v_fx v_fy v_fz 
    4191   -1152449.1            0   -1152449.1 -0.018790469 0.0017381337 -0.017651423 
    4384   -1152449.1            0   -1152449.1 -1.2803354e-06 8.9024116e-07 -2.1350832e-06 
Loop time of 4.18851 on 52 procs for 193 steps with 288751 atoms

99.9% CPU use with 52 MPI tasks x 1 OpenMP threads

Minimization stats:
  Stopping criterion = linesearch alpha is zero
  Energy initial, next-to-last, final = 
     -1152449.08734685   -1152449.0890772   -1152449.0890772
  Force two-norm initial, final = 0.17326287 0.00010421246
  Force max component initial, final = 0.13295766 1.2726611e-05
  Final line search alpha, max atom move = 0.5 6.3633053e-06
  Iterations, force evaluations = 193 387

MPI task timing breakdown:
Section |  min time  |  avg time  |  max time  |%varavg| %total
---------------------------------------------------------------
Pair    | 1.0932     | 3.0729     | 4.026      |  48.7 | 73.37
Neigh   | 0          | 0          | 0          |   0.0 |  0.00
Comm    | 0.055054   | 0.67195    | 2.1278     |  75.1 | 16.04
Output  | 0          | 0          | 0          |   0.0 |  0.00
Modify  | 7.0495e-05 | 0.0064682  | 0.013791   |   3.8 |  0.15
Other   |            | 0.4372     |            |       | 10.44

Nlocal:        5552.90 ave        7871 max           0 min
Histogram: 4 2 2 0 2 6 4 0 14 18
Nghost:        6213.73 ave        8771 max         412 min
Histogram: 4 0 4 0 8 0 4 5 7 20
Neighs:       158427.0 ave      229251 max           0 min
Histogram: 4 2 2 0 4 4 4 4 10 18

Total # of neighbors = 8238213
Ave neighs/atom = 28.530509
Neighbor list builds = 0
Dangerous builds = 0
The dot product: 2.60633248008539e-08
Setting atom values ...
  1 settings made for x
  1 settings made for y
  1 settings made for z
Setting up cg style minimization ...
  Unit style    : metal
  Current step  : 4384
Per MPI rank memory allocation (min/avg/max) = 5.465 | 6.344 | 6.728 Mbytes
Step PotEng KinEng TotEng v_fx v_fy v_fz 
    4384   -1152449.1            0   -1152449.1 -0.013525792 0.0014446118 -0.012279168 
    4555   -1152449.1            0   -1152449.1 -1.4748249e-05 3.7624943e-05 -5.5425817e-05 
Loop time of 3.72708 on 52 procs for 171 steps with 288751 atoms

99.9% CPU use with 52 MPI tasks x 1 OpenMP threads

Minimization stats:
  Stopping criterion = energy tolerance
  Energy initial, next-to-last, final = 
     -1152449.05840122  -1152449.06005688  -1152449.06005688
  Force two-norm initial, final = 0.17334993 0.00019592508
  Force max component initial, final = 0.1356385 5.5425817e-05
  Final line search alpha, max atom move = 1.0000000 5.5425817e-05
  Iterations, force evaluations = 171 342

MPI task timing breakdown:
Section |  min time  |  avg time  |  max time  |%varavg| %total
---------------------------------------------------------------
Pair    | 0.96807    | 2.7343     | 3.5807     |  46.1 | 73.36
Neigh   | 0          | 0          | 0          |   0.0 |  0.00
Comm    | 0.047701   | 0.60292    | 1.9182     |  70.4 | 16.18
Output  | 0          | 0          | 0          |   0.0 |  0.00
Modify  | 8.8739e-05 | 0.0057243  | 0.012093   |   3.5 |  0.15
Other   |            | 0.3841     |            |       | 10.31

Nlocal:        5552.90 ave        7870 max           0 min
Histogram: 4 2 2 0 2 6 4 0 14 18
Nghost:        6213.77 ave        8771 max         412 min
Histogram: 4 0 4 0 8 0 4 5 7 20
Neighs:       158427.0 ave      229221 max           0 min
Histogram: 4 2 2 0 4 4 4 4 10 18

Total # of neighbors = 8238214
Ave neighs/atom = 28.530512
Neighbor list builds = 0
Dangerous builds = 0
The dot product: 5.07989302015929e-07
Setting atom values ...
  1 settings made for x
  1 settings made for y
  1 settings made for z
Setting up cg style minimization ...
  Unit style    : metal
  Current step  : 4555
Per MPI rank memory allocation (min/avg/max) = 5.465 | 6.344 | 6.728 Mbytes
Step PotEng KinEng TotEng v_fx v_fy v_fz 
    4555     -1152449            0     -1152449 -0.0089622136 0.0011422993 -0.0080260832 
    4725     -1152449            0     -1152449 9.830551e-06 -2.3445569e-05 3.3945429e-05 
Loop time of 3.68774 on 52 procs for 170 steps with 288751 atoms

99.9% CPU use with 52 MPI tasks x 1 OpenMP threads

Minimization stats:
  Stopping criterion = energy tolerance
  Energy initial, next-to-last, final = 
     -1152449.02816835  -1152449.02981196  -1152449.02981196
  Force two-norm initial, final = 0.1738955 0.00020104109
  Force max component initial, final = 0.13802573 3.6206403e-05
  Final line search alpha, max atom move = 1.0000000 3.6206403e-05
  Iterations, force evaluations = 170 340

MPI task timing breakdown:
Section |  min time  |  avg time  |  max time  |%varavg| %total
---------------------------------------------------------------
Pair    | 0.96175    | 2.7033     | 3.5439     |  45.6 | 73.30
Neigh   | 0          | 0          | 0          |   0.0 |  0.00
Comm    | 0.045852   | 0.59247    | 1.8995     |  70.3 | 16.07
Output  | 0          | 0          | 0          |   0.0 |  0.00
Modify  | 5.4027e-05 | 0.0056777  | 0.012099   |   3.5 |  0.15
Other   |            | 0.3863     |            |       | 10.48

Nlocal:        5552.90 ave        7869 max           0 min
Histogram: 4 2 2 0 2 6 4 0 14 18
Nghost:        6213.71 ave        8771 max         412 min
Histogram: 4 0 4 0 8 0 4 5 7 20
Neighs:       158427.0 ave      229187 max           0 min
Histogram: 4 2 2 0 4 4 4 4 10 18

Total # of neighbors = 8238218
Ave neighs/atom = 28.530526
Neighbor list builds = 0
Dangerous builds = 0
The dot product: -2.80307168196014e-07
Setting atom values ...
  1 settings made for x
  1 settings made for y
  1 settings made for z
Setting up cg style minimization ...
  Unit style    : metal
  Current step  : 4725
Per MPI rank memory allocation (min/avg/max) = 5.465 | 6.344 | 6.728 Mbytes
Step PotEng KinEng TotEng v_fx v_fy v_fz 
    4725     -1152449            0     -1152449 -0.0055622525 0.00088360741 -0.0050184132 
    4944     -1152449            0     -1152449 7.6659633e-07 -5.5702866e-06 6.7113729e-06 
Loop time of 4.77619 on 52 procs for 219 steps with 288751 atoms

99.9% CPU use with 52 MPI tasks x 1 OpenMP threads

Minimization stats:
  Stopping criterion = linesearch alpha is zero
  Energy initial, next-to-last, final = 
     -1152448.99680674  -1152448.99845419  -1152448.99845419
  Force two-norm initial, final = 0.17464575 6.4445134e-05
  Force max component initial, final = 0.14014516 1.3623805e-05
  Final line search alpha, max atom move = 0.5 6.8119023e-06
  Iterations, force evaluations = 219 439

MPI task timing breakdown:
Section |  min time  |  avg time  |  max time  |%varavg| %total
---------------------------------------------------------------
Pair    | 1.2431     | 3.5027     | 4.583      |  52.1 | 73.34
Neigh   | 0          | 0          | 0          |   0.0 |  0.00
Comm    | 0.061231   | 0.77166    | 2.4332     |  79.4 | 16.16
Output  | 0          | 0          | 0          |   0.0 |  0.00
Modify  | 0.00010032 | 0.0073378  | 0.015693   |   4.0 |  0.15
Other   |            | 0.4945     |            |       | 10.35

Nlocal:        5552.90 ave        7869 max           0 min
Histogram: 4 2 2 0 2 6 4 0 14 18
Nghost:        6213.71 ave        8771 max         412 min
Histogram: 4 0 4 0 8 0 4 5 7 20
Neighs:       158427.0 ave      229178 max           0 min
Histogram: 4 2 2 0 4 4 4 4 10 18

Total # of neighbors = 8238215
Ave neighs/atom = 28.530516
Neighbor list builds = 0
Dangerous builds = 0
The dot product: -4.89979065405473e-08
Setting atom values ...
  1 settings made for x
  1 settings made for y
  1 settings made for z
Setting up cg style minimization ...
  Unit style    : metal
  Current step  : 4944
Per MPI rank memory allocation (min/avg/max) = 5.465 | 6.344 | 6.728 Mbytes
Step PotEng KinEng TotEng v_fx v_fy v_fz 
    4944     -1152449            0     -1152449 -0.0029995953 0.00033880071 -0.0024890744 
    5000     -1152449            0     -1152449 0.0001068875 -0.00026780425 0.00036507085 
    5108     -1152449            0     -1152449 -3.7676862e-07 -1.2818823e-05 1.3586964e-05 
Loop time of 3.56942 on 52 procs for 164 steps with 288751 atoms

99.9% CPU use with 52 MPI tasks x 1 OpenMP threads

Minimization stats:
  Stopping criterion = energy tolerance
  Energy initial, next-to-last, final = 
      -1152448.9643826  -1152448.96604509  -1152448.96604509
  Force two-norm initial, final = 0.1755324 0.00027118538
  Force max component initial, final = 0.14208249 3.0909050e-05
  Final line search alpha, max atom move = 1.0000000 3.0909050e-05
  Iterations, force evaluations = 164 328

MPI task timing breakdown:
Section |  min time  |  avg time  |  max time  |%varavg| %total
---------------------------------------------------------------
Pair    | 0.93071    | 2.6143     | 3.4226     |  44.8 | 73.24
Neigh   | 0          | 0          | 0          |   0.0 |  0.00
Comm    | 0.046199   | 0.57523    | 1.8362     |  68.8 | 16.12
Output  | 0.00011815 | 0.00012273 | 0.00028422 |   0.0 |  0.00
Modify  | 5.7087e-05 | 0.0054774  | 0.011614   |   3.5 |  0.15
Other   |            | 0.3743     |            |       | 10.49

Nlocal:        5552.90 ave        7868 max           0 min
Histogram: 4 2 2 0 2 6 4 0 14 18
Nghost:        6213.71 ave        8771 max         412 min
Histogram: 4 0 4 0 8 0 4 5 7 20
Neighs:       158427.0 ave      229158 max           0 min
Histogram: 4 2 2 0 4 4 4 4 10 18

Total # of neighbors = 8238219
Ave neighs/atom = 28.530530
Neighbor list builds = 0
Dangerous builds = 0
The dot product: -9.27270784954992e-08
Setting atom values ...
  1 settings made for x
  1 settings made for y
  1 settings made for z
Setting up cg style minimization ...
  Unit style    : metal
  Current step  : 5108
Per MPI rank memory allocation (min/avg/max) = 5.465 | 6.344 | 6.728 Mbytes
Step PotEng KinEng TotEng v_fx v_fy v_fz 
    5108   -1152448.9            0   -1152448.9 -0.0012365207 -0.00040090373 -0.00043142477 
    5297   -1152448.9            0   -1152448.9 1.3594018e-07 -5.5849428e-06 6.0105377e-06 
Loop time of 4.11784 on 52 procs for 189 steps with 288751 atoms

99.9% CPU use with 52 MPI tasks x 1 OpenMP threads

Minimization stats:
  Stopping criterion = linesearch alpha is zero
  Energy initial, next-to-last, final = 
     -1152448.93101387  -1152448.93272492  -1152448.93272492
  Force two-norm initial, final = 0.17636521 0.00015405108
  Force max component initial, final = 0.14376177 2.0405164e-05
  Final line search alpha, max atom move = 0.5 1.0202582e-05
  Iterations, force evaluations = 189 379

MPI task timing breakdown:
Section |  min time  |  avg time  |  max time  |%varavg| %total
---------------------------------------------------------------
Pair    | 1.0736     | 3.0211     | 3.958      |  48.3 | 73.37
Neigh   | 0          | 0          | 0          |   0.0 |  0.00
Comm    | 0.051398   | 0.66908    | 2.1566     |  73.7 | 16.25
Output  | 0          | 0          | 0          |   0.0 |  0.00
Modify  | 6.6366e-05 | 0.0063774  | 0.013672   |   3.7 |  0.15
Other   |            | 0.4212     |            |       | 10.23

Nlocal:        5552.90 ave        7869 max           0 min
Histogram: 4 2 2 0 2 6 4 0 14 18
Nghost:        6213.75 ave        8771 max         412 min
Histogram: 4 0 4 0 8 0 4 5 7 20
Neighs:       158427.0 ave      229171 max           0 min
Histogram: 4 2 2 0 4 4 4 4 10 18

Total # of neighbors = 8238215
Ave neighs/atom = 28.530516
Neighbor list builds = 0
Dangerous builds = 0
The dot product: -3.96967943940091e-08
Setting atom values ...
  1 settings made for x
  1 settings made for y
  1 settings made for z
Setting up cg style minimization ...
  Unit style    : metal
  Current step  : 5297
Per MPI rank memory allocation (min/avg/max) = 5.465 | 6.344 | 6.728 Mbytes
Step PotEng KinEng TotEng v_fx v_fy v_fz 
    5297   -1152448.9            0   -1152448.9 3.5883451e-05 -0.0013173163 0.0013944485 
    5479   -1152448.9            0   -1152448.9 -5.5883523e-06 5.4208992e-06 -9.4352622e-06 
Loop time of 3.94717 on 52 procs for 182 steps with 288751 atoms

99.9% CPU use with 52 MPI tasks x 1 OpenMP threads

Minimization stats:
  Stopping criterion = energy tolerance
  Energy initial, next-to-last, final = 
     -1152448.89681505  -1152448.89844635  -1152448.89844635
  Force two-norm initial, final = 0.17711204 0.00016654149
  Force max component initial, final = 0.1451912 3.6866019e-05
  Final line search alpha, max atom move = 1.0000000 3.6866019e-05
  Iterations, force evaluations = 182 364

MPI task timing breakdown:
Section |  min time  |  avg time  |  max time  |%varavg| %total
---------------------------------------------------------------
Pair    | 1.0286     | 2.891      | 3.7926     |  47.2 | 73.24
Neigh   | 0          | 0          | 0          |   0.0 |  0.00
Comm    | 0.049751   | 0.63292    | 2.0051     |  72.6 | 16.03
Output  | 0          | 0          | 0          |   0.0 |  0.00
Modify  | 6.2196e-05 | 0.0060749  | 0.012977   |   3.6 |  0.15
Other   |            | 0.4172     |            |       | 10.57

Nlocal:        5552.90 ave        7869 max           0 min
Histogram: 4 2 2 0 2 6 4 0 14 18
Nghost:        6213.71 ave        8771 max         412 min
Histogram: 4 0 4 0 8 0 4 5 7 20
Neighs:       158427.0 ave      229165 max           0 min
Histogram: 4 2 2 0 4 4 4 4 10 18

Total # of neighbors = 8238216
Ave neighs/atom = 28.530519
Neighbor list builds = 0
Dangerous builds = 0
The dot product: 5.19712311616444e-08
Setting atom values ...
  1 settings made for x
  1 settings made for y
  1 settings made for z
Setting up cg style minimization ...
  Unit style    : metal
  Current step  : 5479
Per MPI rank memory allocation (min/avg/max) = 5.465 | 6.344 | 6.728 Mbytes
Step PotEng KinEng TotEng v_fx v_fy v_fz 
    5479   -1152448.9            0   -1152448.9 0.0016066515 -0.0033093433  0.004466988 
    5653   -1152448.9            0   -1152448.9 -2.9810995e-06 5.1654469e-06 -7.2894658e-06 
Loop time of 3.82908 on 52 procs for 174 steps with 288751 atoms

99.9% CPU use with 52 MPI tasks x 1 OpenMP threads

Minimization stats:
  Stopping criterion = linesearch alpha is zero
  Energy initial, next-to-last, final = 
     -1152448.86150215  -1152448.86311326  -1152448.86311326
  Force two-norm initial, final = 0.17837395 0.00020025224
  Force max component initial, final = 0.14689557 1.6090124e-05
  Final line search alpha, max atom move = 0.25 4.0225310e-06
  Iterations, force evaluations = 174 351

MPI task timing breakdown:
Section |  min time  |  avg time  |  max time  |%varavg| %total
---------------------------------------------------------------
Pair    | 0.99067    | 2.7962     | 3.6825     |  46.6 | 73.03
Neigh   | 0          | 0          | 0          |   0.0 |  0.00
Comm    | 0.047868   | 0.62124    | 1.9771     |  70.6 | 16.22
Output  | 0          | 0          | 0          |   0.0 |  0.00
Modify  | 5.9112e-05 | 0.0058768  | 0.012423   |   3.6 |  0.15
Other   |            | 0.4057     |            |       | 10.60

Nlocal:        5552.90 ave        7869 max           0 min
Histogram: 4 2 2 0 2 6 4 0 14 18
Nghost:        6213.69 ave        8771 max         412 min
Histogram: 4 0 4 0 8 0 4 5 7 20
Neighs:       158427.0 ave      229162 max           0 min
Histogram: 4 2 2 0 4 4 4 4 10 18

Total # of neighbors = 8238215
Ave neighs/atom = 28.530516
Neighbor list builds = 0
Dangerous builds = 0
The dot product: 3.29369483457537e-08
Setting atom values ...
  1 settings made for x
  1 settings made for y
  1 settings made for z
Setting up cg style minimization ...
  Unit style    : metal
  Current step  : 5653
Per MPI rank memory allocation (min/avg/max) = 5.465 | 6.344 | 6.728 Mbytes
Step PotEng KinEng TotEng v_fx v_fy v_fz 
    5653   -1152448.8            0   -1152448.8 0.0029030699 -0.005481364 0.0074738638 
    5805   -1152448.8            0   -1152448.8 -3.3391649e-06 2.6203561e-05 -2.8741872e-05 
Loop time of 3.28951 on 52 procs for 152 steps with 288751 atoms

99.9% CPU use with 52 MPI tasks x 1 OpenMP threads

Minimization stats:
  Stopping criterion = energy tolerance
  Energy initial, next-to-last, final = 
     -1152448.82512819  -1152448.82685207  -1152448.82685207
  Force two-norm initial, final = 0.17965674 0.00026641352
  Force max component initial, final = 0.14847857 3.8631999e-05
  Final line search alpha, max atom move = 1.0000000 3.8631999e-05
  Iterations, force evaluations = 152 304

MPI task timing breakdown:
Section |  min time  |  avg time  |  max time  |%varavg| %total
---------------------------------------------------------------
Pair    | 0.86017    | 2.4144     | 3.1622     |  43.1 | 73.40
Neigh   | 0          | 0          | 0          |   0.0 |  0.00
Comm    | 0.042081   | 0.52923    | 1.6874     |  66.5 | 16.09
Output  | 0          | 0          | 0          |   0.0 |  0.00
Modify  | 5.2107e-05 | 0.0050757  | 0.010782   |   3.3 |  0.15
Other   |            | 0.3408     |            |       | 10.36

Nlocal:        5552.90 ave        7867 max           0 min
Histogram: 4 2 2 0 2 6 4 0 14 18
Nghost:        6213.69 ave        8771 max         412 min
Histogram: 4 0 4 0 8 0 4 5 7 20
Neighs:       158427.0 ave      229090 max           0 min
Histogram: 4 2 2 0 4 4 4 4 10 18

Total # of neighbors = 8238217
Ave neighs/atom = 28.530523
Neighbor list builds = 0
Dangerous builds = 0
The dot product: 1.23010663920812e-07
Setting atom values ...
  1 settings made for x
  1 settings made for y
  1 settings made for z
Setting up cg style minimization ...
  Unit style    : metal
  Current step  : 5805
Per MPI rank memory allocation (min/avg/max) = 5.465 | 6.344 | 6.728 Mbytes
Step PotEng KinEng TotEng v_fx v_fy v_fz 
    5805   -1152448.8            0   -1152448.8 0.0035744355 -0.007151911 0.0095130164 
    5984   -1152448.8            0   -1152448.8 -5.4423902e-06 2.3356612e-05 -2.6971788e-05 
Loop time of 3.89734 on 52 procs for 179 steps with 288751 atoms

99.9% CPU use with 52 MPI tasks x 1 OpenMP threads

Minimization stats:
  Stopping criterion = energy tolerance
  Energy initial, next-to-last, final = 
     -1152448.78805161  -1152448.78967314  -1152448.78967314
  Force two-norm initial, final = 0.18017571 0.00018545417
  Force max component initial, final = 0.1494558 3.8649913e-05
  Final line search alpha, max atom move = 1.0000000 3.8649913e-05
  Iterations, force evaluations = 179 358

MPI task timing breakdown:
Section |  min time  |  avg time  |  max time  |%varavg| %total
---------------------------------------------------------------
Pair    | 1.0177     | 2.8642     | 3.7465     |  47.1 | 73.49
Neigh   | 0          | 0          | 0          |   0.0 |  0.00
Comm    | 0.047134   | 0.63255    | 2.0305     |  72.1 | 16.23
Output  | 0          | 0          | 0          |   0.0 |  0.00
Modify  | 7.8982e-05 | 0.0060115  | 0.012862   |   3.6 |  0.15
Other   |            | 0.3945     |            |       | 10.12

Nlocal:        5552.90 ave        7867 max           0 min
Histogram: 4 2 2 0 2 6 4 0 14 18
Nghost:        6213.73 ave        8771 max         412 min
Histogram: 4 0 4 0 8 0 4 5 7 20
Neighs:       158427.0 ave      229087 max           0 min
Histogram: 4 2 2 0 4 4 4 4 10 18

Total # of neighbors = 8238213
Ave neighs/atom = 28.530509
Neighbor list builds = 0
Dangerous builds = 0
The dot product: 8.01040794505677e-08
Setting atom values ...
  1 settings made for x
  1 settings made for y
  1 settings made for z
Setting up cg style minimization ...
  Unit style    : metal
  Current step  : 5984
Per MPI rank memory allocation (min/avg/max) = 5.465 | 6.344 | 6.728 Mbytes
Step PotEng KinEng TotEng v_fx v_fy v_fz 
    5984   -1152448.7            0   -1152448.7 0.0045636338 -0.010031341  0.012958744 
    6000   -1152448.8            0   -1152448.8 -0.00068764394 0.0016851268 -0.0021252312 
    6192   -1152448.8            0   -1152448.8 1.1162914e-06 -4.8464477e-06 5.5488094e-06 
Loop time of 4.52222 on 52 procs for 208 steps with 288751 atoms

99.9% CPU use with 52 MPI tasks x 1 OpenMP threads

Minimization stats:
  Stopping criterion = linesearch alpha is zero
  Energy initial, next-to-last, final = 
     -1152448.74985499  -1152448.75148628  -1152448.75148628
  Force two-norm initial, final = 0.18119056 7.6123447e-05
  Force max component initial, final = 0.15081558 9.8036175e-06
  Final line search alpha, max atom move = 0.5 4.9018088e-06
  Iterations, force evaluations = 208 417

MPI task timing breakdown:
Section |  min time  |  avg time  |  max time  |%varavg| %total
---------------------------------------------------------------
Pair    | 1.1782     | 3.3105     | 4.3374     |  50.5 | 73.21
Neigh   | 0          | 0          | 0          |   0.0 |  0.00
Comm    | 0.056673   | 0.72551    | 2.3139     |  77.8 | 16.04
Output  | 0.00012861 | 0.00013287 | 0.00028664 |   0.0 |  0.00
Modify  | 8.3507e-05 | 0.0069641  | 0.014871   |   3.9 |  0.15
Other   |            | 0.4791     |            |       | 10.59

Nlocal:        5552.90 ave        7867 max           0 min
Histogram: 4 2 2 0 2 6 4 0 14 18
Nghost:        6213.81 ave        8771 max         412 min
Histogram: 4 0 4 0 8 0 4 5 7 20
Neighs:       158427.0 ave      229106 max           0 min
Histogram: 4 2 2 0 4 4 4 4 10 18

Total # of neighbors = 8238213
Ave neighs/atom = 28.530509
Neighbor list builds = 0
Dangerous builds = 0
The dot product: -1.0091856413764e-08
Setting atom values ...
  1 settings made for x
  1 settings made for y
  1 settings made for z
Setting up cg style minimization ...
  Unit style    : metal
  Current step  : 6192
Per MPI rank memory allocation (min/avg/max) = 5.465 | 6.344 | 6.728 Mbytes
Step PotEng KinEng TotEng v_fx v_fy v_fz 
    6192   -1152448.7            0   -1152448.7 0.0051953999 -0.012894294   0.01615424 
    6364   -1152448.7            0   -1152448.7 2.173409e-06 -5.8406975e-06 7.1998872e-06 
Loop time of 3.75175 on 52 procs for 172 steps with 288751 atoms

99.9% CPU use with 52 MPI tasks x 1 OpenMP threads

Minimization stats:
  Stopping criterion = linesearch alpha is zero
  Energy initial, next-to-last, final = 
     -1152448.71074086  -1152448.71254888  -1152448.71254888
  Force two-norm initial, final = 0.18168774 0.00013083966
  Force max component initial, final = 0.15194343 7.1998872e-06
  Final line search alpha, max atom move = 0.5 3.5999436e-06
  Iterations, force evaluations = 172 345

MPI task timing breakdown:
Section |  min time  |  avg time  |  max time  |%varavg| %total
---------------------------------------------------------------
Pair    | 0.97409    | 2.7516     | 3.6076     |  46.2 | 73.34
Neigh   | 0          | 0          | 0          |   0.0 |  0.00
Comm    | 0.047001   | 0.60586    | 1.9351     |  70.7 | 16.15
Output  | 0          | 0          | 0          |   0.0 |  0.00
Modify  | 7.5675e-05 | 0.0057666  | 0.012267   |   3.5 |  0.15
Other   |            | 0.3885     |            |       | 10.35

Nlocal:        5552.90 ave        7867 max           0 min
Histogram: 4 2 2 0 2 6 4 0 14 18
Nghost:        6213.77 ave        8771 max         412 min
Histogram: 4 0 4 0 8 0 4 5 7 20
Neighs:       158427.0 ave      229114 max           0 min
Histogram: 4 2 2 0 4 4 4 4 10 18

Total # of neighbors = 8238212
Ave neighs/atom = 28.530506
Neighbor list builds = 0
Dangerous builds = 0
The dot product: -8.13157025766905e-09
Setting atom values ...
  1 settings made for x
  1 settings made for y
  1 settings made for z
Setting up cg style minimization ...
  Unit style    : metal
  Current step  : 6364
Per MPI rank memory allocation (min/avg/max) = 5.465 | 6.344 | 6.728 Mbytes
Step PotEng KinEng TotEng v_fx v_fy v_fz 
    6364   -1152448.7            0   -1152448.7 0.0055980866 -0.014935102  0.018390946 
    6543   -1152448.7            0   -1152448.7 9.5187426e-09 -2.9503935e-06 2.9171185e-06 
Loop time of 3.92914 on 52 procs for 179 steps with 288751 atoms

99.9% CPU use with 52 MPI tasks x 1 OpenMP threads

Minimization stats:
  Stopping criterion = linesearch alpha is zero
  Energy initial, next-to-last, final = 
     -1152448.67135039  -1152448.67310042  -1152448.67310042
  Force two-norm initial, final = 0.1805336 0.00016476858
  Force max component initial, final = 0.1519204 1.4544990e-05
  Final line search alpha, max atom move = 0.25 3.6362475e-06
  Iterations, force evaluations = 179 363

MPI task timing breakdown:
Section |  min time  |  avg time  |  max time  |%varavg| %total
---------------------------------------------------------------
Pair    | 1.0274     | 2.8848     | 3.7778     |  47.1 | 73.42
Neigh   | 0          | 0          | 0          |   0.0 |  0.00
Comm    | 0.050898   | 0.63287    | 2.0108     |  72.4 | 16.11
Output  | 0          | 0          | 0          |   0.0 |  0.00
Modify  | 6.0835e-05 | 0.0060611  | 0.012849   |   3.6 |  0.15
Other   |            | 0.4054     |            |       | 10.32

Nlocal:        5552.90 ave        7868 max           0 min
Histogram: 4 2 2 0 2 6 4 0 14 18
Nghost:        6213.77 ave        8771 max         412 min
Histogram: 4 0 4 0 8 0 4 5 7 20
Neighs:       158427.0 ave      229142 max           0 min
Histogram: 4 2 2 0 4 4 4 4 10 18

Total # of neighbors = 8238207
Ave neighs/atom = 28.530488
Neighbor list builds = 0
Dangerous builds = 0
The dot product: -2.34681053844967e-10
Setting atom values ...
  1 settings made for x
  1 settings made for y
  1 settings made for z
Setting up cg style minimization ...
  Unit style    : metal
  Current step  : 6543
Per MPI rank memory allocation (min/avg/max) = 5.465 | 6.344 | 6.728 Mbytes
Step PotEng KinEng TotEng v_fx v_fy v_fz 
    6543   -1152448.6            0   -1152448.6 0.0059511645 -0.017864373  0.021524428 
    6696   -1152448.6            0   -1152448.6 -6.8474543e-06 3.6609131e-05 -4.0602632e-05 
Loop time of 3.35355 on 52 procs for 153 steps with 288751 atoms

99.9% CPU use with 52 MPI tasks x 1 OpenMP threads

Minimization stats:
  Stopping criterion = energy tolerance
  Energy initial, next-to-last, final = 
     -1152448.63160734  -1152448.63362524  -1152448.63362524
  Force two-norm initial, final = 0.17958865 0.00026856777
  Force max component initial, final = 0.15165893 5.7747060e-05
  Final line search alpha, max atom move = 1.0000000 5.7747060e-05
  Iterations, force evaluations = 153 306

MPI task timing breakdown:
Section |  min time  |  avg time  |  max time  |%varavg| %total
---------------------------------------------------------------
Pair    | 0.86759    | 2.446      | 3.2049     |  43.4 | 72.94
Neigh   | 0          | 0          | 0          |   0.0 |  0.00
Comm    | 0.041437   | 0.54164    | 1.7192     |  66.1 | 16.15
Output  | 0          | 0          | 0          |   0.0 |  0.00
Modify  | 5.2849e-05 | 0.0051167  | 0.010808   |   3.3 |  0.15
Other   |            | 0.3608     |            |       | 10.76

Nlocal:        5552.90 ave        7867 max           0 min
Histogram: 4 2 2 0 2 6 4 0 14 18
Nghost:        6213.77 ave        8771 max         412 min
Histogram: 4 0 4 0 8 0 4 5 7 20
Neighs:       158427.0 ave      229096 max           0 min
Histogram: 4 2 2 0 4 4 4 4 10 18

Total # of neighbors = 8238199
Ave neighs/atom = 28.530461
Neighbor list builds = 0
Dangerous builds = 0
The dot product: -1.86824107667722e-08
Setting atom values ...
  1 settings made for x
  1 settings made for y
  1 settings made for z
Setting up cg style minimization ...
  Unit style    : metal
  Current step  : 6696
Per MPI rank memory allocation (min/avg/max) = 5.465 | 6.344 | 6.728 Mbytes
Step PotEng KinEng TotEng v_fx v_fy v_fz 
    6696   -1152448.6            0   -1152448.6  0.009416956 -0.018845751  0.024809174 
    6902   -1152448.6            0   -1152448.6 9.2728901e-06 -2.4098558e-05 2.9897343e-05 
Loop time of 4.48924 on 52 procs for 206 steps with 288751 atoms

99.9% CPU use with 52 MPI tasks x 1 OpenMP threads

Minimization stats:
  Stopping criterion = linesearch alpha is zero
  Energy initial, next-to-last, final = 
     -1152448.59291579  -1152448.59508878  -1152448.59508878
  Force two-norm initial, final = 0.17778761 0.00012370692
  Force max component initial, final = 0.14901329 2.9897343e-05
  Final line search alpha, max atom move = 0.5 1.4948671e-05
  Iterations, force evaluations = 206 413

MPI task timing breakdown:
Section |  min time  |  avg time  |  max time  |%varavg| %total
---------------------------------------------------------------
Pair    | 1.172      | 3.2869     | 4.3127     |  50.2 | 73.22
Neigh   | 0          | 0          | 0          |   0.0 |  0.00
Comm    | 0.055163   | 0.72182    | 2.3081     |  77.1 | 16.08
Output  | 0          | 0          | 0          |   0.0 |  0.00
Modify  | 7.1681e-05 | 0.0068841  | 0.014745   |   3.9 |  0.15
Other   |            | 0.4737     |            |       | 10.55

Nlocal:        5552.90 ave        7867 max           0 min
Histogram: 4 2 2 0 2 6 4 0 14 18
Nghost:        6213.85 ave        8771 max         412 min
Histogram: 4 0 4 0 8 0 4 5 7 20
Neighs:       158427.0 ave      229096 max           0 min
Histogram: 4 2 2 0 4 4 4 4 10 18

Total # of neighbors = 8238205
Ave neighs/atom = 28.530481
Neighbor list builds = 0
Dangerous builds = 0
The dot product: 1.2478327061698e-08
Setting atom values ...
  1 settings made for x
  1 settings made for y
  1 settings made for z
Setting up cg style minimization ...
  Unit style    : metal
  Current step  : 6902
Per MPI rank memory allocation (min/avg/max) = 5.465 | 6.344 | 6.728 Mbytes
Step PotEng KinEng TotEng v_fx v_fy v_fz 
    6902   -1152448.6            0   -1152448.6   0.01144938 -0.018634075  0.025979411 
    7000   -1152448.6            0   -1152448.6 0.00029429928 -0.00063853972 0.0008251389 
    7142   -1152448.6            0   -1152448.6 -4.0049085e-06 9.0989825e-06 -1.1632609e-05 
Loop time of 5.23625 on 52 procs for 240 steps with 288751 atoms

99.9% CPU use with 52 MPI tasks x 1 OpenMP threads

Minimization stats:
  Stopping criterion = linesearch alpha is zero
  Energy initial, next-to-last, final = 
     -1152448.55620703  -1152448.56859174  -1152448.56859174
  Force two-norm initial, final = 0.18588694 0.00010036219
  Force max component initial, final = 0.1465583 1.1632609e-05
  Final line search alpha, max atom move = 0.5 5.8163047e-06
  Iterations, force evaluations = 240 481

MPI task timing breakdown:
Section |  min time  |  avg time  |  max time  |%varavg| %total
---------------------------------------------------------------
Pair    | 1.3671     | 3.8335     | 5.0253     |  54.3 | 73.21
Neigh   | 1.9286e-05 | 0.005749   | 0.0085818  |   3.2 |  0.11
Comm    | 0.064909   | 0.85238    | 2.7367     |  82.7 | 16.28
Output  | 0.00011896 | 0.00012356 | 0.00029313 |   0.0 |  0.00
Modify  | 7.454e-05  | 0.0080548  | 0.01703    |   4.2 |  0.15
Other   |            | 0.5365     |            |       | 10.25

Nlocal:        5552.90 ave        7867 max           0 min
Histogram: 4 2 2 0 2 6 4 0 14 18
Nghost:        6213.85 ave        8771 max         412 min
Histogram: 4 0 4 0 8 0 4 5 7 20
Neighs:       158427.0 ave      229092 max           0 min
Histogram: 4 2 2 0 4 4 4 4 10 18

Total # of neighbors = 8238192
Ave neighs/atom = 28.530436
Neighbor list builds = 1
Dangerous builds = 0
The dot product: 2.1715515684362e-07
Setting atom values ...
  1 settings made for x
  1 settings made for y
  1 settings made for z
Setting up cg style minimization ...
  Unit style    : metal
  Current step  : 7142
Per MPI rank memory allocation (min/avg/max) = 5.465 | 6.344 | 6.728 Mbytes
Step PotEng KinEng TotEng v_fx v_fy v_fz 
    7142   -1152448.5            0   -1152448.5  0.005326115 -0.014123406  0.016822325 
    7381   -1152448.5            0   -1152448.5 1.3778734e-05 -3.3880201e-05 4.1001226e-05 
Loop time of 5.23352 on 52 procs for 239 steps with 288751 atoms

99.9% CPU use with 52 MPI tasks x 1 OpenMP threads

Minimization stats:
  Stopping criterion = linesearch alpha is zero
  Energy initial, next-to-last, final = 
[...]
Modify  | 0.00011223 | 0.0089712  | 0.018975   |   4.4 |  0.15
Other   |            | 0.6476     |            |       | 11.05

Nlocal:        5552.90 ave        7913 max           0 min
Histogram: 4 2 2 0 2 6 4 1 14 17
Nghost:        6213.54 ave        8769 max         412 min
Histogram: 4 0 4 0 8 0 4 5 7 20
Neighs:       158427.0 ave      230717 max           0 min
Histogram: 4 2 2 0 5 3 4 4 12 16

Total # of neighbors = 8238184
Ave neighs/atom = 28.530409
Neighbor list builds = 0
Dangerous builds = 0
The dot product: -1.4650535125488e-07
Setting atom values ...
  1 settings made for x
  1 settings made for y
  1 settings made for z
Setting up cg style minimization ...
  Unit style    : metal
  Current step  : 6081
Per MPI rank memory allocation (min/avg/max) = 5.465 | 6.344 | 6.728 Mbytes
Step PotEng KinEng TotEng v_fx v_fy v_fz 
    6081   -1152449.3            0   -1152449.3 -0.025236072  0.027878104 0.0066250235 
    6182   -1152449.3            0   -1152449.3 1.4430206e-05 2.3589355e-06 -3.5108376e-05 
Loop time of 2.18693 on 52 procs for 101 steps with 288751 atoms

99.9% CPU use with 52 MPI tasks x 1 OpenMP threads

Minimization stats:
  Stopping criterion = energy tolerance
  Energy initial, next-to-last, final = 
      -1152449.2518303   -1152449.2532736   -1152449.2532736
  Force two-norm initial, final = 0.15140006 0.00016861905
  Force max component initial, final = 0.063837938 3.7888608e-05
  Final line search alpha, max atom move = 1.0000000 3.7888608e-05
  Iterations, force evaluations = 101 202

MPI task timing breakdown:
Section |  min time  |  avg time  |  max time  |%varavg| %total
---------------------------------------------------------------
Pair    | 0.57357    | 1.6071     | 2.0998     |  35.1 | 73.49
Neigh   | 0          | 0          | 0          |   0.0 |  0.00
Comm    | 0.025966   | 0.35183    | 1.1302     |  54.1 | 16.09
Output  | 0          | 0          | 0          |   0.0 |  0.00
Modify  | 4.2002e-05 | 0.0033897  | 0.0071621  |   2.7 |  0.15
Other   |            | 0.2246     |            |       | 10.27

Nlocal:        5552.90 ave        7909 max           0 min
Histogram: 4 2 2 0 2 6 4 0 15 17
Nghost:        6213.54 ave        8769 max         412 min
Histogram: 4 0 4 0 8 0 4 5 7 20
Neighs:       158427.0 ave      230568 max           0 min
Histogram: 4 2 2 0 5 3 4 4 12 16

Total # of neighbors = 8238184
Ave neighs/atom = 28.530409
Neighbor list builds = 0
Dangerous builds = 0
The dot product: 1.21546164611046e-07
Setting atom values ...
  1 settings made for x
  1 settings made for y
  1 settings made for z
Setting up cg style minimization ...
  Unit style    : metal
  Current step  : 6182
Per MPI rank memory allocation (min/avg/max) = 5.465 | 6.344 | 6.728 Mbytes
Step PotEng KinEng TotEng v_fx v_fy v_fz 
    6182   -1152449.3            0   -1152449.3 -0.038122199  0.038070384  0.015891695 
    6289   -1152449.3            0   -1152449.3 -4.9308082e-06 -1.5842518e-05 3.8719566e-05 
Loop time of 2.32297 on 52 procs for 107 steps with 288751 atoms

99.9% CPU use with 52 MPI tasks x 1 OpenMP threads

Minimization stats:
  Stopping criterion = linesearch alpha is zero
  Energy initial, next-to-last, final = 
     -1152449.25522127  -1152449.25642195  -1152449.25642195
  Force two-norm initial, final = 0.15326042 0.00014375381
  Force max component initial, final = 0.064069125 3.8719566e-05
  Final line search alpha, max atom move = 0.5 1.9359783e-05
  Iterations, force evaluations = 107 215

MPI task timing breakdown:
Section |  min time  |  avg time  |  max time  |%varavg| %total
---------------------------------------------------------------
Pair    | 0.60782    | 1.7074     | 2.2324     |  36.2 | 73.50
Neigh   | 0          | 0          | 0          |   0.0 |  0.00
Comm    | 0.027195   | 0.37194    | 1.1967     |  56.0 | 16.01
Output  | 0          | 0          | 0          |   0.0 |  0.00
Modify  | 4.6337e-05 | 0.0035986  | 0.0076824  |   2.8 |  0.15
Other   |            | 0.2401     |            |       | 10.33

Nlocal:        5552.90 ave        7909 max           0 min
Histogram: 4 2 2 0 2 6 4 0 15 17
Nghost:        6213.54 ave        8769 max         412 min
Histogram: 4 0 4 0 8 0 4 5 7 20
Neighs:       158427.0 ave      230566 max           0 min
Histogram: 4 2 2 0 5 3 4 4 12 16

Total # of neighbors = 8238182
Ave neighs/atom = 28.530402
Neighbor list builds = 0
Dangerous builds = 0
The dot product: -1.72779518761073e-07
Setting atom values ...
  1 settings made for x
  1 settings made for y
  1 settings made for z
Setting up cg style minimization ...
  Unit style    : metal
  Current step  : 6289
Per MPI rank memory allocation (min/avg/max) = 5.465 | 6.344 | 6.728 Mbytes
Step PotEng KinEng TotEng v_fx v_fy v_fz 
    6289   -1152449.3            0   -1152449.3 -0.046287143  0.043631606  0.021409278 
    6521   -1152449.3            0   -1152449.3 -4.4987735e-06 -1.6081417e-05 3.8930456e-05 
Loop time of 5.06301 on 52 procs for 232 steps with 288751 atoms

99.9% CPU use with 52 MPI tasks x 1 OpenMP threads

Minimization stats:
  Stopping criterion = linesearch alpha is zero
  Energy initial, next-to-last, final = 
     -1152449.25767713  -1152449.30134765  -1152449.30134765
  Force two-norm initial, final = 0.16057722 0.00017455035
  Force max component initial, final = 0.063753029 3.8930456e-05
  Final line search alpha, max atom move = 0.25 9.7326140e-06
  Iterations, force evaluations = 232 466

MPI task timing breakdown:
Section |  min time  |  avg time  |  max time  |%varavg| %total
---------------------------------------------------------------
Pair    | 1.324      | 3.7051     | 4.8377     |  53.4 | 73.18
Neigh   | 1.8158e-05 | 0.005726   | 0.0084146  |   3.2 |  0.11
Comm    | 0.063795   | 0.81542    | 2.6033     |  81.8 | 16.11
Output  | 0          | 0          | 0          |   0.0 |  0.00
Modify  | 8.937e-05  | 0.0078029  | 0.016471   |   4.1 |  0.15
Other   |            | 0.5289     |            |       | 10.45

Nlocal:        5552.90 ave        7911 max           0 min
Histogram: 4 2 2 0 2 6 4 0 15 17
Nghost:        6213.54 ave        8769 max         412 min
Histogram: 4 0 4 0 8 0 4 5 7 20
Neighs:       158427.0 ave      230626 max           0 min
Histogram: 4 2 2 0 5 3 4 4 12 16

Total # of neighbors = 8238190
Ave neighs/atom = 28.530429
Neighbor list builds = 1
Dangerous builds = 0
The dot product: -2.30461033404142e-06
Setting atom values ...
  1 settings made for x
  1 settings made for y
  1 settings made for z
Setting up cg style minimization ...
  Unit style    : metal
  Current step  : 6521
Per MPI rank memory allocation (min/avg/max) = 5.465 | 6.344 | 6.728 Mbytes
Step PotEng KinEng TotEng v_fx v_fy v_fz 
    6521   -1152449.3            0   -1152449.3  0.030089451 -0.048337692   0.05708269 
    6701   -1152449.3            0   -1152449.3 -2.4606801e-05 3.0248809e-06 4.387342e-05 
Loop time of 3.88384 on 52 procs for 180 steps with 288751 atoms

99.9% CPU use with 52 MPI tasks x 1 OpenMP threads

Minimization stats:
  Stopping criterion = energy tolerance
  Energy initial, next-to-last, final = 
     -1152449.31218828  -1152449.31430594  -1152449.31430594
  Force two-norm initial, final = 0.15953915 0.00021797194
  Force max component initial, final = 0.059964339 5.8272455e-05
  Final line search alpha, max atom move = 1.0000000 5.8272455e-05
  Iterations, force evaluations = 180 360

MPI task timing breakdown:
Section |  min time  |  avg time  |  max time  |%varavg| %total
---------------------------------------------------------------
Pair    | 1.0188     | 2.857      | 3.7322     |  46.8 | 73.56
Neigh   | 0          | 0          | 0          |   0.0 |  0.00
Comm    | 0.045279   | 0.62721    | 2.0309     |  72.5 | 16.15
Output  | 0          | 0          | 0          |   0.0 |  0.00
Modify  | 7.0943e-05 | 0.0060256  | 0.012736   |   3.6 |  0.16
Other   |            | 0.3936     |            |       | 10.13

Nlocal:        5552.90 ave        7894 max           0 min
Histogram: 4 2 2 0 2 6 4 0 14 18
Nghost:        6213.58 ave        8769 max         412 min
Histogram: 4 0 4 0 8 0 4 5 7 20
Neighs:       158427.0 ave      230049 max           0 min
Histogram: 4 2 2 0 5 3 4 4 12 16

Total # of neighbors = 8238197
Ave neighs/atom = 28.530454
Neighbor list builds = 0
Dangerous builds = 0
The dot product: -1.32674942649037e-07
Setting atom values ...
  1 settings made for x
  1 settings made for y
  1 settings made for z
Setting up cg style minimization ...
  Unit style    : metal
  Current step  : 6701
Per MPI rank memory allocation (min/avg/max) = 5.465 | 6.344 | 6.728 Mbytes
Step PotEng KinEng TotEng v_fx v_fy v_fz 
    6701   -1152449.3            0   -1152449.3 -0.057949496  0.039776459  0.027785943 
    6835   -1152449.3            0   -1152449.3 3.2665833e-05 -1.3890575e-05 -3.574638e-05 
Loop time of 2.94306 on 52 procs for 134 steps with 288751 atoms

99.9% CPU use with 52 MPI tasks x 1 OpenMP threads

Minimization stats:
  Stopping criterion = linesearch alpha is zero
  Energy initial, next-to-last, final = 
     -1152449.32319644  -1152449.32444056  -1152449.32444056
  Force two-norm initial, final = 0.1617064 0.00024045131
  Force max component initial, final = 0.059812742 3.5746380e-05
  Final line search alpha, max atom move = 0.125 4.4682975e-06
  Iterations, force evaluations = 134 273

MPI task timing breakdown:
Section |  min time  |  avg time  |  max time  |%varavg| %total
---------------------------------------------------------------
Pair    | 0.77477    | 2.1689     | 2.8291     |  40.8 | 73.69
Neigh   | 0          | 0          | 0          |   0.0 |  0.00
Comm    | 0.034968   | 0.47237    | 1.5132     |  63.0 | 16.05
Output  | 0          | 0          | 0          |   0.0 |  0.00
Modify  | 6.227e-05  | 0.0045834  | 0.0098288  |   3.2 |  0.16
Other   |            | 0.2972     |            |       | 10.10

Nlocal:        5552.90 ave        7892 max           0 min
Histogram: 4 2 2 0 2 6 4 0 14 18
Nghost:        6213.62 ave        8769 max         412 min
Histogram: 4 0 4 0 8 0 4 5 7 20
Neighs:       158427.0 ave      229987 max           0 min
Histogram: 4 2 2 0 5 3 4 4 12 16

Total # of neighbors = 8238196
Ave neighs/atom = 28.530450
Neighbor list builds = 0
Dangerous builds = 0
The dot product: -2.65169841864351e-07
Setting atom values ...
  1 settings made for x
  1 settings made for y
  1 settings made for z
Setting up cg style minimization ...
  Unit style    : metal
  Current step  : 6835
Per MPI rank memory allocation (min/avg/max) = 5.465 | 6.344 | 6.728 Mbytes
Step PotEng KinEng TotEng v_fx v_fy v_fz 
    6835   -1152449.3            0   -1152449.3  -0.04708384  0.027905327  0.031338299 
    6987   -1152449.3            0   -1152449.3 -3.275865e-05 1.2620314e-06 6.464285e-05 
Loop time of 3.29692 on 52 procs for 152 steps with 288751 atoms

99.9% CPU use with 52 MPI tasks x 1 OpenMP threads

Minimization stats:
  Stopping criterion = energy tolerance
  Energy initial, next-to-last, final = 
     -1152449.33175637  -1152449.33294979  -1152449.33294979
  Force two-norm initial, final = 0.15710794 0.00032566436
  Force max component initial, final = 0.058648645 7.6098356e-05
  Final line search alpha, max atom move = 1.0000000 7.6098356e-05
  Iterations, force evaluations = 152 304

MPI task timing breakdown:
Section |  min time  |  avg time  |  max time  |%varavg| %total
---------------------------------------------------------------
Pair    | 0.85971    | 2.4168     | 3.1597     |  43.0 | 73.30
Neigh   | 0          | 0          | 0          |   0.0 |  0.00
Comm    | 0.038607   | 0.53219    | 1.6979     |  66.2 | 16.14
Output  | 0          | 0          | 0          |   0.0 |  0.00
Modify  | 6.2487e-05 | 0.0050808  | 0.010711   |   3.3 |  0.15
Other   |            | 0.3429     |            |       | 10.40

Nlocal:        5552.90 ave        7900 max           0 min
Histogram: 4 2 2 0 2 6 4 0 14 18
Nghost:        6213.62 ave        8769 max         412 min
Histogram: 4 0 4 0 8 0 4 5 7 20
Neighs:       158427.0 ave      230266 max           0 min
Histogram: 4 2 2 0 5 3 4 4 12 16

Total # of neighbors = 8238197
Ave neighs/atom = 28.530454
Neighbor list builds = 0
Dangerous builds = 0
The dot product: 1.96052836779212e-07
Setting atom values ...
  1 settings made for x
  1 settings made for y
  1 settings made for z
Setting up cg style minimization ...
  Unit style    : metal
  Current step  : 6987
Per MPI rank memory allocation (min/avg/max) = 5.465 | 6.344 | 6.728 Mbytes
Step PotEng KinEng TotEng v_fx v_fy v_fz 
    6987   -1152449.3            0   -1152449.3 -0.050067472  0.030367311  0.030811476 
    7000   -1152449.3            0   -1152449.3 0.00052433707 0.00020640614 -0.0015542803 
    7164   -1152449.3            0   -1152449.3 1.1555694e-06 -1.7397878e-05 3.8501028e-05 
Loop time of 3.85174 on 52 procs for 177 steps with 288751 atoms

99.9% CPU use with 52 MPI tasks x 1 OpenMP threads

Minimization stats:
  Stopping criterion = linesearch alpha is zero
  Energy initial, next-to-last, final = 
     -1152449.33863561  -1152449.33985684  -1152449.33985684
  Force two-norm initial, final = 0.15911443 0.00015970078
  Force max component initial, final = 0.057654345 3.8501028e-05
  Final line search alpha, max atom move = 0.25 9.6252571e-06
  Iterations, force evaluations = 177 357

MPI task timing breakdown:
Section |  min time  |  avg time  |  max time  |%varavg| %total
---------------------------------------------------------------
Pair    | 1.0089     | 2.8334     | 3.7008     |  46.7 | 73.56
Neigh   | 0          | 0          | 0          |   0.0 |  0.00
Comm    | 0.045389   | 0.62417    | 2.0094     |  72.0 | 16.20
Output  | 0.00011881 | 0.00012309 | 0.00028633 |   0.0 |  0.00
Modify  | 7.1457e-05 | 0.0059562  | 0.012584   |   3.6 |  0.15
Other   |            | 0.3881     |            |       | 10.08

Nlocal:        5552.90 ave        7902 max           0 min
Histogram: 4 2 2 0 2 6 4 0 15 17
Nghost:        6213.62 ave        8769 max         412 min
Histogram: 4 0 4 0 8 0 4 5 7 20
Neighs:       158427.0 ave      230336 max           0 min
Histogram: 4 2 2 0 5 3 4 4 12 16

Total # of neighbors = 8238196
Ave neighs/atom = 28.530450
Neighbor list builds = 0
Dangerous builds = 0
The dot product: 3.53035902029855e-08
Setting atom values ...
  1 settings made for x
  1 settings made for y
  1 settings made for z
Setting up cg style minimization ...
  Unit style    : metal
  Current step  : 7164
Per MPI rank memory allocation (min/avg/max) = 5.465 | 6.344 | 6.728 Mbytes
Step PotEng KinEng TotEng v_fx v_fy v_fz 
    7164   -1152449.3            0   -1152449.3 -0.050322636  0.030583789  0.029815027 
    7293   -1152449.3            0   -1152449.3 -2.4721231e-05 3.5735771e-05 -3.3794129e-05 
Loop time of 2.79387 on 52 procs for 129 steps with 288751 atoms

99.9% CPU use with 52 MPI tasks x 1 OpenMP threads

Minimization stats:
  Stopping criterion = energy tolerance
  Energy initial, next-to-last, final = 
     -1152449.34393223  -1152449.34516228  -1152449.34516228
  Force two-norm initial, final = 0.15921924 0.00030580966
  Force max component initial, final = 0.057710405 5.7283719e-05
  Final line search alpha, max atom move = 1.0000000 5.7283719e-05
  Iterations, force evaluations = 129 258

MPI task timing breakdown:
Section |  min time  |  avg time  |  max time  |%varavg| %total
---------------------------------------------------------------
Pair    | 0.73094    | 2.0499     | 2.6855     |  39.6 | 73.37
Neigh   | 0          | 0          | 0          |   0.0 |  0.00
Comm    | 0.032589   | 0.44737    | 1.4408     |  61.3 | 16.01
Output  | 0          | 0          | 0          |   0.0 |  0.00
Modify  | 5.4571e-05 | 0.0043082  | 0.0091286  |   3.1 |  0.15
Other   |            | 0.2923     |            |       | 10.46

Nlocal:        5552.90 ave        7908 max           0 min
Histogram: 4 2 2 0 2 6 4 0 15 17
Nghost:        6213.54 ave        8769 max         412 min
Histogram: 4 0 4 0 8 0 4 5 7 20
Neighs:       158427.0 ave      230546 max           0 min
Histogram: 4 2 2 0 5 3 4 4 12 16

Total # of neighbors = 8238193
Ave neighs/atom = 28.530440
Neighbor list builds = 0
Dangerous builds = 0
The dot product: 7.84048701920834e-08
Setting atom values ...
  1 settings made for x
  1 settings made for y
  1 settings made for z
Setting up cg style minimization ...
  Unit style    : metal
  Current step  : 7293
Per MPI rank memory allocation (min/avg/max) = 5.465 | 6.344 | 6.728 Mbytes
Step PotEng KinEng TotEng v_fx v_fy v_fz 
    7293   -1152449.3            0   -1152449.3 -0.050189312  0.030710113  0.028279053 
    7470   -1152449.3            0   -1152449.3 -2.6588546e-06 7.1841923e-06 -1.1450095e-05 
Loop time of 3.82983 on 52 procs for 177 steps with 288751 atoms

99.9% CPU use with 52 MPI tasks x 1 OpenMP threads

Minimization stats:
  Stopping criterion = energy tolerance
  Energy initial, next-to-last, final = 
     -1152449.34763828  -1152449.34887242  -1152449.34887242
  Force two-norm initial, final = 0.15881983 0.00015129038
  Force max component initial, final = 0.059271233 1.4538319e-05
  Final line search alpha, max atom move = 1.0000000 1.4538319e-05
  Iterations, force evaluations = 177 354

MPI task timing breakdown:
Section |  min time  |  avg time  |  max time  |%varavg| %total
---------------------------------------------------------------
Pair    | 1.0022     | 2.8148     | 3.6807     |  46.6 | 73.50
Neigh   | 0          | 0          | 0          |   0.0 |  0.00
Comm    | 0.045209   | 0.61564    | 1.9851     |  71.7 | 16.07
Output  | 0          | 0          | 0          |   0.0 |  0.00
Modify  | 7.6179e-05 | 0.0059232  | 0.012484   |   3.6 |  0.15
Other   |            | 0.3935     |            |       | 10.27

Nlocal:        5552.90 ave        7910 max           0 min
Histogram: 4 2 2 0 2 6 4 0 15 17
Nghost:        6213.54 ave        8769 max         412 min
Histogram: 4 0 4 0 8 0 4 5 7 20
Neighs:       158427.0 ave      230597 max           0 min
Histogram: 4 2 2 0 5 3 4 4 12 16

Total # of neighbors = 8238189
Ave neighs/atom = 28.530426
Neighbor list builds = 0
Dangerous builds = 0
The dot product: 5.27308424666527e-11
Setting up cg style minimization ...
  Unit style    : metal
  Current step  : 7470
Per MPI rank memory allocation (min/avg/max) = 5.465 | 6.344 | 6.728 Mbytes
Step PotEng KinEng TotEng v_fx v_fy v_fz 
    7470   -1152449.3            0   -1152449.3  0.089998109   0.10542993  0.045235191 
    7679   -1152449.4            0   -1152449.4 -1.3280139e-05 1.7299204e-06 4.1274874e-06 
Loop time of 4.50654 on 52 procs for 209 steps with 288751 atoms

99.9% CPU use with 52 MPI tasks x 1 OpenMP threads

Minimization stats:
  Stopping criterion = energy tolerance
  Energy initial, next-to-last, final = 
     -1152449.34887242  -1152449.35157345  -1152449.35157345
  Force two-norm initial, final = 0.14581281 0.00010714942
  Force max component initial, final = 0.10542993 1.7949908e-05
  Final line search alpha, max atom move = 1.0000000 1.7949908e-05
  Iterations, force evaluations = 209 418

MPI task timing breakdown:
Section |  min time  |  avg time  |  max time  |%varavg| %total
---------------------------------------------------------------
Pair    | 1.1819     | 3.315      | 4.3337     |  50.3 | 73.56
Neigh   | 0          | 0          | 0          |   0.0 |  0.00
Comm    | 0.053243   | 0.72133    | 2.3209     |  78.0 | 16.01
Output  | 0          | 0          | 0          |   0.0 |  0.00
Modify  | 6.8349e-05 | 0.0045638  | 0.01159    |   4.2 |  0.10
Other   |            | 0.4656     |            |       | 10.33

Nlocal:        5552.90 ave        7913 max           0 min
Histogram: 4 2 2 0 2 6 4 1 14 17
Nghost:        6213.54 ave        8769 max         412 min
Histogram: 4 0 4 0 8 0 4 5 7 20
Neighs:       158427.0 ave      230675 max           0 min
Histogram: 4 2 2 0 5 3 4 4 12 16

Total # of neighbors = 8238189
Ave neighs/atom = 28.530426
Neighbor list builds = 0
Dangerous builds = 0
