LAMMPS (29 Oct 2020)
OMP_NUM_THREADS environment is not set. Defaulting to 1 thread. (../comm.cpp:94)
  using 1 OpenMP thread(s) per MPI task
OMP_NUM_THREADS environment is not set. Defaulting to 1 thread. (../comm.cpp:94)
  using 1 OpenMP thread(s) per MPI task
Reading data file ...
  orthogonal box = (-122.39241 -121.13707 -37.090501) to (122.39241 121.13707 37.090501)
  13 by 4 by 2 MPI processor grid
  reading atoms ...
  288751 atoms
  read_data CPU = 0.383 seconds
199981 atoms in group inner
88770 atoms in group outer
1 atoms in group carbon
Neighbor list info ...
  update every 1 steps, delay 0 steps, check yes
  max neighbors/atom: 2000, page size: 100000
  master list distance cutoff = 5.6
  ghost atom cutoff = 5.6
  binsize = 2.8, bins = 88 87 27
  1 neighbor lists, perpetual/occasional/extra = 1 0 0
  (1) pair eam/alloy, perpetual
      attributes: half, newton on
      pair build: half/bin/atomonly/newton
      stencil: half/bin/3d/newton
      bin: standard
Setting up cg style minimization ...
  Unit style    : metal
  Current step  : 0
Per MPI rank memory allocation (min/avg/max) = 5.441 | 5.816 | 6.074 Mbytes
Step v_fx v_fy v_fz PotEng KinEng TotEng 
       0   -1.6820193  -0.75155611    2.5216657   -1152447.8            0   -1152447.8 
     230 2.1196657e-06 -7.1089121e-08 -1.1444893e-06   -1152449.5            0   -1152449.5 
Loop time of 2.69184 on 104 procs for 230 steps with 288751 atoms

99.8% CPU use with 104 MPI tasks x 1 OpenMP threads

Minimization stats:
  Stopping criterion = energy tolerance
  Energy initial, next-to-last, final = 
     -1152447.78452015  -1152449.45035286  -1152449.45035286
  Force two-norm initial, final = 10.140690 6.7569735e-06
  Force max component initial, final = 6.1663636 2.1196657e-06
  Final line search alpha, max atom move = 1.0000000 2.1196657e-06
  Iterations, force evaluations = 230 459

MPI task timing breakdown:
Section |  min time  |  avg time  |  max time  |%varavg| %total
---------------------------------------------------------------
Pair    | 0.72711    | 1.934      | 2.5063     |  36.9 | 71.85
Neigh   | 3.1619e-05 | 0.008834   | 0.01285    |   3.9 |  0.33
Comm    | 0.048559   | 0.4349     | 1.3081     |  55.3 | 16.16
Output  | 0          | 0          | 0          |   0.0 |  0.00
Modify  | 2.5264e-05 | 0.0024655  | 0.0063117  |   3.1 |  0.09
Other   |            | 0.3116     |            |       | 11.58

Nlocal:        2776.45 ave        3958 max           0 min
Histogram: 8 4 4 0 4 12 8 2 28 34
Nghost:        3879.01 ave        5424 max         232 min
Histogram: 8 0 8 0 16 0 8 8 16 40
Neighs:        79213.5 ave      115362 max           0 min
Histogram: 8 4 4 0 10 6 8 8 24 32

Total # of neighbors = 8238207
Ave neighs/atom = 28.530488
Neighbor list builds = 3
Dangerous builds = 0
Setting atom values ...
  1 settings made for x
  1 settings made for y
  1 settings made for z
Setting up cg style minimization ...
  Unit style    : metal
  Current step  : 230
Per MPI rank memory allocation (min/avg/max) = 5.441 | 5.816 | 6.074 Mbytes
Step PotEng KinEng TotEng v_fx v_fy v_fz 
     230   -1152449.4            0   -1152449.4 0.00026265315 -0.0097093212 -0.0087191964 
     391   -1152449.5            0   -1152449.5 -1.7847031e-08 5.2830365e-06 4.5474754e-06 
Loop time of 1.87698 on 104 procs for 161 steps with 288751 atoms

99.9% CPU use with 104 MPI tasks x 1 OpenMP threads

Minimization stats:
  Stopping criterion = energy tolerance
  Energy initial, next-to-last, final = 
     -1152449.44959017  -1152449.45008251  -1152449.45008251
  Force two-norm initial, final = 0.10180773 0.0001693517
  Force max component initial, final = 0.051605709 1.5789500e-05
  Final line search alpha, max atom move = 1.0000000 1.5789500e-05
  Iterations, force evaluations = 161 322

MPI task timing breakdown:
Section |  min time  |  avg time  |  max time  |%varavg| %total
---------------------------------------------------------------
Pair    | 0.49463    | 1.3598     | 1.7653     |  31.3 | 72.44
Neigh   | 0          | 0          | 0          |   0.0 |  0.00
Comm    | 0.030311   | 0.30706    | 0.91881    |  46.0 | 16.36
Output  | 0          | 0          | 0          |   0.0 |  0.00
Modify  | 1.9612e-05 | 0.0026608  | 0.0058716  |   2.4 |  0.14
Other   |            | 0.2075     |            |       | 11.06

Nlocal:        2776.45 ave        3960 max           0 min
Histogram: 8 4 4 0 4 12 8 2 28 34
Nghost:        3879.01 ave        5424 max         232 min
Histogram: 8 0 8 0 16 0 8 8 16 40
Neighs:        79213.4 ave      115416 max           0 min
Histogram: 8 4 4 0 10 6 8 8 24 32

Total # of neighbors = 8238197
Ave neighs/atom = 28.530454
Neighbor list builds = 0
Dangerous builds = 0
Setting atom values ...
  1 settings made for x
  1 settings made for y
  1 settings made for z
Setting up cg style minimization ...
  Unit style    : metal
  Current step  : 391
Per MPI rank memory allocation (min/avg/max) = 5.441 | 5.816 | 6.074 Mbytes
Step PotEng KinEng TotEng v_fx v_fy v_fz 
     391   -1152449.4            0   -1152449.4 -0.00049882436 -0.020421808  -0.01856431 
     570   -1152449.4            0   -1152449.4 -1.6733435e-05 -3.8179392e-07 3.0220606e-05 
Loop time of 2.08961 on 104 procs for 179 steps with 288751 atoms

99.9% CPU use with 104 MPI tasks x 1 OpenMP threads

Minimization stats:
  Stopping criterion = energy tolerance
  Energy initial, next-to-last, final = 
      -1152449.4466512  -1152449.44825748  -1152449.44825748
  Force two-norm initial, final = 0.1851714 0.00017649392
  Force max component initial, final = 0.093874365 4.3493925e-05
  Final line search alpha, max atom move = 1.0000000 4.3493925e-05
  Iterations, force evaluations = 179 358

MPI task timing breakdown:
Section |  min time  |  avg time  |  max time  |%varavg| %total
---------------------------------------------------------------
Pair    | 0.55299    | 1.503      | 1.9562     |  32.9 | 71.93
Neigh   | 0          | 0          | 0          |   0.0 |  0.00
Comm    | 0.033192   | 0.33855    | 1.0191     |  49.0 | 16.20
Output  | 0          | 0          | 0          |   0.0 |  0.00
Modify  | 2.1563e-05 | 0.0029449  | 0.0062805  |   2.6 |  0.14
Other   |            | 0.2451     |            |       | 11.73

Nlocal:        2776.45 ave        3960 max           0 min
Histogram: 8 4 4 0 4 12 8 2 28 34
Nghost:        3879.01 ave        5424 max         232 min
Histogram: 8 0 8 0 16 0 8 8 16 40
Neighs:        79213.4 ave      115416 max           0 min
Histogram: 8 4 4 0 10 6 8 8 24 32

Total # of neighbors = 8238198
Ave neighs/atom = 28.530457
Neighbor list builds = 0
Dangerous builds = 0
The dot product: -6.35910001512804e-08
Setting atom values ...
  1 settings made for x
  1 settings made for y
  1 settings made for z
Setting up cg style minimization ...
  Unit style    : metal
  Current step  : 570
Per MPI rank memory allocation (min/avg/max) = 5.441 | 5.816 | 6.074 Mbytes
Step PotEng KinEng TotEng v_fx v_fy v_fz 
     570   -1152449.4            0   -1152449.4 -0.002272501 -0.026607804 -0.024854886 
     694   -1152449.4            0   -1152449.4 1.3463137e-05 3.229627e-07 -2.8612703e-05 
Loop time of 1.45629 on 104 procs for 124 steps with 288751 atoms

99.9% CPU use with 104 MPI tasks x 1 OpenMP threads

Minimization stats:
  Stopping criterion = energy tolerance
  Energy initial, next-to-last, final = 
     -1152449.44328131  -1152449.44489449  -1152449.44489449
  Force two-norm initial, final = 0.18665026 0.00027083469
  Force max component initial, final = 0.092382205 3.9380015e-05
  Final line search alpha, max atom move = 1.0000000 3.9380015e-05
  Iterations, force evaluations = 124 248

MPI task timing breakdown:
Section |  min time  |  avg time  |  max time  |%varavg| %total
---------------------------------------------------------------
Pair    | 0.38016    | 1.0506     | 1.3586     |  27.4 | 72.14
Neigh   | 0          | 0          | 0          |   0.0 |  0.00
Comm    | 0.022367   | 0.23876    | 0.72621    |  40.6 | 16.39
Output  | 0          | 0          | 0          |   0.0 |  0.00
Modify  | 1.4978e-05 | 0.00205    | 0.0043691  |   2.1 |  0.14
Other   |            | 0.1649     |            |       | 11.32

Nlocal:        2776.45 ave        3959 max           0 min
Histogram: 8 4 4 0 4 12 8 2 28 34
Nghost:        3879.01 ave        5424 max         232 min
Histogram: 8 0 8 0 16 0 8 8 16 40
Neighs:        79213.4 ave      115393 max           0 min
Histogram: 8 4 4 0 10 6 8 8 24 32

Total # of neighbors = 8238196
Ave neighs/atom = 28.530450
Neighbor list builds = 0
Dangerous builds = 0
The dot product: 1.00926836003008e-07
Setting atom values ...
  1 settings made for x
  1 settings made for y
  1 settings made for z
Setting up cg style minimization ...
  Unit style    : metal
  Current step  : 694
Per MPI rank memory allocation (min/avg/max) = 5.441 | 5.816 | 6.074 Mbytes
Step PotEng KinEng TotEng v_fx v_fy v_fz 
     694   -1152449.4            0   -1152449.4 -0.0068675519 -0.031577593 -0.026949882 
     883   -1152449.4            0   -1152449.4 -6.9587931e-06 -1.7316284e-06 1.5764978e-05 
Loop time of 2.21264 on 104 procs for 189 steps with 288751 atoms

99.9% CPU use with 104 MPI tasks x 1 OpenMP threads

Minimization stats:
  Stopping criterion = energy tolerance
  Energy initial, next-to-last, final = 
     -1152449.43858242  -1152449.44020547  -1152449.44020547
  Force two-norm initial, final = 0.18714091 6.6406896e-05
  Force max component initial, final = 0.088992735 1.5764978e-05
  Final line search alpha, max atom move = 1.0000000 1.5764978e-05
  Iterations, force evaluations = 189 378

MPI task timing breakdown:
Section |  min time  |  avg time  |  max time  |%varavg| %total
---------------------------------------------------------------
Pair    | 0.58439    | 1.59       | 2.06       |  33.7 | 71.86
Neigh   | 0          | 0          | 0          |   0.0 |  0.00
Comm    | 0.032128   | 0.35704    | 1.071      |  50.0 | 16.14
Output  | 0          | 0          | 0          |   0.0 |  0.00
Modify  | 2.2169e-05 | 0.0031081  | 0.0066115  |   2.6 |  0.14
Other   |            | 0.2625     |            |       | 11.87

Nlocal:        2776.45 ave        3959 max           0 min
Histogram: 8 4 4 0 4 12 8 2 28 34
Nghost:        3879.01 ave        5426 max         232 min
Histogram: 8 0 8 0 16 0 8 8 16 40
Neighs:        79213.4 ave      115393 max           0 min
Histogram: 8 4 4 0 10 6 8 8 24 32

Total # of neighbors = 8238195
Ave neighs/atom = 28.530447
Neighbor list builds = 0
Dangerous builds = 0
The dot product: -5.91355156581449e-08
Setting atom values ...
  1 settings made for x
  1 settings made for y
  1 settings made for z
Setting up cg style minimization ...
  Unit style    : metal
  Current step  : 883
Per MPI rank memory allocation (min/avg/max) = 5.441 | 5.816 | 6.074 Mbytes
Step PotEng KinEng TotEng v_fx v_fy v_fz 
     883   -1152449.4            0   -1152449.4 -0.011278469 -0.032398148 -0.023647753 
    1000   -1152449.4            0   -1152449.4 -5.6917403e-06 6.1647076e-06  2.93827e-05 
    1046   -1152449.4            0   -1152449.4 -1.9440601e-06 -4.8916346e-07 5.2742259e-06 
Loop time of 1.89056 on 104 procs for 163 steps with 288751 atoms

99.9% CPU use with 104 MPI tasks x 1 OpenMP threads

Minimization stats:
  Stopping criterion = energy tolerance
  Energy initial, next-to-last, final = 
     -1152449.43258012  -1152449.43418101  -1152449.43418101
  Force two-norm initial, final = 0.1857158 3.0226079e-05
  Force max component initial, final = 0.084921339 5.2742259e-06
  Final line search alpha, max atom move = 1.0000000 5.2742259e-06
  Iterations, force evaluations = 163 326

MPI task timing breakdown:
Section |  min time  |  avg time  |  max time  |%varavg| %total
---------------------------------------------------------------
Pair    | 0.50095    | 1.3774     | 1.782      |  31.4 | 72.86
Neigh   | 0          | 0          | 0          |   0.0 |  0.00
Comm    | 0.030171   | 0.3087     | 0.93979    |  46.7 | 16.33
Output  | 0.00014574 | 0.00015511 | 0.00029397 |   0.0 |  0.01
Modify  | 1.9637e-05 | 0.0026833  | 0.0057464  |   2.5 |  0.14
Other   |            | 0.2016     |            |       | 10.66

Nlocal:        2776.45 ave        3959 max           0 min
Histogram: 8 4 4 0 4 12 8 2 28 34
Nghost:        3879.01 ave        5429 max         232 min
Histogram: 8 0 8 0 16 0 8 8 16 40
Neighs:        79213.4 ave      115393 max           0 min
Histogram: 8 4 4 0 10 6 8 8 24 32

Total # of neighbors = 8238197
Ave neighs/atom = 28.530454
Neighbor list builds = 0
Dangerous builds = 0
The dot product: -1.77532403995533e-08
Setting atom values ...
  1 settings made for x
  1 settings made for y
  1 settings made for z
Setting up cg style minimization ...
  Unit style    : metal
  Current step  : 1046
Per MPI rank memory allocation (min/avg/max) = 5.441 | 5.816 | 6.074 Mbytes
Step PotEng KinEng TotEng v_fx v_fy v_fz 
    1046   -1152449.4            0   -1152449.4  -0.01379117 -0.030692311  -0.01840731 
    1220   -1152449.4            0   -1152449.4 3.8427455e-06 9.269427e-07 -1.2237793e-05 
Loop time of 2.01059 on 104 procs for 174 steps with 288751 atoms

99.9% CPU use with 104 MPI tasks x 1 OpenMP threads

Minimization stats:
  Stopping criterion = energy tolerance
  Energy initial, next-to-last, final = 
     -1152449.42520769  -1152449.42677612  -1152449.42677612
  Force two-norm initial, final = 0.18367538 3.5584482e-05
  Force max component initial, final = 0.08146961 1.2237793e-05
  Final line search alpha, max atom move = 1.0000000 1.2237793e-05
  Iterations, force evaluations = 174 348

MPI task timing breakdown:
Section |  min time  |  avg time  |  max time  |%varavg| %total
---------------------------------------------------------------
Pair    | 0.53492    | 1.4592     | 1.8964     |  32.5 | 72.58
Neigh   | 0          | 0          | 0          |   0.0 |  0.00
Comm    | 0.030368   | 0.32604    | 0.98765    |  48.4 | 16.22
Output  | 0          | 0          | 0          |   0.0 |  0.00
Modify  | 2.032e-05  | 0.0028626  | 0.0061618  |   2.5 |  0.14
Other   |            | 0.2225     |            |       | 11.07

Nlocal:        2776.45 ave        3958 max           0 min
Histogram: 8 4 4 0 4 12 8 2 28 34
Nghost:        3879.01 ave        5429 max         232 min
Histogram: 8 0 8 0 16 0 8 8 16 40
Neighs:        79213.4 ave      115366 max           0 min
Histogram: 8 4 4 0 10 6 8 8 24 32

Total # of neighbors = 8238198
Ave neighs/atom = 28.530457
Neighbor list builds = 0
Dangerous builds = 0
The dot product: 3.23790481801979e-08
Setting atom values ...
  1 settings made for x
  1 settings made for y
  1 settings made for z
Setting up cg style minimization ...
  Unit style    : metal
  Current step  : 1220
Per MPI rank memory allocation (min/avg/max) = 5.441 | 5.816 | 6.074 Mbytes
Step PotEng KinEng TotEng v_fx v_fy v_fz 
    1220   -1152449.4            0   -1152449.4 -0.014466055 -0.027666091  -0.01285126 
    1379   -1152449.4            0   -1152449.4 -2.1893807e-06 7.4239727e-07 1.1201975e-05 
Loop time of 1.83876 on 104 procs for 159 steps with 288751 atoms

99.9% CPU use with 104 MPI tasks x 1 OpenMP threads

Minimization stats:
  Stopping criterion = energy tolerance
  Energy initial, next-to-last, final = 
     -1152449.41641514  -1152449.41795232  -1152449.41795232
  Force two-norm initial, final = 0.18159808 4.0210911e-05
  Force max component initial, final = 0.079064962 1.1201975e-05
  Final line search alpha, max atom move = 1.0000000 1.1201975e-05
  Iterations, force evaluations = 159 318

MPI task timing breakdown:
Section |  min time  |  avg time  |  max time  |%varavg| %total
---------------------------------------------------------------
Pair    | 0.48853    | 1.3388     | 1.7399     |  31.0 | 72.81
Neigh   | 0          | 0          | 0          |   0.0 |  0.00
Comm    | 0.027744   | 0.29912    | 0.90483    |  46.1 | 16.27
Output  | 0          | 0          | 0          |   0.0 |  0.00
Modify  | 1.8795e-05 | 0.0026219  | 0.0055573  |   2.4 |  0.14
Other   |            | 0.1982     |            |       | 10.78

Nlocal:        2776.45 ave        3958 max           0 min
Histogram: 8 4 4 0 4 12 8 2 28 34
Nghost:        3879.01 ave        5429 max         232 min
Histogram: 8 0 8 0 16 0 8 8 16 40
Neighs:        79213.5 ave      115366 max           0 min
Histogram: 8 4 4 0 10 6 8 8 24 32

Total # of neighbors = 8238199
Ave neighs/atom = 28.530461
Neighbor list builds = 0
Dangerous builds = 0
The dot product: -2.23812400289157e-08
Setting atom values ...
  1 settings made for x
  1 settings made for y
  1 settings made for z
Setting up cg style minimization ...
  Unit style    : metal
  Current step  : 1379
Per MPI rank memory allocation (min/avg/max) = 5.441 | 5.816 | 6.074 Mbytes
Step PotEng KinEng TotEng v_fx v_fy v_fz 
    1379   -1152449.4            0   -1152449.4 -0.013539408 -0.023603978 -0.0077250175 
    1507   -1152449.4            0   -1152449.4 6.6008928e-06 -2.9889552e-07 -3.0902973e-05 
Loop time of 1.4763 on 104 procs for 128 steps with 288751 atoms

99.9% CPU use with 104 MPI tasks x 1 OpenMP threads

Minimization stats:
  Stopping criterion = energy tolerance
  Energy initial, next-to-last, final = 
     -1152449.40616858  -1152449.40768818  -1152449.40768818
  Force two-norm initial, final = 0.17971511 0.00011709292
  Force max component initial, final = 0.077766286 3.0902973e-05
  Final line search alpha, max atom move = 1.0000000 3.0902973e-05
  Iterations, force evaluations = 128 256

MPI task timing breakdown:
Section |  min time  |  avg time  |  max time  |%varavg| %total
---------------------------------------------------------------
Pair    | 0.39617    | 1.0761     | 1.3966     |  27.8 | 72.89
Neigh   | 0          | 0          | 0          |   0.0 |  0.00
Comm    | 0.021958   | 0.23882    | 0.72569    |  41.8 | 16.18
Output  | 0          | 0          | 0          |   0.0 |  0.00
Modify  | 1.544e-05  | 0.0021061  | 0.0045115  |   2.2 |  0.14
Other   |            | 0.1593     |            |       | 10.79

Nlocal:        2776.45 ave        3957 max           0 min
Histogram: 8 4 4 0 4 12 8 2 28 34
Nghost:        3879.01 ave        5429 max         232 min
Histogram: 8 0 8 0 16 0 8 8 16 40
Neighs:        79213.5 ave      115335 max           0 min
Histogram: 8 4 4 0 10 6 8 8 24 32

Total # of neighbors = 8238202
Ave neighs/atom = 28.530471
Neighbor list builds = 0
Dangerous builds = 0
The dot product: 3.07860772775576e-08
Setting atom values ...
  1 settings made for x
  1 settings made for y
  1 settings made for z
Setting up cg style minimization ...
  Unit style    : metal
  Current step  : 1507
Per MPI rank memory allocation (min/avg/max) = 5.441 | 5.816 | 6.074 Mbytes
Step PotEng KinEng TotEng v_fx v_fy v_fz 
    1507   -1152449.4            0   -1152449.4 -0.010684771    -0.017581 -0.0030433285 
    1663   -1152449.4            0   -1152449.4 4.1084864e-06 3.4553557e-06 -8.8808979e-06 
Loop time of 1.81864 on 104 procs for 156 steps with 288751 atoms

99.9% CPU use with 104 MPI tasks x 1 OpenMP threads

Minimization stats:
  Stopping criterion = energy tolerance
  Energy initial, next-to-last, final = 
     -1152449.39446866  -1152449.39599955  -1152449.39599955
  Force two-norm initial, final = 0.17803158 0.00014244484
  Force max component initial, final = 0.077633521 2.9668979e-05
  Final line search alpha, max atom move = 1.0000000 2.9668979e-05
  Iterations, force evaluations = 156 312

MPI task timing breakdown:
Section |  min time  |  avg time  |  max time  |%varavg| %total
---------------------------------------------------------------
Pair    | 0.47884    | 1.32       | 1.7164     |  30.9 | 72.58
Neigh   | 0          | 0          | 0          |   0.0 |  0.00
Comm    | 0.026547   | 0.29776    | 0.89749    |  45.4 | 16.37
Output  | 0          | 0          | 0          |   0.0 |  0.00
Modify  | 1.8676e-05 | 0.0025806  | 0.0055744  |   2.4 |  0.14
Other   |            | 0.1983     |            |       | 10.90

Nlocal:        2776.45 ave        3957 max           0 min
Histogram: 8 4 4 0 4 12 8 3 27 34
Nghost:        3879.01 ave        5429 max         232 min
Histogram: 8 0 8 0 16 0 8 8 16 40
Neighs:        79213.5 ave      115335 max           0 min
Histogram: 8 4 4 0 10 6 8 8 24 32

Total # of neighbors = 8238203
Ave neighs/atom = 28.530474
Neighbor list builds = 0
Dangerous builds = 0
The dot product: 9.85678117832879e-09
Setting atom values ...
  1 settings made for x
  1 settings made for y
  1 settings made for z
Setting up cg style minimization ...
  Unit style    : metal
  Current step  : 1663
Per MPI rank memory allocation (min/avg/max) = 5.441 | 5.816 | 6.074 Mbytes
Step PotEng KinEng TotEng v_fx v_fy v_fz 
    1663   -1152449.4            0   -1152449.4 -0.0061347619 -0.0091411937 0.0020294131 
    1777   -1152449.4            0   -1152449.4 1.9292864e-05 7.6208659e-06 -6.8546907e-05 
Loop time of 1.32316 on 104 procs for 114 steps with 288751 atoms

99.9% CPU use with 104 MPI tasks x 1 OpenMP threads

Minimization stats:
  Stopping criterion = energy tolerance
  Energy initial, next-to-last, final = 
     -1152449.38136311   -1152449.3829591   -1152449.3829591
  Force two-norm initial, final = 0.17690812 0.00027562426
  Force max component initial, final = 0.078922203 6.8546907e-05
  Final line search alpha, max atom move = 1.0000000 6.8546907e-05
  Iterations, force evaluations = 114 228

MPI task timing breakdown:
Section |  min time  |  avg time  |  max time  |%varavg| %total
---------------------------------------------------------------
Pair    | 0.35465    | 0.96134    | 1.2463     |  26.3 | 72.65
Neigh   | 0          | 0          | 0          |   0.0 |  0.00
Comm    | 0.021008   | 0.21366    | 0.65032    |  39.6 | 16.15
Output  | 0          | 0          | 0          |   0.0 |  0.00
Modify  | 1.3858e-05 | 0.0018762  | 0.0039923  |   2.0 |  0.14
Other   |            | 0.1463     |            |       | 11.06

Nlocal:        2776.45 ave        3955 max           0 min
Histogram: 8 4 4 0 4 12 8 0 30 34
Nghost:        3878.99 ave        5429 max         232 min
Histogram: 8 0 8 0 16 0 8 8 16 40
Neighs:        79213.5 ave      115273 max           0 min
Histogram: 8 4 4 0 10 6 8 8 24 32

Total # of neighbors = 8238203
Ave neighs/atom = 28.530474
Neighbor list builds = 0
Dangerous builds = 0
The dot product: -6.82790389545746e-08
Setting atom values ...
  1 settings made for x
  1 settings made for y
  1 settings made for z
Setting up cg style minimization ...
  Unit style    : metal
  Current step  : 1777
Per MPI rank memory allocation (min/avg/max) = 5.441 | 5.816 | 6.074 Mbytes
Step PotEng KinEng TotEng v_fx v_fy v_fz 
    1777   -1152449.4            0   -1152449.4 -0.000297135 0.0030520641 0.0093143804 
    1947   -1152449.4            0   -1152449.4 8.1338318e-06 -6.1078189e-06 -5.2477413e-05 
Loop time of 1.96948 on 104 procs for 170 steps with 288751 atoms

99.9% CPU use with 104 MPI tasks x 1 OpenMP threads

Minimization stats:
  Stopping criterion = energy tolerance
  Energy initial, next-to-last, final = 
     -1152449.36698075  -1152449.36886224  -1152449.36886224
  Force two-norm initial, final = 0.17678264 0.00022311293
  Force max component initial, final = 0.081816695 5.2477413e-05
  Final line search alpha, max atom move = 1.0000000 5.2477413e-05
  Iterations, force evaluations = 170 340

MPI task timing breakdown:
Section |  min time  |  avg time  |  max time  |%varavg| %total
---------------------------------------------------------------
Pair    | 0.52863    | 1.4339     | 1.8572     |  32.0 | 72.81
Neigh   | 0          | 0          | 0          |   0.0 |  0.00
Comm    | 0.031682   | 0.32278    | 0.9696     |  47.5 | 16.39
Output  | 0          | 0          | 0          |   0.0 |  0.00
Modify  | 2.0351e-05 | 0.0027976  | 0.0059739  |   2.5 |  0.14
Other   |            | 0.21       |            |       | 10.66

Nlocal:        2776.45 ave        3955 max           0 min
Histogram: 8 4 4 0 4 12 8 0 30 34
Nghost:        3878.99 ave        5429 max         232 min
Histogram: 8 0 8 0 16 0 8 8 16 40
Neighs:        79213.5 ave      115273 max           0 min
Histogram: 8 4 4 0 10 6 8 8 24 32

Total # of neighbors = 8238205
Ave neighs/atom = 28.530481
Neighbor list builds = 0
Dangerous builds = 0
The dot product: -3.79376101196109e-07
Setting atom values ...
  1 settings made for x
  1 settings made for y
  1 settings made for z
Setting up cg style minimization ...
  Unit style    : metal
  Current step  : 1947
Per MPI rank memory allocation (min/avg/max) = 5.441 | 5.816 | 6.074 Mbytes
Step PotEng KinEng TotEng v_fx v_fy v_fz 
    1947   -1152449.4            0   -1152449.4 0.0056465697  0.022545729  0.023532709 
    2000   -1152449.4            0   -1152449.4 -0.00010605563 2.0555443e-06 0.00042108047 
    2143   -1152449.4            0   -1152449.4 7.642449e-06 1.5691635e-06 -2.6860185e-05 
Loop time of 2.25623 on 104 procs for 196 steps with 288751 atoms

99.9% CPU use with 104 MPI tasks x 1 OpenMP threads

Minimization stats:
  Stopping criterion = energy tolerance
  Energy initial, next-to-last, final = 
     -1152449.35179044  -1152449.35391517  -1152449.35391517
  Force two-norm initial, final = 0.17934358 0.00010835251
  Force max component initial, final = 0.086962497 2.6860185e-05
  Final line search alpha, max atom move = 1.0000000 2.6860185e-05
  Iterations, force evaluations = 196 392

MPI task timing breakdown:
Section |  min time  |  avg time  |  max time  |%varavg| %total
---------------------------------------------------------------
Pair    | 0.60745    | 1.642      | 2.1354     |  34.3 | 72.78
Neigh   | 0          | 0          | 0          |   0.0 |  0.00
Comm    | 0.034333   | 0.36546    | 1.1116     |  51.3 | 16.20
Output  | 0.00013277 | 0.00014012 | 0.00024057 |   0.0 |  0.01
Modify  | 2.3577e-05 | 0.0032206  | 0.0068665  |   2.7 |  0.14
Other   |            | 0.2454     |            |       | 10.88

Nlocal:        2776.45 ave        3955 max           0 min
Histogram: 8 4 4 0 4 12 8 0 30 34
Nghost:        3878.99 ave        5429 max         232 min
Histogram: 8 0 8 0 16 0 8 8 16 40
Neighs:        79213.5 ave      115273 max           0 min
Histogram: 8 4 4 0 10 6 8 8 24 32

Total # of neighbors = 8238204
Ave neighs/atom = 28.530478
Neighbor list builds = 0
Dangerous builds = 0
The dot product: -2.09291772273237e-07
Setting atom values ...
  1 settings made for x
  1 settings made for y
  1 settings made for z
Setting up cg style minimization ...
  Unit style    : metal
  Current step  : 2143
Per MPI rank memory allocation (min/avg/max) = 5.441 | 5.816 | 6.074 Mbytes
Step PotEng KinEng TotEng v_fx v_fy v_fz 
    2143   -1152449.3            0   -1152449.3 0.0072816659   0.03767978  0.031115113 
    2339   -1152449.3            0   -1152449.3 -1.3655125e-05 -5.3290449e-07 4.5219578e-05 
Loop time of 2.26063 on 104 procs for 196 steps with 288751 atoms

99.9% CPU use with 104 MPI tasks x 1 OpenMP threads

Minimization stats:
  Stopping criterion = energy tolerance
  Energy initial, next-to-last, final = 
     -1152449.33585413  -1152449.33815441  -1152449.33815441
  Force two-norm initial, final = 0.18285875 0.00013301517
  Force max component initial, final = 0.093565835 4.5219578e-05
  Final line search alpha, max atom move = 1.0000000 4.5219578e-05
  Iterations, force evaluations = 196 392

MPI task timing breakdown:
Section |  min time  |  avg time  |  max time  |%varavg| %total
---------------------------------------------------------------
Pair    | 0.6035     | 1.651      | 2.1412     |  34.4 | 73.03
Neigh   | 0          | 0          | 0          |   0.0 |  0.00
Comm    | 0.034138   | 0.36956    | 1.1267     |  51.2 | 16.35
Output  | 0          | 0          | 0          |   0.0 |  0.00
Modify  | 2.3247e-05 | 0.0032232  | 0.0068856  |   2.7 |  0.14
Other   |            | 0.2368     |            |       | 10.48

Nlocal:        2776.45 ave        3955 max           0 min
Histogram: 8 4 4 0 4 12 8 0 30 34
Nghost:        3879.05 ave        5428 max         232 min
Histogram: 8 0 8 0 16 0 8 8 16 40
Neighs:        79213.5 ave      115273 max           0 min
Histogram: 8 4 4 0 10 6 8 8 24 32

Total # of neighbors = 8238205
Ave neighs/atom = 28.530481
Neighbor list builds = 0
Dangerous builds = 0
The dot product: 4.01349649855762e-07
Setting atom values ...
  1 settings made for x
  1 settings made for y
  1 settings made for z
Setting up cg style minimization ...
  Unit style    : metal
  Current step  : 2339
Per MPI rank memory allocation (min/avg/max) = 5.441 | 5.816 | 6.074 Mbytes
Step PotEng KinEng TotEng v_fx v_fy v_fz 
    2339   -1152449.3            0   -1152449.3  0.005800192  0.042143704  0.028590045 
    2552   -1152449.3            0   -1152449.3 5.8676235e-06 -2.8860995e-07 -1.7736082e-05 
Loop time of 2.5099 on 104 procs for 213 steps with 288751 atoms

99.9% CPU use with 104 MPI tasks x 1 OpenMP threads

Minimization stats:
  Stopping criterion = energy tolerance
  Energy initial, next-to-last, final = 
      -1152449.3190232  -1152449.32121065  -1152449.32121065
  Force two-norm initial, final = 0.18311422 7.7779284e-05
  Force max component initial, final = 0.099892596 1.7736082e-05
  Final line search alpha, max atom move = 1.0000000 1.7736082e-05
  Iterations, force evaluations = 213 426

MPI task timing breakdown:
Section |  min time  |  avg time  |  max time  |%varavg| %total
---------------------------------------------------------------
Pair    | 0.65911    | 1.7877     | 2.3249     |  35.8 | 71.22
Neigh   | 0          | 0          | 0          |   0.0 |  0.00
Comm    | 0.044408   | 0.40411    | 1.2174     |  53.3 | 16.10
Output  | 0          | 0          | 0          |   0.0 |  0.00
Modify  | 2.4907e-05 | 0.0034981  | 0.0074876  |   2.8 |  0.14
Other   |            | 0.3146     |            |       | 12.54

Nlocal:        2776.45 ave        3957 max           0 min
Histogram: 8 4 4 0 4 12 8 3 27 34
Nghost:        3879.09 ave        5427 max         232 min
Histogram: 8 0 8 0 16 0 8 8 16 40
Neighs:        79213.5 ave      115334 max           0 min
Histogram: 8 4 4 0 10 6 8 8 24 32

Total # of neighbors = 8238204
Ave neighs/atom = 28.530478
Neighbor list builds = 0
Dangerous builds = 0
The dot product: -1.48305151921685e-07
Setting atom values ...
  1 settings made for x
  1 settings made for y
  1 settings made for z
Setting up cg style minimization ...
  Unit style    : metal
  Current step  : 2552
Per MPI rank memory allocation (min/avg/max) = 5.441 | 5.816 | 6.074 Mbytes
Step PotEng KinEng TotEng v_fx v_fy v_fz 
    2552   -1152449.3            0   -1152449.3 0.0038793512   0.03901864  0.021861228 
    2762   -1152449.3            0   -1152449.3 -8.3985959e-06 3.717057e-07 2.3026154e-05 
Loop time of 2.43531 on 104 procs for 210 steps with 288751 atoms

99.9% CPU use with 104 MPI tasks x 1 OpenMP threads

Minimization stats:
  Stopping criterion = energy tolerance
  Energy initial, next-to-last, final = 
     -1152449.30089159  -1152449.30295227  -1152449.30295227
  Force two-norm initial, final = 0.18109024 8.9278120e-05
  Force max component initial, final = 0.10521891 2.3026154e-05
  Final line search alpha, max atom move = 1.0000000 2.3026154e-05
  Iterations, force evaluations = 210 420

MPI task timing breakdown:
Section |  min time  |  avg time  |  max time  |%varavg| %total
---------------------------------------------------------------
Pair    | 0.65004    | 1.7726     | 2.2925     |  35.5 | 72.79
Neigh   | 0          | 0          | 0          |   0.0 |  0.00
Comm    | 0.03545    | 0.39636    | 1.2119     |  53.1 | 16.28
Output  | 0          | 0          | 0          |   0.0 |  0.00
Modify  | 2.5164e-05 | 0.0034531  | 0.0074125  |   2.8 |  0.14
Other   |            | 0.2629     |            |       | 10.80

Nlocal:        2776.45 ave        3957 max           0 min
Histogram: 8 4 4 0 4 12 8 3 27 34
Nghost:        3879.12 ave        5426 max         232 min
Histogram: 8 0 8 0 16 0 8 8 16 40
Neighs:        79213.5 ave      115334 max           0 min
Histogram: 8 4 4 0 10 6 8 8 24 32

Total # of neighbors = 8238209
Ave neighs/atom = 28.530495
Neighbor list builds = 0
Dangerous builds = 0
The dot product: 1.77620412654488e-07
Setting atom values ...
  1 settings made for x
  1 settings made for y
  1 settings made for z
Setting up cg style minimization ...
  Unit style    : metal
  Current step  : 2762
Per MPI rank memory allocation (min/avg/max) = 5.441 | 5.816 | 6.074 Mbytes
Step PotEng KinEng TotEng v_fx v_fy v_fz 
    2762   -1152449.3            0   -1152449.3 0.0019639336  0.033476625  0.016904671 
    2942   -1152449.3            0   -1152449.3 9.9080084e-06 -1.9437075e-06 -2.6165026e-05 
Loop time of 2.071 on 104 procs for 180 steps with 288751 atoms

99.9% CPU use with 104 MPI tasks x 1 OpenMP threads

Minimization stats:
  Stopping criterion = energy tolerance
  Energy initial, next-to-last, final = 
     -1152449.28142739  -1152449.28342734  -1152449.28342734
  Force two-norm initial, final = 0.17883809 0.00020339748
  Force max component initial, final = 0.1094182 2.6720901e-05
  Final line search alpha, max atom move = 1.0000000 2.6720901e-05
  Iterations, force evaluations = 180 360

MPI task timing breakdown:
Section |  min time  |  avg time  |  max time  |%varavg| %total
---------------------------------------------------------------
Pair    | 0.55388    | 1.5085     | 1.9618     |  33.0 | 72.84
Neigh   | 0          | 0          | 0          |   0.0 |  0.00
Comm    | 0.031046   | 0.33538    | 1.0181     |  49.3 | 16.19
Output  | 0          | 0          | 0          |   0.0 |  0.00
Modify  | 2.1443e-05 | 0.0029574  | 0.0063421  |   2.6 |  0.14
Other   |            | 0.2241     |            |       | 10.82

Nlocal:        2776.45 ave        3958 max           0 min
Histogram: 8 4 4 0 4 12 8 3 27 34
Nghost:        3879.12 ave        5425 max         232 min
Histogram: 8 0 8 0 16 0 8 8 16 40
Neighs:        79213.6 ave      115365 max           0 min
Histogram: 8 4 4 0 10 6 8 8 24 32

Total # of neighbors = 8238212
Ave neighs/atom = 28.530506
Neighbor list builds = 0
Dangerous builds = 0
The dot product: -2.24135110050502e-07
Setting atom values ...
  1 settings made for x
  1 settings made for y
  1 settings made for z
Setting up cg style minimization ...
  Unit style    : metal
  Current step  : 2942
Per MPI rank memory allocation (min/avg/max) = 5.441 | 5.816 | 6.074 Mbytes
Step PotEng KinEng TotEng v_fx v_fy v_fz 
    2942   -1152449.3            0   -1152449.3 -0.0001959695  0.027823356  0.015056097 
    3000   -1152449.3            0   -1152449.3 -2.4828771e-06 2.6914005e-05 1.9954035e-05 
    3130   -1152449.3            0   -1152449.3 7.405211e-06 -2.2926604e-06 -1.8607289e-05 
Loop time of 2.19357 on 104 procs for 188 steps with 288751 atoms

99.9% CPU use with 104 MPI tasks x 1 OpenMP threads

Minimization stats:
  Stopping criterion = energy tolerance
  Energy initial, next-to-last, final = 
     -1152449.26076733   -1152449.2626846   -1152449.2626846
  Force two-norm initial, final = 0.17682681 0.00014540991
  Force max component initial, final = 0.11282573 3.0468358e-05
  Final line search alpha, max atom move = 1.0000000 3.0468358e-05
  Iterations, force evaluations = 188 376

MPI task timing breakdown:
Section |  min time  |  avg time  |  max time  |%varavg| %total
---------------------------------------------------------------
Pair    | 0.57633    | 1.5874     | 2.0698     |  33.8 | 72.36
Neigh   | 0          | 0          | 0          |   0.0 |  0.00
Comm    | 0.03563    | 0.35957    | 1.0804     |  49.6 | 16.39
Output  | 0.00013542 | 0.00014266 | 0.0002467  |   0.0 |  0.01
Modify  | 2.275e-05  | 0.0031     | 0.006598   |   2.6 |  0.14
Other   |            | 0.2434     |            |       | 11.10

Nlocal:        2776.45 ave        3958 max           0 min
Histogram: 8 4 4 0 4 12 8 3 27 34
Nghost:        3879.12 ave        5425 max         232 min
Histogram: 8 0 8 0 16 0 8 8 16 40
Neighs:        79213.6 ave      115369 max           0 min
Histogram: 8 4 4 0 10 6 8 8 24 32

Total # of neighbors = 8238217
Ave neighs/atom = 28.530523
Neighbor list builds = 0
Dangerous builds = 0
The dot product: -1.68270204230095e-07
Setting atom values ...
  1 settings made for x
  1 settings made for y
  1 settings made for z
Setting up cg style minimization ...
  Unit style    : metal
  Current step  : 3130
Per MPI rank memory allocation (min/avg/max) = 5.441 | 5.816 | 6.074 Mbytes
Step PotEng KinEng TotEng v_fx v_fy v_fz 
    3130   -1152449.2            0   -1152449.2 -0.0019328158  0.022699646  0.014087518 
    3329   -1152449.2            0   -1152449.2 1.3513336e-06 2.1439647e-07 -2.8957981e-06 
Loop time of 2.30462 on 104 procs for 199 steps with 288751 atoms

99.9% CPU use with 104 MPI tasks x 1 OpenMP threads

Minimization stats:
  Stopping criterion = energy tolerance
  Energy initial, next-to-last, final = 
     -1152449.23885977  -1152449.24073957  -1152449.24073957
  Force two-norm initial, final = 0.17520296 0.00010569379
  Force max component initial, final = 0.11584426 1.2036661e-05
  Final line search alpha, max atom move = 1.0000000 1.2036661e-05
  Iterations, force evaluations = 199 398

MPI task timing breakdown:
Section |  min time  |  avg time  |  max time  |%varavg| %total
---------------------------------------------------------------
Pair    | 0.61177    | 1.6718     | 2.1744     |  34.8 | 72.54
Neigh   | 0          | 0          | 0          |   0.0 |  0.00
Comm    | 0.034153   | 0.37143    | 1.1314     |  52.2 | 16.12
Output  | 0          | 0          | 0          |   0.0 |  0.00
Modify  | 2.3447e-05 | 0.0032757  | 0.0070013  |   2.7 |  0.14
Other   |            | 0.2581     |            |       | 11.20

Nlocal:        2776.45 ave        3958 max           0 min
Histogram: 8 4 4 0 4 12 8 2 28 34
Nghost:        3879.12 ave        5425 max         232 min
Histogram: 8 0 8 0 16 0 8 8 16 40
Neighs:        79213.6 ave      115369 max           0 min
Histogram: 8 4 4 0 10 6 8 8 24 32

Total # of neighbors = 8238212
Ave neighs/atom = 28.530506
Neighbor list builds = 0
Dangerous builds = 0
The dot product: -2.42943905688138e-08
Setting atom values ...
  1 settings made for x
  1 settings made for y
  1 settings made for z
Setting up cg style minimization ...
  Unit style    : metal
  Current step  : 3329
Per MPI rank memory allocation (min/avg/max) = 5.441 | 5.816 | 6.074 Mbytes
Step PotEng KinEng TotEng v_fx v_fy v_fz 
    3329   -1152449.2            0   -1152449.2 -0.0040713497  0.019869153  0.015647717 
    3534   -1152449.2            0   -1152449.2 8.2705359e-06 2.2027233e-06 -1.6422161e-05 
Loop time of 2.37349 on 104 procs for 205 steps with 288751 atoms

99.9% CPU use with 104 MPI tasks x 1 OpenMP threads

Minimization stats:
  Stopping criterion = energy tolerance
  Energy initial, next-to-last, final = 
     -1152449.21579965  -1152449.21781974  -1152449.21781974
  Force two-norm initial, final = 0.17422875 9.9922295e-05
  Force max component initial, final = 0.11862817 1.6422161e-05
  Final line search alpha, max atom move = 1.0000000 1.6422161e-05
  Iterations, force evaluations = 205 410

MPI task timing breakdown:
Section |  min time  |  avg time  |  max time  |%varavg| %total
---------------------------------------------------------------
Pair    | 0.62571    | 1.7269     | 2.2435     |  35.3 | 72.76
Neigh   | 0          | 0          | 0          |   0.0 |  0.00
Comm    | 0.040659   | 0.3902     | 1.1871     |  52.3 | 16.44
Output  | 0          | 0          | 0          |   0.0 |  0.00
Modify  | 2.4301e-05 | 0.0033811  | 0.0072578  |   2.8 |  0.14
Other   |            | 0.253      |            |       | 10.66

Nlocal:        2776.45 ave        3959 max           0 min
Histogram: 8 4 4 0 4 12 8 2 28 34
Nghost:        3879.12 ave        5425 max         232 min
Histogram: 8 0 8 0 16 0 8 8 16 40
Neighs:        79213.6 ave      115398 max           0 min
Histogram: 8 4 4 0 10 6 8 8 24 32

Total # of neighbors = 8238211
Ave neighs/atom = 28.530502
Neighbor list builds = 0
Dangerous builds = 0
The dot product: -1.80966853940567e-07
Setting atom values ...
  1 settings made for x
  1 settings made for y
  1 settings made for z
Setting up cg style minimization ...
  Unit style    : metal
  Current step  : 3534
Per MPI rank memory allocation (min/avg/max) = 5.441 | 5.816 | 6.074 Mbytes
Step PotEng KinEng TotEng v_fx v_fy v_fz 
    3534   -1152449.2            0   -1152449.2 -0.0085863648  0.021697645  0.023029593 
    3740   -1152449.2            0   -1152449.2 1.0347163e-05 -3.6630758e-07 -2.0140106e-05 
Loop time of 2.37699 on 104 procs for 206 steps with 288751 atoms

99.9% CPU use with 104 MPI tasks x 1 OpenMP threads

Minimization stats:
  Stopping criterion = energy tolerance
  Energy initial, next-to-last, final = 
     -1152449.19206348  -1152449.19428343  -1152449.19428343
  Force two-norm initial, final = 0.17436303 9.7726448e-05
  Force max component initial, final = 0.12119205 2.2923609e-05
  Final line search alpha, max atom move = 1.0000000 2.2923609e-05
  Iterations, force evaluations = 206 412

MPI task timing breakdown:
Section |  min time  |  avg time  |  max time  |%varavg| %total
---------------------------------------------------------------
Pair    | 0.62866    | 1.7334     | 2.2525     |  35.5 | 72.93
Neigh   | 0          | 0          | 0          |   0.0 |  0.00
Comm    | 0.03461    | 0.3865     | 1.1757     |  53.2 | 16.26
Output  | 0          | 0          | 0          |   0.0 |  0.00
Modify  | 2.4463e-05 | 0.0033912  | 0.0072863  |   2.8 |  0.14
Other   |            | 0.2537     |            |       | 10.67

Nlocal:        2776.45 ave        3959 max           0 min
Histogram: 8 4 4 0 4 12 8 2 28 34
Nghost:        3879.09 ave        5425 max         232 min
Histogram: 8 0 8 0 16 0 8 8 16 40
Neighs:        79213.6 ave      115396 max           0 min
Histogram: 8 4 4 0 10 6 8 8 24 32

Total # of neighbors = 8238212
Ave neighs/atom = 28.530506
Neighbor list builds = 0
Dangerous builds = 0
The dot product: -3.15828205770817e-07
Setting atom values ...
  1 settings made for x
  1 settings made for y
  1 settings made for z
Setting up cg style minimization ...
  Unit style    : metal
  Current step  : 3740
Per MPI rank memory allocation (min/avg/max) = 5.441 | 5.816 | 6.074 Mbytes
Step PotEng KinEng TotEng v_fx v_fy v_fz 
    3740   -1152449.2            0   -1152449.2  -0.01344451  0.024940265  0.029696911 
    3927   -1152449.2            0   -1152449.2 2.0737854e-05 1.6429314e-06 -3.6526213e-05 
Loop time of 2.1582 on 104 procs for 187 steps with 288751 atoms

99.9% CPU use with 104 MPI tasks x 1 OpenMP threads

Minimization stats:
  Stopping criterion = energy tolerance
  Energy initial, next-to-last, final = 
     -1152449.16788628  -1152449.17007165  -1152449.17007165
  Force two-norm initial, final = 0.17517085 0.00013439911
  Force max component initial, final = 0.12388818 3.6526213e-05
  Final line search alpha, max atom move = 1.0000000 3.6526213e-05
  Iterations, force evaluations = 187 374

MPI task timing breakdown:
Section |  min time  |  avg time  |  max time  |%varavg| %total
---------------------------------------------------------------
Pair    | 0.5754     | 1.572      | 2.0444     |  33.6 | 72.84
Neigh   | 0          | 0          | 0          |   0.0 |  0.00
Comm    | 0.032436   | 0.35129    | 1.0625     |  50.0 | 16.28
Output  | 0          | 0          | 0          |   0.0 |  0.00
Modify  | 2.2241e-05 | 0.0030777  | 0.0065837  |   2.6 |  0.14
Other   |            | 0.2319     |            |       | 10.74

Nlocal:        2776.45 ave        3959 max           0 min
Histogram: 8 4 4 0 4 12 8 2 28 34
Nghost:        3879.06 ave        5424 max         232 min
Histogram: 8 0 8 0 16 0 8 8 16 40
Neighs:        79213.6 ave      115395 max           0 min
Histogram: 8 4 4 0 10 6 8 8 24 32

Total # of neighbors = 8238215
Ave neighs/atom = 28.530516
Neighbor list builds = 0
Dangerous builds = 0
The dot product: -5.72214375778771e-07
Setting atom values ...
  1 settings made for x
  1 settings made for y
  1 settings made for z
Setting up cg style minimization ...
  Unit style    : metal
  Current step  : 3927
Per MPI rank memory allocation (min/avg/max) = 5.441 | 5.816 | 6.074 Mbytes
Step PotEng KinEng TotEng v_fx v_fy v_fz 
    3927   -1152449.1            0   -1152449.1 -0.014473984  0.023767512  0.028112636 
    4000   -1152449.1            0   -1152449.1 1.7059486e-05 2.0306957e-05 -2.4448911e-05 
    4092   -1152449.1            0   -1152449.1 1.8767144e-05 1.3775942e-06 -3.0664178e-05 
Loop time of 1.91136 on 104 procs for 165 steps with 288751 atoms

99.9% CPU use with 104 MPI tasks x 1 OpenMP threads

Minimization stats:
  Stopping criterion = energy tolerance
  Energy initial, next-to-last, final = 
     -1152449.14281897   -1152449.1448759   -1152449.1448759
  Force two-norm initial, final = 0.17467374 0.00023162902
  Force max component initial, final = 0.12696337 3.3394003e-05
  Final line search alpha, max atom move = 1.0000000 3.3394003e-05
  Iterations, force evaluations = 165 330

MPI task timing breakdown:
Section |  min time  |  avg time  |  max time  |%varavg| %total
---------------------------------------------------------------
Pair    | 0.50834    | 1.3844     | 1.8019     |  31.6 | 72.43
Neigh   | 0          | 0          | 0          |   0.0 |  0.00
Comm    | 0.028261   | 0.30947    | 0.93515    |  47.0 | 16.19
Output  | 0.00013688 | 0.00013902 | 0.00024361 |   0.0 |  0.01
Modify  | 1.9614e-05 | 0.0027159  | 0.0057944  |   2.5 |  0.14
Other   |            | 0.2146     |            |       | 11.23

Nlocal:        2776.45 ave        3960 max           0 min
Histogram: 8 4 4 0 4 12 8 2 28 34
Nghost:        3879.03 ave        5424 max         232 min
Histogram: 8 0 8 0 16 0 8 8 16 40
Neighs:        79213.6 ave      115418 max           0 min
Histogram: 8 4 4 0 10 6 8 8 24 32

Total # of neighbors = 8238215
Ave neighs/atom = 28.530516
Neighbor list builds = 0
Dangerous builds = 0
The dot product: -4.53114125885269e-07
Setting atom values ...
  1 settings made for x
  1 settings made for y
  1 settings made for z
Setting up cg style minimization ...
  Unit style    : metal
  Current step  : 4092
Per MPI rank memory allocation (min/avg/max) = 5.441 | 5.816 | 6.074 Mbytes
Step PotEng KinEng TotEng v_fx v_fy v_fz 
    4092   -1152449.1            0   -1152449.1 -0.013493216  0.020313544  0.023679747 
    4266   -1152449.1            0   -1152449.1 1.3709171e-05 6.7154443e-06 -2.0193544e-05 
Loop time of 2.01113 on 104 procs for 174 steps with 288751 atoms

99.9% CPU use with 104 MPI tasks x 1 OpenMP threads

Minimization stats:
  Stopping criterion = energy tolerance
  Energy initial, next-to-last, final = 
     -1152449.11663786  -1152449.11850432  -1152449.11850432
  Force two-norm initial, final = 0.17382229 0.00017546758
  Force max component initial, final = 0.12992442 4.1172286e-05
  Final line search alpha, max atom move = 1.0000000 4.1172286e-05
  Iterations, force evaluations = 174 348

MPI task timing breakdown:
Section |  min time  |  avg time  |  max time  |%varavg| %total
---------------------------------------------------------------
Pair    | 0.53234    | 1.4655     | 1.9052     |  32.5 | 72.87
Neigh   | 0          | 0          | 0          |   0.0 |  0.00
Comm    | 0.03047    | 0.32819    | 0.99398    |  48.3 | 16.32
Output  | 0          | 0          | 0          |   0.0 |  0.00
Modify  | 2.0612e-05 | 0.0028699  | 0.006145   |   2.5 |  0.14
Other   |            | 0.2146     |            |       | 10.67

Nlocal:        2776.45 ave        3960 max           0 min
Histogram: 8 4 4 0 4 12 8 2 28 34
Nghost:        3878.97 ave        5424 max         232 min
Histogram: 8 0 8 0 16 0 8 8 16 40
Neighs:        79213.6 ave      115417 max           0 min
Histogram: 8 4 4 0 10 6 8 8 24 32

Total # of neighbors = 8238213
Ave neighs/atom = 28.530509
Neighbor list builds = 0
Dangerous builds = 0
The dot product: -2.31029940454595e-07
Setting atom values ...
  1 settings made for x
  1 settings made for y
  1 settings made for z
Setting up cg style minimization ...
  Unit style    : metal
  Current step  : 4266
Per MPI rank memory allocation (min/avg/max) = 5.441 | 5.816 | 6.074 Mbytes
Step PotEng KinEng TotEng v_fx v_fy v_fz 
    4266   -1152449.1            0   -1152449.1  -0.01091194  0.015861543  0.017782933 
    4418   -1152449.1            0   -1152449.1 1.4716898e-05 -4.1824966e-07 -2.1584667e-05 
Loop time of 1.77367 on 104 procs for 152 steps with 288751 atoms

99.9% CPU use with 104 MPI tasks x 1 OpenMP threads

Minimization stats:
  Stopping criterion = energy tolerance
  Energy initial, next-to-last, final = 
     -1152449.08911609  -1152449.09085123  -1152449.09085123
  Force two-norm initial, final = 0.17329332 0.0002698096
  Force max component initial, final = 0.13284697 3.4109874e-05
  Final line search alpha, max atom move = 1.0000000 3.4109874e-05
  Iterations, force evaluations = 152 304

MPI task timing breakdown:
Section |  min time  |  avg time  |  max time  |%varavg| %total
---------------------------------------------------------------
Pair    | 0.47126    | 1.2767     | 1.6628     |  30.3 | 71.98
Neigh   | 0          | 0          | 0          |   0.0 |  0.00
Comm    | 0.031613   | 0.28685    | 0.86557    |  44.9 | 16.17
Output  | 0          | 0          | 0          |   0.0 |  0.00
Modify  | 1.8136e-05 | 0.0024955  | 0.0053258  |   2.4 |  0.14
Other   |            | 0.2076     |            |       | 11.70

Nlocal:        2776.45 ave        3961 max           0 min
Histogram: 8 4 4 0 6 10 8 2 28 34
Nghost:        3879.00 ave        5425 max         232 min
Histogram: 8 0 8 0 16 0 8 8 16 40
Neighs:        79213.6 ave      115465 max           0 min
Histogram: 8 4 4 0 10 6 8 8 24 32

Total # of neighbors = 8238213
Ave neighs/atom = 28.530509
Neighbor list builds = 0
Dangerous builds = 0
The dot product: -2.42006160958773e-07
Setting atom values ...
  1 settings made for x
  1 settings made for y
  1 settings made for z
Setting up cg style minimization ...
  Unit style    : metal
  Current step  : 4418
Per MPI rank memory allocation (min/avg/max) = 5.441 | 5.816 | 6.074 Mbytes
Step PotEng KinEng TotEng v_fx v_fy v_fz 
    4418   -1152449.1            0   -1152449.1 -0.008055412  0.011372917   0.01240808 
    4587   -1152449.1            0   -1152449.1 -2.2251002e-05 -1.3336054e-06 3.1118629e-05 
Loop time of 1.97103 on 104 procs for 169 steps with 288751 atoms

99.9% CPU use with 104 MPI tasks x 1 OpenMP threads

Minimization stats:
  Stopping criterion = energy tolerance
  Energy initial, next-to-last, final = 
     -1152449.06025253  -1152449.06191064  -1152449.06191064
  Force two-norm initial, final = 0.1733132 0.00018183167
  Force max component initial, final = 0.13546825 4.0404051e-05
  Final line search alpha, max atom move = 1.0000000 4.0404051e-05
  Iterations, force evaluations = 169 338

MPI task timing breakdown:
Section |  min time  |  avg time  |  max time  |%varavg| %total
---------------------------------------------------------------
Pair    | 0.51641    | 1.429      | 1.856      |  32.2 | 72.50
Neigh   | 0          | 0          | 0          |   0.0 |  0.00
Comm    | 0.039892   | 0.32545    | 0.9855     |  47.3 | 16.51
Output  | 0          | 0          | 0          |   0.0 |  0.00
Modify  | 2.0099e-05 | 0.0027833  | 0.0059361  |   2.5 |  0.14
Other   |            | 0.2138     |            |       | 10.85

Nlocal:        2776.45 ave        3961 max           0 min
Histogram: 8 4 4 0 6 10 8 3 27 34
Nghost:        3879.02 ave        5425 max         232 min
Histogram: 8 0 8 0 16 0 8 8 16 40
Neighs:        79213.6 ave      115460 max           0 min
Histogram: 8 4 4 0 10 6 8 8 24 32

Total # of neighbors = 8238214
Ave neighs/atom = 28.530512
Neighbor list builds = 0
Dangerous builds = 0
The dot product: 2.92054092535056e-07
Setting atom values ...
  1 settings made for x
  1 settings made for y
  1 settings made for z
Setting up cg style minimization ...
  Unit style    : metal
  Current step  : 4587
Per MPI rank memory allocation (min/avg/max) = 5.441 | 5.816 | 6.074 Mbytes
Step PotEng KinEng TotEng v_fx v_fy v_fz 
    4587     -1152449            0     -1152449 -0.0055533949 0.0074647305 0.0081791987 
    4767     -1152449            0     -1152449 2.2546922e-05 6.2439159e-06 -3.011062e-05 
Loop time of 2.08875 on 104 procs for 180 steps with 288751 atoms

99.9% CPU use with 104 MPI tasks x 1 OpenMP threads

Minimization stats:
  Stopping criterion = energy tolerance
  Energy initial, next-to-last, final = 
     -1152449.03009723   -1152449.0317383   -1152449.0317383
  Force two-norm initial, final = 0.17386458 0.00016353053
  Force max component initial, final = 0.13790977 3.8921570e-05
  Final line search alpha, max atom move = 1.0000000 3.8921570e-05
  Iterations, force evaluations = 180 360

MPI task timing breakdown:
Section |  min time  |  avg time  |  max time  |%varavg| %total
---------------------------------------------------------------
Pair    | 0.55332    | 1.5126     | 1.9677     |  33.1 | 72.42
Neigh   | 0          | 0          | 0          |   0.0 |  0.00
Comm    | 0.031455   | 0.3389     | 1.0204     |  49.2 | 16.23
Output  | 0          | 0          | 0          |   0.0 |  0.00
Modify  | 2.1683e-05 | 0.0029695  | 0.0063138  |   2.6 |  0.14
Other   |            | 0.2342     |            |       | 11.21

Nlocal:        2776.45 ave        3960 max           0 min
Histogram: 8 4 4 0 4 12 8 2 28 34
Nghost:        3878.94 ave        5425 max         232 min
Histogram: 8 0 8 0 16 0 8 8 16 40
Neighs:        79213.6 ave      115430 max           0 min
Histogram: 8 4 4 0 10 6 8 8 24 32

Total # of neighbors = 8238218
Ave neighs/atom = 28.530526
Neighbor list builds = 0
Dangerous builds = 0
The dot product: -2.44148938970242e-07
Setting atom values ...
  1 settings made for x
  1 settings made for y
  1 settings made for z
Setting up cg style minimization ...
  Unit style    : metal
  Current step  : 4767
Per MPI rank memory allocation (min/avg/max) = 5.441 | 5.816 | 6.074 Mbytes
Step PotEng KinEng TotEng v_fx v_fy v_fz 
    4767     -1152449            0     -1152449 -0.003624196  0.004566975 0.0051447277 
    4935     -1152449            0     -1152449 1.1586514e-05 3.8014636e-06 -1.5024319e-05 
Loop time of 1.95533 on 104 procs for 168 steps with 288751 atoms

99.9% CPU use with 104 MPI tasks x 1 OpenMP threads

Minimization stats:
  Stopping criterion = energy tolerance
  Energy initial, next-to-last, final = 
     -1152448.99880006  -1152449.00044901  -1152449.00044901
  Force two-norm initial, final = 0.17462063 0.00022344029
  Force max component initial, final = 0.14005704 3.2774713e-05
  Final line search alpha, max atom move = 1.0000000 3.2774713e-05
  Iterations, force evaluations = 168 336

MPI task timing breakdown:
Section |  min time  |  avg time  |  max time  |%varavg| %total
---------------------------------------------------------------
Pair    | 0.51551    | 1.4161     | 1.8502     |  31.9 | 72.42
Neigh   | 0          | 0          | 0          |   0.0 |  0.00
Comm    | 0.030852   | 0.32021    | 0.96891    |  47.2 | 16.38
Output  | 0          | 0          | 0          |   0.0 |  0.00
Modify  | 2.0146e-05 | 0.0027675  | 0.0059085  |   2.5 |  0.14
Other   |            | 0.2162     |            |       | 11.06

Nlocal:        2776.45 ave        3960 max           0 min
Histogram: 8 4 4 0 4 12 8 2 28 34
Nghost:        3878.91 ave        5425 max         232 min
Histogram: 8 0 8 0 16 0 8 8 16 40
Neighs:        79213.6 ave      115436 max           0 min
Histogram: 8 4 4 0 10 6 8 8 24 32

Total # of neighbors = 8238216
Ave neighs/atom = 28.530519
Neighbor list builds = 0
Dangerous builds = 0
The dot product: -1.10586805158616e-07
Setting atom values ...
  1 settings made for x
  1 settings made for y
  1 settings made for z
Setting up cg style minimization ...
  Unit style    : metal
  Current step  : 4935
Per MPI rank memory allocation (min/avg/max) = 5.441 | 5.816 | 6.074 Mbytes
Step PotEng KinEng TotEng v_fx v_fy v_fz 
    4935     -1152449            0     -1152449 -0.0018503388 0.0025549419 0.0025757199 
    5000     -1152449            0     -1152449 -0.00017618337 -2.1600406e-05 0.00022596845 
    5132     -1152449            0     -1152449 -1.5150652e-05 -2.186297e-06 1.9407915e-05 
Loop time of 2.28377 on 104 procs for 197 steps with 288751 atoms

99.9% CPU use with 104 MPI tasks x 1 OpenMP threads

Minimization stats:
  Stopping criterion = energy tolerance
  Energy initial, next-to-last, final = 
     -1152448.96644281  -1152448.96810165  -1152448.96810165
  Force two-norm initial, final = 0.17548928 9.7152248e-05
  Force max component initial, final = 0.14198725 1.9407915e-05
  Final line search alpha, max atom move = 1.0000000 1.9407915e-05
  Iterations, force evaluations = 197 394

MPI task timing breakdown:
Section |  min time  |  avg time  |  max time  |%varavg| %total
---------------------------------------------------------------
Pair    | 0.60594    | 1.6574     | 2.1568     |  34.6 | 72.58
Neigh   | 0          | 0          | 0          |   0.0 |  0.00
Comm    | 0.035512   | 0.36994    | 1.1224     |  51.7 | 16.20
Output  | 0.00010439 | 0.00010743 | 0.00020334 |   0.0 |  0.00
Modify  | 2.5479e-05 | 0.0032416  | 0.0069169  |   2.7 |  0.14
Other   |            | 0.253      |            |       | 11.08

Nlocal:        2776.45 ave        3960 max           0 min
Histogram: 8 4 4 0 4 12 8 2 28 34
Nghost:        3878.88 ave        5425 max         232 min
Histogram: 8 0 8 0 16 0 8 8 16 40
Neighs:        79213.6 ave      115437 max           0 min
Histogram: 8 4 4 0 10 6 8 8 24 32

Total # of neighbors = 8238218
Ave neighs/atom = 28.530526
Neighbor list builds = 0
Dangerous builds = 0
The dot product: 1.35693818282503e-07
Setting atom values ...
  1 settings made for x
  1 settings made for y
  1 settings made for z
Setting up cg style minimization ...
  Unit style    : metal
  Current step  : 5132
Per MPI rank memory allocation (min/avg/max) = 5.441 | 5.816 | 6.074 Mbytes
Step PotEng KinEng TotEng v_fx v_fy v_fz 
    5132   -1152448.9            0   -1152448.9 -0.00037198356 0.0013240752 0.00056339965 
    5321   -1152448.9            0   -1152448.9 -9.4424291e-06 -1.8119599e-06 1.181889e-05 
Loop time of 2.20035 on 104 procs for 189 steps with 288751 atoms

99.9% CPU use with 104 MPI tasks x 1 OpenMP threads

Minimization stats:
  Stopping criterion = energy tolerance
  Energy initial, next-to-last, final = 
     -1152448.93312175   -1152448.9348367   -1152448.9348367
  Force two-norm initial, final = 0.17631019 0.00014758086
  Force max component initial, final = 0.14364495 1.5410432e-05
  Final line search alpha, max atom move = 1.0000000 1.5410432e-05
  Iterations, force evaluations = 189 378

MPI task timing breakdown:
Section |  min time  |  avg time  |  max time  |%varavg| %total
---------------------------------------------------------------
Pair    | 0.57857    | 1.5923     | 2.0746     |  33.9 | 72.37
Neigh   | 0          | 0          | 0          |   0.0 |  0.00
Comm    | 0.033827   | 0.35993    | 1.0774     |  50.0 | 16.36
Output  | 0          | 0          | 0          |   0.0 |  0.00
Modify  | 2.1842e-05 | 0.0031122  | 0.0066544  |   2.6 |  0.14
Other   |            | 0.245      |            |       | 11.13

Nlocal:        2776.45 ave        3960 max           0 min
Histogram: 8 4 4 0 4 12 8 2 28 34
Nghost:        3878.87 ave        5425 max         232 min
Histogram: 8 0 8 0 16 0 8 8 16 40
Neighs:        79213.6 ave      115436 max           0 min
Histogram: 8 4 4 0 10 6 8 8 24 32

Total # of neighbors = 8238215
Ave neighs/atom = 28.530516
Neighbor list builds = 0
Dangerous builds = 0
The dot product: 7.87470037326658e-08
Setting atom values ...
  1 settings made for x
  1 settings made for y
  1 settings made for z
Setting up cg style minimization ...
  Unit style    : metal
  Current step  : 5321
Per MPI rank memory allocation (min/avg/max) = 5.441 | 5.816 | 6.074 Mbytes
Step PotEng KinEng TotEng v_fx v_fy v_fz 
    5321   -1152448.9            0   -1152448.9 0.0010293886 0.00066598176 -0.0012325999 
    5522   -1152448.9            0   -1152448.9 -1.0710324e-05 -3.5728931e-06 1.3054629e-05 
Loop time of 2.31969 on 104 procs for 201 steps with 288751 atoms

99.9% CPU use with 104 MPI tasks x 1 OpenMP threads

Minimization stats:
  Stopping criterion = energy tolerance
  Energy initial, next-to-last, final = 
      -1152448.8989853  -1152448.90062308  -1152448.90062308
  Force two-norm initial, final = 0.17702918 9.7901349e-05
  Force max component initial, final = 0.14506123 2.3597800e-05
  Final line search alpha, max atom move = 1.0000000 2.3597800e-05
  Iterations, force evaluations = 201 402

MPI task timing breakdown:
Section |  min time  |  avg time  |  max time  |%varavg| %total
---------------------------------------------------------------
Pair    | 0.61523    | 1.6881     | 2.1966     |  35.0 | 72.77
Neigh   | 0          | 0          | 0          |   0.0 |  0.00
Comm    | 0.034893   | 0.37614    | 1.1457     |  52.5 | 16.22
Output  | 0          | 0          | 0          |   0.0 |  0.00
Modify  | 2.3834e-05 | 0.0033095  | 0.0070287  |   2.7 |  0.14
Other   |            | 0.2521     |            |       | 10.87

Nlocal:        2776.45 ave        3960 max           0 min
Histogram: 8 4 4 0 4 12 8 2 28 34
Nghost:        3878.85 ave        5425 max         232 min
Histogram: 8 0 8 0 16 0 8 8 16 40
Neighs:        79213.6 ave      115429 max           0 min
Histogram: 8 4 4 0 10 6 8 8 24 32

Total # of neighbors = 8238214
Ave neighs/atom = 28.530512
Neighbor list builds = 0
Dangerous builds = 0
The dot product: 7.39481436184265e-08
Setting atom values ...
  1 settings made for x
  1 settings made for y
  1 settings made for z
Setting up cg style minimization ...
  Unit style    : metal
  Current step  : 5522
Per MPI rank memory allocation (min/avg/max) = 5.441 | 5.816 | 6.074 Mbytes
Step PotEng KinEng TotEng v_fx v_fy v_fz 
    5522   -1152448.9            0   -1152448.9 0.0034915467 0.00027704052 -0.004252143 
    5700   -1152448.9            0   -1152448.9 -1.4010325e-05 -5.929889e-06 1.6735191e-05 
Loop time of 2.05637 on 104 procs for 178 steps with 288751 atoms

99.9% CPU use with 104 MPI tasks x 1 OpenMP threads

Minimization stats:
  Stopping criterion = energy tolerance
  Energy initial, next-to-last, final = 
     -1152448.86374543  -1152448.86535529  -1152448.86535529
  Force two-norm initial, final = 0.17825555 0.00018821507
  Force max component initial, final = 0.14674128 3.4944303e-05
  Final line search alpha, max atom move = 1.0000000 3.4944303e-05
  Iterations, force evaluations = 178 356

MPI task timing breakdown:
Section |  min time  |  avg time  |  max time  |%varavg| %total
---------------------------------------------------------------
Pair    | 0.54602    | 1.4975     | 1.9469     |  32.8 | 72.82
Neigh   | 0          | 0          | 0          |   0.0 |  0.00
Comm    | 0.030447   | 0.33468    | 1.0126     |  48.9 | 16.28
Output  | 0          | 0          | 0          |   0.0 |  0.00
Modify  | 2.1308e-05 | 0.0029334  | 0.0062456  |   2.6 |  0.14
Other   |            | 0.2213     |            |       | 10.76

Nlocal:        2776.45 ave        3960 max           0 min
Histogram: 8 4 4 0 4 12 8 2 28 34
Nghost:        3878.83 ave        5425 max         232 min
Histogram: 8 0 8 0 16 0 8 8 16 40
Neighs:        79213.6 ave      115430 max           0 min
Histogram: 8 4 4 0 10 6 8 8 24 32

Total # of neighbors = 8238214
Ave neighs/atom = 28.530512
Neighbor list builds = 0
Dangerous builds = 0
The dot product: 7.84179590026482e-08
Setting atom values ...
  1 settings made for x
  1 settings made for y
  1 settings made for z
Setting up cg style minimization ...
  Unit style    : metal
  Current step  : 5700
Per MPI rank memory allocation (min/avg/max) = 5.441 | 5.816 | 6.074 Mbytes
Step PotEng KinEng TotEng v_fx v_fy v_fz 
    5700   -1152448.8            0   -1152448.8 0.0060447848 0.0002195578 -0.0072931141 
    5908   -1152448.8            0   -1152448.8 2.5885433e-07 1.0532987e-06 -2.4140583e-07 
Loop time of 2.43656 on 104 procs for 208 steps with 288751 atoms

99.9% CPU use with 104 MPI tasks x 1 OpenMP threads

Minimization stats:
  Stopping criterion = energy tolerance
  Energy initial, next-to-last, final = 
     -1152448.82743268  -1152448.82914545  -1152448.82914545
  Force two-norm initial, final = 0.17955451 8.6486496e-05
  Force max component initial, final = 0.14834509 1.4190161e-05
  Final line search alpha, max atom move = 1.0000000 1.4190161e-05
  Iterations, force evaluations = 208 416

MPI task timing breakdown:
Section |  min time  |  avg time  |  max time  |%varavg| %total
---------------------------------------------------------------
Pair    | 0.63813    | 1.7461     | 2.2733     |  35.5 | 71.66
Neigh   | 0          | 0          | 0          |   0.0 |  0.00
Comm    | 0.035403   | 0.39442    | 1.1748     |  52.1 | 16.19
Output  | 0          | 0          | 0          |   0.0 |  0.00
Modify  | 2.4913e-05 | 0.0034257  | 0.0073113  |   2.8 |  0.14
Other   |            | 0.2926     |            |       | 12.01

Nlocal:        2776.45 ave        3960 max           0 min
Histogram: 8 4 4 0 4 12 8 2 28 34
Nghost:        3878.81 ave        5425 max         232 min
Histogram: 8 0 8 0 16 0 8 8 16 40
Neighs:        79213.6 ave      115430 max           0 min
Histogram: 8 4 4 0 10 6 8 8 24 32

Total # of neighbors = 8238216
Ave neighs/atom = 28.530519
Neighbor list builds = 0
Dangerous builds = 0
The dot product: -1.51508628924928e-09
Setting atom values ...
  1 settings made for x
  1 settings made for y
  1 settings made for z
Setting up cg style minimization ...
  Unit style    : metal
  Current step  : 5908
Per MPI rank memory allocation (min/avg/max) = 5.441 | 5.816 | 6.074 Mbytes
Step PotEng KinEng TotEng v_fx v_fy v_fz 
    5908   -1152448.8            0   -1152448.8 0.0077966602 0.00047667007 -0.0092962049 
    6000   -1152448.8            0   -1152448.8 -9.0739017e-05 -1.8115897e-05 0.00010733149 
    6153   -1152448.8            0   -1152448.8 3.995524e-06 5.7307175e-07 -4.7415045e-06 
Loop time of 2.84502 on 104 procs for 245 steps with 288751 atoms

99.9% CPU use with 104 MPI tasks x 1 OpenMP threads

Minimization stats:
  Stopping criterion = energy tolerance
  Energy initial, next-to-last, final = 
     -1152448.79040663  -1152448.79203051  -1152448.79203051
  Force two-norm initial, final = 0.1801567 1.9766544e-05
  Force max component initial, final = 0.14943121 4.7415045e-06
  Final line search alpha, max atom move = 1.0000000 4.7415045e-06
  Iterations, force evaluations = 245 490

MPI task timing breakdown:
Section |  min time  |  avg time  |  max time  |%varavg| %total
---------------------------------------------------------------
Pair    | 0.75042    | 2.0671     | 2.6905     |  38.7 | 72.66
Neigh   | 0          | 0          | 0          |   0.0 |  0.00
Comm    | 0.041765   | 0.46435    | 1.4        |  57.1 | 16.32
Output  | 0.0001011  | 0.000111   | 0.00022802 |   0.0 |  0.00
Modify  | 2.8965e-05 | 0.0040314  | 0.0085999  |   3.0 |  0.14
Other   |            | 0.3094     |            |       | 10.88

Nlocal:        2776.45 ave        3960 max           0 min
Histogram: 8 4 4 0 4 12 8 2 28 34
Nghost:        3878.82 ave        5425 max         232 min
Histogram: 8 0 8 0 16 0 8 8 16 40
Neighs:        79213.6 ave      115432 max           0 min
Histogram: 8 4 4 0 10 6 8 8 24 32

Total # of neighbors = 8238213
Ave neighs/atom = 28.530509
Neighbor list builds = 0
Dangerous builds = 0
The dot product: -1.40688185562941e-08
Setting atom values ...
  1 settings made for x
  1 settings made for y
  1 settings made for z
Setting up cg style minimization ...
  Unit style    : metal
  Current step  : 6153
Per MPI rank memory allocation (min/avg/max) = 5.441 | 5.816 | 6.074 Mbytes
Step PotEng KinEng TotEng v_fx v_fy v_fz 
    6153   -1152448.8            0   -1152448.8  0.010823026 0.0010313594 -0.012789538 
    6353   -1152448.8            0   -1152448.8 1.2720487e-05 2.6113652e-06 -1.493493e-05 
Loop time of 2.33958 on 104 procs for 200 steps with 288751 atoms

99.9% CPU use with 104 MPI tasks x 1 OpenMP threads

Minimization stats:
  Stopping criterion = energy tolerance
  Energy initial, next-to-last, final = 
      -1152448.7522748  -1152448.75390382  -1152448.75390382
  Force two-norm initial, final = 0.18118304 9.1613177e-05
  Force max component initial, final = 0.15078536 1.4934930e-05
  Final line search alpha, max atom move = 1.0000000 1.4934930e-05
  Iterations, force evaluations = 200 400

MPI task timing breakdown:
Section |  min time  |  avg time  |  max time  |%varavg| %total
---------------------------------------------------------------
Pair    | 0.61272    | 1.6816     | 2.1873     |  34.7 | 71.87
Neigh   | 0          | 0          | 0          |   0.0 |  0.00
Comm    | 0.03821    | 0.37692    | 1.1377     |  51.6 | 16.11
Output  | 0          | 0          | 0          |   0.0 |  0.00
Modify  | 2.385e-05  | 0.0032988  | 0.0069904  |   2.7 |  0.14
Other   |            | 0.2778     |            |       | 11.87

Nlocal:        2776.45 ave        3960 max           0 min
Histogram: 8 4 4 0 4 12 8 2 28 34
Nghost:        3878.79 ave        5425 max         232 min
Histogram: 8 0 8 0 16 0 8 8 16 40
Neighs:        79213.6 ave      115434 max           0 min
Histogram: 8 4 4 0 10 6 8 8 24 32

Total # of neighbors = 8238212
Ave neighs/atom = 28.530506
Neighbor list builds = 0
Dangerous builds = 0
The dot product: -2.69860310380315e-08
Setting atom values ...
  1 settings made for x
  1 settings made for y
  1 settings made for z
Setting up cg style minimization ...
  Unit style    : metal
  Current step  : 6353
Per MPI rank memory allocation (min/avg/max) = 5.441 | 5.816 | 6.074 Mbytes
Step PotEng KinEng TotEng v_fx v_fy v_fz 
    6353   -1152448.7            0   -1152448.7  0.013647024 0.0018884367 -0.016020595 
    6542   -1152448.7            0   -1152448.7 -1.9315219e-05 -5.2088361e-06 2.2496292e-05 
Loop time of 2.18239 on 104 procs for 189 steps with 288751 atoms

99.9% CPU use with 104 MPI tasks x 1 OpenMP threads

Minimization stats:
  Stopping criterion = energy tolerance
  Energy initial, next-to-last, final = 
      -1152448.7132104  -1152448.71499998  -1152448.71499998
  Force two-norm initial, final = 0.18169987 0.00014919796
  Force max component initial, final = 0.15189659 2.8383560e-05
  Final line search alpha, max atom move = 1.0000000 2.8383560e-05
  Iterations, force evaluations = 189 378

MPI task timing breakdown:
Section |  min time  |  avg time  |  max time  |%varavg| %total
---------------------------------------------------------------
Pair    | 0.57974    | 1.5951     | 2.0679     |  33.9 | 73.09
Neigh   | 0          | 0          | 0          |   0.0 |  0.00
Comm    | 0.032535   | 0.35907    | 1.0998     |  50.6 | 16.45
Output  | 0          | 0          | 0          |   0.0 |  0.00
Modify  | 2.2097e-05 | 0.0031153  | 0.00672    |   2.6 |  0.14
Other   |            | 0.2251     |            |       | 10.31

Nlocal:        2776.45 ave        3959 max           0 min
Histogram: 8 4 4 0 4 12 8 2 28 34
Nghost:        3878.80 ave        5425 max         232 min
Histogram: 8 0 8 0 16 0 8 8 16 40
Neighs:        79213.6 ave      115407 max           0 min
Histogram: 8 4 4 0 10 6 8 8 24 32

Total # of neighbors = 8238212
Ave neighs/atom = 28.530506
Neighbor list builds = 0
Dangerous builds = 0
The dot product: 2.86113398006433e-08
Setting atom values ...
  1 settings made for x
  1 settings made for y
  1 settings made for z
Setting up cg style minimization ...
  Unit style    : metal
  Current step  : 6542
Per MPI rank memory allocation (min/avg/max) = 5.441 | 5.816 | 6.074 Mbytes
Step PotEng KinEng TotEng v_fx v_fy v_fz 
    6542   -1152448.7            0   -1152448.7  0.015560528  0.002551212 -0.018190579 
    6774   -1152448.7            0   -1152448.7 -3.2370042e-06 -4.6393801e-07  3.78894e-06 
Loop time of 2.68302 on 104 procs for 232 steps with 288751 atoms

99.9% CPU use with 104 MPI tasks x 1 OpenMP threads

Minimization stats:
  Stopping criterion = energy tolerance
  Energy initial, next-to-last, final = 
     -1152448.67383569  -1152448.67557982  -1152448.67557982
  Force two-norm initial, final = 0.18056012 2.9551798e-05
  Force max component initial, final = 0.15188016 4.1114891e-06
  Final line search alpha, max atom move = 1.0000000 4.1114891e-06
  Iterations, force evaluations = 232 464

MPI task timing breakdown:
Section |  min time  |  avg time  |  max time  |%varavg| %total
---------------------------------------------------------------
Pair    | 0.70899    | 1.9492     | 2.5415     |  37.7 | 72.65
Neigh   | 0          | 0          | 0          |   0.0 |  0.00
Comm    | 0.039879   | 0.43479    | 1.3179     |  56.1 | 16.21
Output  | 0          | 0          | 0          |   0.0 |  0.00
Modify  | 2.7286e-05 | 0.0038254  | 0.0081547  |   2.9 |  0.14
Other   |            | 0.2952     |            |       | 11.00

Nlocal:        2776.45 ave        3959 max           0 min
Histogram: 8 4 4 0 4 12 8 2 28 34
Nghost:        3878.77 ave        5425 max         232 min
Histogram: 8 0 8 0 16 0 8 8 16 40
Neighs:        79213.5 ave      115406 max           0 min
Histogram: 8 4 4 0 10 6 8 8 24 32

Total # of neighbors = 8238205
Ave neighs/atom = 28.530481
Neighbor list builds = 0
Dangerous builds = 0
The dot product: -9.44197868096312e-10
Setting atom values ...
  1 settings made for x
  1 settings made for y
  1 settings made for z
Setting up cg style minimization ...
  Unit style    : metal
  Current step  : 6774
Per MPI rank memory allocation (min/avg/max) = 5.441 | 5.816 | 6.074 Mbytes
Step PotEng KinEng TotEng v_fx v_fy v_fz 
    6774   -1152448.6            0   -1152448.6  0.018271847 0.0037713408 -0.021313053 
    6983   -1152448.6            0   -1152448.6 8.0092617e-06 6.0404878e-06 -9.0156429e-06 
Loop time of 2.42287 on 104 procs for 209 steps with 288751 atoms

99.9% CPU use with 104 MPI tasks x 1 OpenMP threads

Minimization stats:
  Stopping criterion = energy tolerance
  Energy initial, next-to-last, final = 
     -1152448.63408395    -1152448.636071    -1152448.636071
  Force two-norm initial, final = 0.17965889 0.00014370942
  Force max component initial, final = 0.15170575 2.7660340e-05
  Final line search alpha, max atom move = 1.0000000 2.7660340e-05
  Iterations, force evaluations = 209 418

MPI task timing breakdown:
Section |  min time  |  avg time  |  max time  |%varavg| %total
---------------------------------------------------------------
Pair    | 0.63759    | 1.7606     | 2.2899     |  35.6 | 72.67
Neigh   | 0          | 0          | 0          |   0.0 |  0.00
Comm    | 0.036085   | 0.3961     | 1.193      |  52.6 | 16.35
Output  | 0          | 0          | 0          |   0.0 |  0.00
Modify  | 2.491e-05  | 0.003441   | 0.0073201  |   2.8 |  0.14
Other   |            | 0.2627     |            |       | 10.84

Nlocal:        2776.45 ave        3959 max           0 min
Histogram: 8 4 4 0 4 12 8 3 27 34
Nghost:        3878.77 ave        5425 max         232 min
Histogram: 8 0 8 0 16 0 8 8 16 40
Neighs:        79213.5 ave      115406 max           0 min
Histogram: 8 4 4 0 10 6 8 8 24 32

Total # of neighbors = 8238200
Ave neighs/atom = 28.530464
Neighbor list builds = 0
Dangerous builds = 0
The dot product: -5.75083319448285e-10
Setting atom values ...
  1 settings made for x
  1 settings made for y
  1 settings made for z
Setting up cg style minimization ...
  Unit style    : metal
  Current step  : 6983
Per MPI rank memory allocation (min/avg/max) = 5.441 | 5.816 | 6.074 Mbytes
Step PotEng KinEng TotEng v_fx v_fy v_fz 
    6983   -1152448.6            0   -1152448.6  0.020977652 0.0014173749 -0.024730929 
    7000   -1152448.6            0   -1152448.6 -0.00015148832 0.00071686531 0.00023515838 
    7193   -1152448.6            0   -1152448.6 2.1936071e-05 3.4726475e-06 -2.570597e-05 
Loop time of 2.42441 on 104 procs for 210 steps with 288751 atoms

99.9% CPU use with 104 MPI tasks x 1 OpenMP threads

Minimization stats:
  Stopping criterion = energy tolerance
  Energy initial, next-to-last, final = 
     -1152448.59530683   -1152448.5974512   -1152448.5974512
  Force two-norm initial, final = 0.1778291 0.00010257324
  Force max component initial, final = 0.14924864 2.7605575e-05
  Final line search alpha, max atom move = 1.0000000 2.7605575e-05
  Iterations, force evaluations = 210 420

MPI task timing breakdown:
Section |  min time  |  avg time  |  max time  |%varavg| %total
---------------------------------------------------------------
Pair    | 0.64404    | 1.7637     | 2.296      |  35.7 | 72.75
Neigh   | 0          | 0          | 0          |   0.0 |  0.00
Comm    | 0.036735   | 0.39358    | 1.1948     |  53.4 | 16.23
Output  | 9.2837e-05 | 0.00010051 | 0.00018106 |   0.0 |  0.00
Modify  | 2.506e-05  | 0.0034584  | 0.0074335  |   2.8 |  0.14
Other   |            | 0.2636     |            |       | 10.87

Nlocal:        2776.45 ave        3958 max           0 min
Histogram: 8 4 4 0 4 12 8 2 28 34
Nghost:        3878.75 ave        5425 max         232 min
Histogram: 8 0 8 0 16 0 8 8 16 40
Neighs:        79213.5 ave      115376 max           0 min
Histogram: 8 4 4 0 10 6 8 8 24 32

Total # of neighbors = 8238205
Ave neighs/atom = 28.530481
Neighbor list builds = 0
Dangerous builds = 0
The dot product: 1.4547300344776e-08
Setting atom values ...
  1 settings made for x
  1 settings made for y
  1 settings made for z
Setting up cg style minimization ...
  Unit style    : metal
  Current step  : 7193
Per MPI rank memory allocation (min/avg/max) = 5.441 | 5.816 | 6.074 Mbytes
Step PotEng KinEng TotEng v_fx v_fy v_fz 
    7193   -1152448.6            0   -1152448.6  0.022055363 -0.00050823038 -0.026202766 
    7424   -1152448.6            0   -1152448.6 -2.5389345e-05 -3.3684982e-06 2.9840499e-05 
Loop time of 2.67266 on 104 procs for 231 steps with 288751 atoms

99.9% CPU use with 104 MPI tasks x 1 OpenMP threads

Minimization stats:
  Stopping criterion = energy tolerance
  Energy initial, next-to-last, final = 
      -1152448.5583455  -1152448.57009642  -1152448.57009642
  Force two-norm initial, final = 0.1845811 0.00016759048
  Force max component initial, final = 0.14668031 3.7426795e-05
  Final line search alpha, max atom move = 1.0000000 3.7426795e-05
  Iterations, force evaluations = 231 462

MPI task timing breakdown:
Section |  min time  |  avg time  |  max time  |%varavg| %total
---------------------------------------------------------------
Pair    | 0.70924    | 1.9472     | 2.5278     |  37.4 | 72.86
Neigh   | 1.0308e-05 | 0.0029572  | 0.0042775  |   2.2 |  0.11
Comm    | 0.040849   | 0.43737    | 1.3159     |  55.6 | 16.36
Output  | 0          | 0          | 0          |   0.0 |  0.00
Modify  | 2.7194e-05 | 0.0037981  | 0.0081016  |   2.9 |  0.14
Other   |            | 0.2813     |            |       | 10.53

Nlocal:        2776.45 ave        3958 max           0 min
Histogram: 8 4 4 0 4 12 8 2 28 34
Nghost:        3878.75 ave        5425 max         232 min
Histogram: 8 0 8 0 16 0 8 8 16 40
Neighs:        79213.4 ave      115376 max           0 min
Histogram: 8 4 4 0 10 6 8 8 24 32

Total # of neighbors = 8238195
Ave neighs/atom = 28.530447
Neighbor list builds = 1
Dangerous builds = 0
The dot product: 5.57565867828044e-07
Setting atom values ...
  1 settings made for x
  1 settings made for y
  1 settings made for z
Setting up cg style minimization ...
  Unit style    : metal
  Current step  : 7424
Per MPI rank memory allocation (min/avg/max) = 5.441 | 5.816 | 6.074 Mbytes
Step PotEng KinEng TotEng v_fx v_fy v_fz 
    7424   -1152448.5            0   -1152448.5  0.014494717  0.002046201 -0.016401804 
    7790   -1152448.5            0   -1152448.5 3.2070851e-05 4.6256581e-06 -3.6282102e-05 
[...]
Histogram: 8 0 8 0 16 0 8 8 16 40
Neighs:        79213.2 ave      115463 max           0 min
Histogram: 8 4 4 0 10 6 8 8 24 32

Total # of neighbors = 8238174
Ave neighs/atom = 28.530374
Neighbor list builds = 0
Dangerous builds = 0
The dot product: 2.37536650945353e-08
Setting atom values ...
  1 settings made for x
  1 settings made for y
  1 settings made for z
Setting up cg style minimization ...
  Unit style    : metal
  Current step  : 27281
Per MPI rank memory allocation (min/avg/max) = 5.441 | 5.816 | 6.074 Mbytes
Step PotEng KinEng TotEng v_fx v_fy v_fz 
   27281   -1152449.1            0   -1152449.1 -0.00092014258 0.0072868164  0.009698411 
   27454   -1152449.1            0   -1152449.1 6.3324456e-09 2.849883e-06 3.5301115e-06 
Loop time of 2.03031 on 104 procs for 173 steps with 288751 atoms

99.9% CPU use with 104 MPI tasks x 1 OpenMP threads

Minimization stats:
  Stopping criterion = energy tolerance
  Energy initial, next-to-last, final = 
     -1152449.10682163  -1152449.10818108  -1152449.10818108
  Force two-norm initial, final = 0.16203259 0.00011328209
  Force max component initial, final = 0.094524548 1.2673237e-05
  Final line search alpha, max atom move = 1.0000000 1.2673237e-05
  Iterations, force evaluations = 173 346

MPI task timing breakdown:
Section |  min time  |  avg time  |  max time  |%varavg| %total
---------------------------------------------------------------
Pair    | 0.53079    | 1.4609     | 1.925      |  32.6 | 71.95
Neigh   | 0          | 0          | 0          |   0.0 |  0.00
Comm    | 0.028482   | 0.33761    | 1.0069     |  47.2 | 16.63
Output  | 0          | 0          | 0          |   0.0 |  0.00
Modify  | 2.1411e-05 | 0.0028514  | 0.0061714  |   2.5 |  0.14
Other   |            | 0.2289     |            |       | 11.28

Nlocal:        2776.45 ave        3961 max           0 min
Histogram: 8 4 4 0 6 10 8 4 26 34
Nghost:        3879.11 ave        5425 max         232 min
Histogram: 8 0 8 0 16 0 8 8 16 40
Neighs:        79213.2 ave      115463 max           0 min
Histogram: 8 4 4 0 10 6 8 8 24 32

Total # of neighbors = 8238172
Ave neighs/atom = 28.530367
Neighbor list builds = 0
Dangerous builds = 0
The dot product: 7.72046912230857e-09
Setting atom values ...
  1 settings made for x
  1 settings made for y
  1 settings made for z
Setting up cg style minimization ...
  Unit style    : metal
  Current step  : 27454
Per MPI rank memory allocation (min/avg/max) = 5.441 | 5.816 | 6.074 Mbytes
Step PotEng KinEng TotEng v_fx v_fy v_fz 
   27454   -1152449.1            0   -1152449.1 -0.001064243  0.006136811 0.0083844946 
   27615   -1152449.1            0   -1152449.1 1.3096752e-05 -2.274256e-05 -3.7642162e-05 
Loop time of 1.86016 on 104 procs for 161 steps with 288751 atoms

99.9% CPU use with 104 MPI tasks x 1 OpenMP threads

Minimization stats:
  Stopping criterion = energy tolerance
  Energy initial, next-to-last, final = 
      -1152449.0870306  -1152449.08842702  -1152449.08842702
  Force two-norm initial, final = 0.16180299 0.00019267456
  Force max component initial, final = 0.09536286 3.7642162e-05
  Final line search alpha, max atom move = 1.0000000 3.7642162e-05
  Iterations, force evaluations = 161 322

MPI task timing breakdown:
Section |  min time  |  avg time  |  max time  |%varavg| %total
---------------------------------------------------------------
Pair    | 0.49181    | 1.3519     | 1.7624     |  31.3 | 72.68
Neigh   | 0          | 0          | 0          |   0.0 |  0.00
Comm    | 0.02899    | 0.30305    | 0.91755    |  46.4 | 16.29
Output  | 0          | 0          | 0          |   0.0 |  0.00
Modify  | 1.9385e-05 | 0.0026474  | 0.0056506  |   2.4 |  0.14
Other   |            | 0.2025     |            |       | 10.89

Nlocal:        2776.45 ave        3961 max           0 min
Histogram: 8 4 4 0 6 10 8 4 26 34
Nghost:        3879.11 ave        5425 max         232 min
Histogram: 8 0 8 0 16 0 8 8 16 40
Neighs:        79213.2 ave      115463 max           0 min
Histogram: 8 4 4 0 10 6 8 8 24 32

Total # of neighbors = 8238172
Ave neighs/atom = 28.530367
Neighbor list builds = 0
Dangerous builds = 0
The dot product: -5.57601893319732e-08
Setting atom values ...
  1 settings made for x
  1 settings made for y
  1 settings made for z
Setting up cg style minimization ...
  Unit style    : metal
  Current step  : 27615
Per MPI rank memory allocation (min/avg/max) = 5.441 | 5.816 | 6.074 Mbytes
Step PotEng KinEng TotEng v_fx v_fy v_fz 
   27615   -1152449.1            0   -1152449.1 -0.001172795 0.0051724719 0.0072724955 
   27799   -1152449.1            0   -1152449.1 -1.1606904e-05 3.1751362e-06 1.2275327e-05 
Loop time of 2.15137 on 104 procs for 184 steps with 288751 atoms

99.9% CPU use with 104 MPI tasks x 1 OpenMP threads

Minimization stats:
  Stopping criterion = energy tolerance
  Energy initial, next-to-last, final = 
     -1152449.06623219  -1152449.06761824  -1152449.06761824
  Force two-norm initial, final = 0.16179733 9.5637117e-05
  Force max component initial, final = 0.096113936 2.5967257e-05
  Final line search alpha, max atom move = 1.0000000 2.5967257e-05
  Iterations, force evaluations = 184 368

MPI task timing breakdown:
Section |  min time  |  avg time  |  max time  |%varavg| %total
---------------------------------------------------------------
Pair    | 0.56321    | 1.5531     | 2.0332     |  33.7 | 72.19
Neigh   | 0          | 0          | 0          |   0.0 |  0.00
Comm    | 0.030991   | 0.35772    | 1.0763     |  49.1 | 16.63
Output  | 0          | 0          | 0          |   0.0 |  0.00
Modify  | 2.2606e-05 | 0.0030319  | 0.0065758  |   2.6 |  0.14
Other   |            | 0.2375     |            |       | 11.04

Nlocal:        2776.45 ave        3961 max           0 min
Histogram: 8 4 4 0 6 10 8 4 26 34
Nghost:        3879.14 ave        5425 max         232 min
Histogram: 8 0 8 0 16 0 8 8 16 40
Neighs:        79213.2 ave      115477 max           0 min
Histogram: 8 4 4 0 10 6 8 8 24 32

Total # of neighbors = 8238171
Ave neighs/atom = 28.530364
Neighbor list builds = 0
Dangerous builds = 0
The dot product: 1.21109852729189e-09
Setting atom values ...
  1 settings made for x
  1 settings made for y
  1 settings made for z
Setting up cg style minimization ...
  Unit style    : metal
  Current step  : 27799
Per MPI rank memory allocation (min/avg/max) = 5.441 | 5.816 | 6.074 Mbytes
Step PotEng KinEng TotEng v_fx v_fy v_fz 
   27799     -1152449            0     -1152449 -0.0011718801 0.0043042137 0.0061977265 
   27992     -1152449            0     -1152449 -1.0846347e-06 -9.5827863e-06 -1.1149493e-05 
Loop time of 2.22674 on 104 procs for 193 steps with 288751 atoms

99.9% CPU use with 104 MPI tasks x 1 OpenMP threads

Minimization stats:
  Stopping criterion = energy tolerance
  Energy initial, next-to-last, final = 
     -1152449.04427341  -1152449.04562655  -1152449.04562655
  Force two-norm initial, final = 0.1619481 8.2440549e-05
  Force max component initial, final = 0.096824281 2.2553675e-05
  Final line search alpha, max atom move = 1.0000000 2.2553675e-05
  Iterations, force evaluations = 193 386

MPI task timing breakdown:
Section |  min time  |  avg time  |  max time  |%varavg| %total
---------------------------------------------------------------
Pair    | 0.59328    | 1.6212     | 2.1096     |  34.2 | 72.81
Neigh   | 0          | 0          | 0          |   0.0 |  0.00
Comm    | 0.031868   | 0.36463    | 1.114      |  50.9 | 16.37
Output  | 0          | 0          | 0          |   0.0 |  0.00
Modify  | 2.3e-05    | 0.0031942  | 0.0069071  |   2.7 |  0.14
Other   |            | 0.2377     |            |       | 10.67

Nlocal:        2776.45 ave        3960 max           0 min
Histogram: 8 4 4 0 4 12 8 4 26 34
Nghost:        3879.14 ave        5425 max         232 min
Histogram: 8 0 8 0 16 0 8 8 16 40
Neighs:        79213.2 ave      115441 max           0 min
Histogram: 8 4 4 0 10 6 8 8 24 32

Total # of neighbors = 8238170
Ave neighs/atom = 28.530360
Neighbor list builds = 0
Dangerous builds = 0
The dot product: -2.00163072782747e-08
Setting atom values ...
  1 settings made for x
  1 settings made for y
  1 settings made for z
Setting up cg style minimization ...
  Unit style    : metal
  Current step  : 27992
Per MPI rank memory allocation (min/avg/max) = 5.441 | 5.816 | 6.074 Mbytes
Step PotEng KinEng TotEng v_fx v_fy v_fz 
   27992     -1152449            0     -1152449 -0.00084851221 0.0035131886 0.0049849036 
   28000     -1152449            0     -1152449 -0.0026789395  -0.00019676  0.001675361 
   28155     -1152449            0     -1152449 7.3496236e-05 2.1792896e-05 -2.5539075e-05 
Loop time of 1.89946 on 104 procs for 163 steps with 288751 atoms

99.9% CPU use with 104 MPI tasks x 1 OpenMP threads

Minimization stats:
  Stopping criterion = energy tolerance
  Energy initial, next-to-last, final = 
     -1152449.02101168  -1152449.02234417  -1152449.02234417
  Force two-norm initial, final = 0.16218949 0.00024534995
  Force max component initial, final = 0.097489603 7.3496236e-05
  Final line search alpha, max atom move = 1.0000000 7.3496236e-05
  Iterations, force evaluations = 163 326

MPI task timing breakdown:
Section |  min time  |  avg time  |  max time  |%varavg| %total
---------------------------------------------------------------
Pair    | 0.50057    | 1.378      | 1.7922     |  31.6 | 72.54
Neigh   | 0          | 0          | 0          |   0.0 |  0.00
Comm    | 0.031642   | 0.31472    | 0.94592    |  46.4 | 16.57
Output  | 9.5309e-05 | 9.7498e-05 | 0.0001882  |   0.0 |  0.01
Modify  | 2.0284e-05 | 0.0026873  | 0.0057282  |   2.4 |  0.14
Other   |            | 0.204      |            |       | 10.74

Nlocal:        2776.45 ave        3960 max           0 min
Histogram: 8 4 4 0 4 12 8 4 26 34
Nghost:        3879.16 ave        5425 max         232 min
Histogram: 8 0 8 0 16 0 8 8 16 40
Neighs:        79213.2 ave      115435 max           0 min
Histogram: 8 4 4 0 10 6 8 8 24 32

Total # of neighbors = 8238171
Ave neighs/atom = 28.530364
Neighbor list builds = 0
Dangerous builds = 0
The dot product: 7.83840244683478e-08
Setting atom values ...
  1 settings made for x
  1 settings made for y
  1 settings made for z
Setting up cg style minimization ...
  Unit style    : metal
  Current step  : 28155
Per MPI rank memory allocation (min/avg/max) = 5.441 | 5.816 | 6.074 Mbytes
Step PotEng KinEng TotEng v_fx v_fy v_fz 
   28155     -1152449            0     -1152449 -0.00016830645 0.0028725014 0.0037017276 
   28335     -1152449            0     -1152449 -2.410765e-05 -4.9587829e-07 1.6656771e-05 
Loop time of 2.12434 on 104 procs for 180 steps with 288751 atoms

99.9% CPU use with 104 MPI tasks x 1 OpenMP threads

Minimization stats:
  Stopping criterion = energy tolerance
  Energy initial, next-to-last, final = 
     -1152448.99635788  -1152448.99767245  -1152448.99767245
  Force two-norm initial, final = 0.16261486 0.0001373083
  Force max component initial, final = 0.098055141 3.3398566e-05
  Final line search alpha, max atom move = 1.0000000 3.3398566e-05
  Iterations, force evaluations = 180 360

MPI task timing breakdown:
Section |  min time  |  avg time  |  max time  |%varavg| %total
---------------------------------------------------------------
Pair    | 0.55186    | 1.5146     | 1.9812     |  33.1 | 71.30
Neigh   | 0          | 0          | 0          |   0.0 |  0.00
Comm    | 0.03893    | 0.34345    | 1.0295     |  48.7 | 16.17
Output  | 0          | 0          | 0          |   0.0 |  0.00
Modify  | 2.1307e-05 | 0.002964   | 0.0063558  |   2.6 |  0.14
Other   |            | 0.2633     |            |       | 12.40

Nlocal:        2776.45 ave        3960 max           0 min
Histogram: 8 4 4 0 4 12 8 4 26 34
Nghost:        3879.18 ave        5425 max         232 min
Histogram: 8 0 8 0 16 0 8 8 16 40
Neighs:        79213.2 ave      115437 max           0 min
Histogram: 8 4 4 0 10 6 8 8 24 32

Total # of neighbors = 8238173
Ave neighs/atom = 28.530370
Neighbor list builds = 0
Dangerous builds = 0
The dot product: -2.00061995885955e-08
Setting atom values ...
  1 settings made for x
  1 settings made for y
  1 settings made for z
Setting up cg style minimization ...
  Unit style    : metal
  Current step  : 28335
Per MPI rank memory allocation (min/avg/max) = 5.441 | 5.816 | 6.074 Mbytes
Step PotEng KinEng TotEng v_fx v_fy v_fz 
   28335     -1152449            0     -1152449 0.00055063768 0.0022507632 0.0024131463 
   28540     -1152449            0     -1152449 5.7899963e-06 9.9528115e-06 8.2681367e-06 
Loop time of 2.39837 on 104 procs for 205 steps with 288751 atoms

99.9% CPU use with 104 MPI tasks x 1 OpenMP threads

Minimization stats:
  Stopping criterion = energy tolerance
  Energy initial, next-to-last, final = 
     -1152448.97021171  -1152448.97151178  -1152448.97151178
  Force two-norm initial, final = 0.16329333 6.7004584e-05
  Force max component initial, final = 0.098707728 1.5300028e-05
  Final line search alpha, max atom move = 1.0000000 1.5300028e-05
  Iterations, force evaluations = 205 410

MPI task timing breakdown:
Section |  min time  |  avg time  |  max time  |%varavg| %total
---------------------------------------------------------------
Pair    | 0.62943    | 1.7299     | 2.2732     |  35.5 | 72.13
Neigh   | 0          | 0          | 0          |   0.0 |  0.00
Comm    | 0.035453   | 0.40247    | 1.1941     |  51.5 | 16.78
Output  | 0          | 0          | 0          |   0.0 |  0.00
Modify  | 2.4054e-05 | 0.00338    | 0.0072121  |   2.7 |  0.14
Other   |            | 0.2626     |            |       | 10.95

Nlocal:        2776.45 ave        3960 max           0 min
Histogram: 8 4 4 0 4 12 8 4 26 34
Nghost:        3879.14 ave        5425 max         232 min
Histogram: 8 0 8 0 16 0 8 8 16 40
Neighs:        79213.2 ave      115439 max           0 min
Histogram: 8 4 4 0 10 6 8 8 24 32

Total # of neighbors = 8238171
Ave neighs/atom = 28.530364
Neighbor list builds = 0
Dangerous builds = 0
The dot product: 1.36965798022537e-08
Setting atom values ...
  1 settings made for x
  1 settings made for y
  1 settings made for z
Setting up cg style minimization ...
  Unit style    : metal
  Current step  : 28540
Per MPI rank memory allocation (min/avg/max) = 5.441 | 5.816 | 6.074 Mbytes
Step PotEng KinEng TotEng v_fx v_fy v_fz 
   28540   -1152448.9            0   -1152448.9 0.0014267015 0.0017470506 0.0011589722 
   28718   -1152448.9            0   -1152448.9 7.4173531e-06 6.7433833e-06 3.1063874e-06 
Loop time of 2.06619 on 104 procs for 178 steps with 288751 atoms

99.9% CPU use with 104 MPI tasks x 1 OpenMP threads

Minimization stats:
  Stopping criterion = energy tolerance
  Energy initial, next-to-last, final = 
     -1152448.94248208  -1152448.94377611  -1152448.94377611
  Force two-norm initial, final = 0.16415484 0.00014907688
  Force max component initial, final = 0.099236948 1.4027569e-05
  Final line search alpha, max atom move = 1.0000000 1.4027569e-05
  Iterations, force evaluations = 178 356

MPI task timing breakdown:
Section |  min time  |  avg time  |  max time  |%varavg| %total
---------------------------------------------------------------
Pair    | 0.5467     | 1.5018     | 1.9578     |  33.0 | 72.69
Neigh   | 0          | 0          | 0          |   0.0 |  0.00
Comm    | 0.030049   | 0.3394     | 1.0265     |  48.9 | 16.43
Output  | 0          | 0          | 0          |   0.0 |  0.00
Modify  | 2.1332e-05 | 0.002933   | 0.0063249  |   2.6 |  0.14
Other   |            | 0.222      |            |       | 10.75

Nlocal:        2776.45 ave        3960 max           0 min
Histogram: 8 4 4 0 4 12 8 4 26 34
Nghost:        3879.14 ave        5425 max         232 min
Histogram: 8 0 8 0 16 0 8 8 16 40
Neighs:        79213.2 ave      115439 max           0 min
Histogram: 8 4 4 0 10 6 8 8 24 32

Total # of neighbors = 8238172
Ave neighs/atom = 28.530367
Neighbor list builds = 0
Dangerous builds = 0
The dot product: 1.232194033989e-08
Setting atom values ...
  1 settings made for x
  1 settings made for y
  1 settings made for z
Setting up cg style minimization ...
  Unit style    : metal
  Current step  : 28718
Per MPI rank memory allocation (min/avg/max) = 5.441 | 5.816 | 6.074 Mbytes
Step PotEng KinEng TotEng v_fx v_fy v_fz 
   28718   -1152448.9            0   -1152448.9 0.0020904388 0.0013014324 0.00012970397 
   28912   -1152448.9            0   -1152448.9 1.9550403e-05 -4.6940705e-06 -1.9834733e-05 
Loop time of 2.27983 on 104 procs for 194 steps with 288751 atoms

99.9% CPU use with 104 MPI tasks x 1 OpenMP threads

Minimization stats:
  Stopping criterion = energy tolerance
  Energy initial, next-to-last, final = 
     -1152448.91309881  -1152448.91439265  -1152448.91439265
  Force two-norm initial, final = 0.16521277 0.00010960931
  Force max component initial, final = 0.099770653 2.3414498e-05
  Final line search alpha, max atom move = 1.0000000 2.3414498e-05
  Iterations, force evaluations = 194 388

MPI task timing breakdown:
Section |  min time  |  avg time  |  max time  |%varavg| %total
---------------------------------------------------------------
Pair    | 0.59234    | 1.6347     | 2.1568     |  34.6 | 71.70
Neigh   | 0          | 0          | 0          |   0.0 |  0.00
Comm    | 0.034401   | 0.3789     | 1.1386     |  50.0 | 16.62
Output  | 0          | 0          | 0          |   0.0 |  0.00
Modify  | 2.4918e-05 | 0.00319    | 0.0068632  |   2.7 |  0.14
Other   |            | 0.2631     |            |       | 11.54

Nlocal:        2776.45 ave        3960 max           0 min
Histogram: 8 4 4 0 4 12 8 4 26 34
Nghost:        3879.10 ave        5426 max         232 min
Histogram: 8 0 8 0 16 0 8 8 16 40
Neighs:        79213.2 ave      115444 max           0 min
Histogram: 8 4 4 0 10 6 8 8 24 32

Total # of neighbors = 8238170
Ave neighs/atom = 28.530360
Neighbor list builds = 0
Dangerous builds = 0
The dot product: 2.72564416928641e-08
Setting atom values ...
  1 settings made for x
  1 settings made for y
  1 settings made for z
Setting up cg style minimization ...
  Unit style    : metal
  Current step  : 28912
Per MPI rank memory allocation (min/avg/max) = 5.441 | 5.816 | 6.074 Mbytes
Step PotEng KinEng TotEng v_fx v_fy v_fz 
   28912   -1152448.9            0   -1152448.9 0.0023703289 0.00088745668 -0.00058515472 
   29000   -1152448.9            0   -1152448.9 -4.1621181e-05 -0.00011345061 -0.00011187032 
   29136   -1152448.9            0   -1152448.9 8.7177068e-07 1.495162e-06 1.2434904e-06 
Loop time of 2.58628 on 104 procs for 224 steps with 288751 atoms

99.9% CPU use with 104 MPI tasks x 1 OpenMP threads

Minimization stats:
  Stopping criterion = energy tolerance
  Energy initial, next-to-last, final = 
     -1152448.88200282    -1152448.883299    -1152448.883299
  Force two-norm initial, final = 0.16636755 3.4447124e-05
  Force max component initial, final = 0.10028666 8.9155319e-06
  Final line search alpha, max atom move = 1.0000000 8.9155319e-06
  Iterations, force evaluations = 224 448

MPI task timing breakdown:
Section |  min time  |  avg time  |  max time  |%varavg| %total
---------------------------------------------------------------
Pair    | 0.68557    | 1.8808     | 2.4515     |  36.8 | 72.72
Neigh   | 0          | 0          | 0          |   0.0 |  0.00
Comm    | 0.037674   | 0.42326    | 1.2895     |  54.9 | 16.37
Output  | 9.5347e-05 | 0.00010779 | 0.00024621 |   0.0 |  0.00
Modify  | 2.7806e-05 | 0.0036931  | 0.0078938  |   2.9 |  0.14
Other   |            | 0.2784     |            |       | 10.76

Nlocal:        2776.45 ave        3960 max           0 min
Histogram: 8 4 4 0 4 12 8 4 26 34
Nghost:        3879.07 ave        5426 max         232 min
Histogram: 8 0 8 0 16 0 8 8 16 40
Neighs:        79213.2 ave      115437 max           0 min
Histogram: 8 4 4 0 10 6 8 8 24 32

Total # of neighbors = 8238169
Ave neighs/atom = 28.530357
Neighbor list builds = 0
Dangerous builds = 0
The dot product: 1.29962808707818e-09
