LAMMPS (29 Oct 2020)
OMP_NUM_THREADS environment is not set. Defaulting to 1 thread. (../comm.cpp:94)
  using 1 OpenMP thread(s) per MPI task
OMP_NUM_THREADS environment is not set. Defaulting to 1 thread. (../comm.cpp:94)
  using 1 OpenMP thread(s) per MPI task
Reading data file ...
  orthogonal box = (-122.39241 -121.13707 -37.090501) to (122.39241 121.13707 37.090501)
  13 by 4 by 2 MPI processor grid
  reading atoms ...
  288751 atoms
  read_data CPU = 0.449 seconds
199981 atoms in group inner
88770 atoms in group outer
1 atoms in group carbon
Neighbor list info ...
  update every 1 steps, delay 0 steps, check yes
  max neighbors/atom: 2000, page size: 100000
  master list distance cutoff = 5.6
  ghost atom cutoff = 5.6
  binsize = 2.8, bins = 88 87 27
  1 neighbor lists, perpetual/occasional/extra = 1 0 0
  (1) pair eam/alloy, perpetual
      attributes: half, newton on
      pair build: half/bin/atomonly/newton
      stencil: half/bin/3d/newton
      bin: standard
Setting up cg style minimization ...
  Unit style    : metal
  Current step  : 0
Per MPI rank memory allocation (min/avg/max) = 5.441 | 5.816 | 6.074 Mbytes
Step v_fx v_fy v_fz PotEng KinEng TotEng 
       0    12.585061    22.666174    13.181776   -1152441.8            0   -1152441.8 
     219 1.7603367e-05 3.8128962e-05 4.8561171e-05     -1152449            0     -1152449 
Loop time of 2.65841 on 104 procs for 219 steps with 288751 atoms

99.8% CPU use with 104 MPI tasks x 1 OpenMP threads

Minimization stats:
  Stopping criterion = energy tolerance
  Energy initial, next-to-last, final = 
     -1152441.79648195   -1152448.9721878   -1152448.9721878
  Force two-norm initial, final = 47.391371 0.00023110492
  Force max component initial, final = 28.717760 5.3252410e-05
  Final line search alpha, max atom move = 1.0000000 5.3252410e-05
  Iterations, force evaluations = 219 435

MPI task timing breakdown:
Section |  min time  |  avg time  |  max time  |%varavg| %total
---------------------------------------------------------------
Pair    | 0.69651    | 1.8465     | 2.4062     |  35.9 | 69.46
Neigh   | 9.563e-05  | 0.026384   | 0.038007   |   6.7 |  0.99
Comm    | 0.043499   | 0.42822    | 1.2519     |  52.2 | 16.11
Output  | 0          | 0          | 0          |   0.0 |  0.00
Modify  | 2.3647e-05 | 0.0023586  | 0.0059732  |   3.0 |  0.09
Other   |            | 0.3549     |            |       | 13.35

Nlocal:        2776.45 ave        3960 max           0 min
Histogram: 8 4 4 0 4 12 8 2 28 34
Nghost:        3879.06 ave        5424 max         232 min
Histogram: 8 0 8 0 16 0 8 8 16 40
Neighs:        79213.7 ave      115427 max           0 min
Histogram: 8 4 4 0 10 6 8 8 24 32

Total # of neighbors = 8238221
Ave neighs/atom = 28.530537
Neighbor list builds = 9
Dangerous builds = 1
Setting atom values ...
  1 settings made for x
  1 settings made for y
  1 settings made for z
Setting up cg style minimization ...
  Unit style    : metal
  Current step  : 219
Per MPI rank memory allocation (min/avg/max) = 5.441 | 5.816 | 6.074 Mbytes
Step PotEng KinEng TotEng v_fx v_fy v_fz 
     219     -1152449            0     -1152449 0.0058270165 0.0033924809  0.025359988 
     351     -1152449            0     -1152449 -1.5956711e-06 9.3080743e-06 2.5739895e-05 
Loop time of 1.57512 on 104 procs for 132 steps with 288751 atoms

99.9% CPU use with 104 MPI tasks x 1 OpenMP threads

Minimization stats:
  Stopping criterion = energy tolerance
  Energy initial, next-to-last, final = 
     -1152448.97137306  -1152448.97197085  -1152448.97197085
  Force two-norm initial, final = 0.10771597 7.9245266e-05
  Force max component initial, final = 0.040170904 2.5739895e-05
  Final line search alpha, max atom move = 1.0000000 2.5739895e-05
  Iterations, force evaluations = 132 264

MPI task timing breakdown:
Section |  min time  |  avg time  |  max time  |%varavg| %total
---------------------------------------------------------------
Pair    | 0.4018     | 1.1219     | 1.4567     |  28.7 | 71.23
Neigh   | 0          | 0          | 0          |   0.0 |  0.00
Comm    | 0.029964   | 0.25772    | 0.76766    |  41.4 | 16.36
Output  | 0          | 0          | 0          |   0.0 |  0.00
Modify  | 1.8074e-05 | 0.002192   | 0.0046602  |   2.2 |  0.14
Other   |            | 0.1933     |            |       | 12.27

Nlocal:        2776.45 ave        3960 max           0 min
Histogram: 8 4 4 0 4 12 8 2 28 34
Nghost:        3879.12 ave        5424 max         232 min
Histogram: 8 0 8 0 16 0 8 8 16 40
Neighs:        79213.5 ave      115425 max           0 min
Histogram: 8 4 4 0 10 6 8 8 24 32

Total # of neighbors = 8238206
Ave neighs/atom = 28.530485
Neighbor list builds = 0
Dangerous builds = 0
Setting atom values ...
  1 settings made for x
  1 settings made for y
  1 settings made for z
Setting up cg style minimization ...
  Unit style    : metal
  Current step  : 351
Per MPI rank memory allocation (min/avg/max) = 5.441 | 5.816 | 6.074 Mbytes
Step PotEng KinEng TotEng v_fx v_fy v_fz 
     351     -1152449            0     -1152449  0.021950105 0.0047693901  0.031899627 
     570     -1152449            0     -1152449 -5.521066e-06 -3.5730761e-05 -6.3650738e-05 
Loop time of 2.59354 on 104 procs for 219 steps with 288751 atoms

99.9% CPU use with 104 MPI tasks x 1 OpenMP threads

Minimization stats:
  Stopping criterion = energy tolerance
  Energy initial, next-to-last, final = 
     -1152448.96921482  -1152448.97081898  -1152448.97081898
  Force two-norm initial, final = 0.16504519 0.00019127681
  Force max component initial, final = 0.082291068 6.3650738e-05
  Final line search alpha, max atom move = 1.0000000 6.3650738e-05
  Iterations, force evaluations = 219 438

MPI task timing breakdown:
Section |  min time  |  avg time  |  max time  |%varavg| %total
---------------------------------------------------------------
Pair    | 0.66012    | 1.8447     | 2.4084     |  36.9 | 71.13
Neigh   | 0          | 0          | 0          |   0.0 |  0.00
Comm    | 0.0407     | 0.42282    | 1.2582     |  53.2 | 16.30
Output  | 0          | 0          | 0          |   0.0 |  0.00
Modify  | 2.7414e-05 | 0.0036222  | 0.0076832  |   2.8 |  0.14
Other   |            | 0.3224     |            |       | 12.43

Nlocal:        2776.45 ave        3960 max           0 min
Histogram: 8 4 4 0 4 12 8 2 28 34
Nghost:        3879.15 ave        5425 max         232 min
Histogram: 8 0 8 0 16 0 8 8 16 40
Neighs:        79213.5 ave      115423 max           0 min
Histogram: 8 4 4 0 10 6 8 8 24 32

Total # of neighbors = 8238205
Ave neighs/atom = 28.530481
Neighbor list builds = 0
Dangerous builds = 0
The dot product: -8.22361686526429e-07
Setting atom values ...
  1 settings made for x
  1 settings made for y
  1 settings made for z
Setting up cg style minimization ...
  Unit style    : metal
  Current step  : 570
Per MPI rank memory allocation (min/avg/max) = 5.441 | 5.816 | 6.074 Mbytes
Step PotEng KinEng TotEng v_fx v_fy v_fz 
     570     -1152449            0     -1152449  0.031107348 -0.0011522223  0.013725016 
     756     -1152449            0     -1152449 2.4499096e-06 9.7153991e-06 8.9241478e-06 
Loop time of 2.19307 on 104 procs for 186 steps with 288751 atoms

99.9% CPU use with 104 MPI tasks x 1 OpenMP threads

Minimization stats:
  Stopping criterion = energy tolerance
  Energy initial, next-to-last, final = 
     -1152448.96730492  -1152448.96902411  -1152448.96902411
  Force two-norm initial, final = 0.15539971 0.00019628627
  Force max component initial, final = 0.096309939 2.0078094e-05
  Final line search alpha, max atom move = 1.0000000 2.0078094e-05
  Iterations, force evaluations = 186 372

MPI task timing breakdown:
Section |  min time  |  avg time  |  max time  |%varavg| %total
---------------------------------------------------------------
Pair    | 0.56012    | 1.5751     | 2.049      |  34.1 | 71.82
Neigh   | 0          | 0          | 0          |   0.0 |  0.00
Comm    | 0.032836   | 0.36157    | 1.1001     |  49.6 | 16.49
Output  | 0          | 0          | 0          |   0.0 |  0.00
Modify  | 2.2623e-05 | 0.0030768  | 0.0065622  |   2.6 |  0.14
Other   |            | 0.2533     |            |       | 11.55

Nlocal:        2776.45 ave        3960 max           0 min
Histogram: 8 4 4 0 4 12 8 2 28 34
Nghost:        3879.12 ave        5424 max         232 min
Histogram: 8 0 8 0 16 0 8 8 16 40
Neighs:        79213.4 ave      115417 max           0 min
Histogram: 8 4 4 0 10 6 8 8 24 32

Total # of neighbors = 8238198
Ave neighs/atom = 28.530457
Neighbor list builds = 0
Dangerous builds = 0
The dot product: 1.76685272455127e-07
Setting atom values ...
  1 settings made for x
  1 settings made for y
  1 settings made for z
Setting up cg style minimization ...
  Unit style    : metal
  Current step  : 756
Per MPI rank memory allocation (min/avg/max) = 5.441 | 5.816 | 6.074 Mbytes
Step PotEng KinEng TotEng v_fx v_fy v_fz 
     756     -1152449            0     -1152449  0.026815998 -0.019134082 -0.0033582902 
    1000     -1152449            0     -1152449 -5.7298683e-06 -1.2155605e-05 -7.3093222e-06 
    1014     -1152449            0     -1152449 -2.9220747e-06 -6.9128076e-06 -4.0802649e-06 
Loop time of 3.0521 on 104 procs for 258 steps with 288751 atoms

99.9% CPU use with 104 MPI tasks x 1 OpenMP threads

Minimization stats:
  Stopping criterion = energy tolerance
  Energy initial, next-to-last, final = 
     -1152448.96468994  -1152448.96687433  -1152448.96687433
  Force two-norm initial, final = 0.15921805 3.9406556e-05
  Force max component initial, final = 0.099274039 6.9128076e-06
  Final line search alpha, max atom move = 1.0000000 6.9128076e-06
  Iterations, force evaluations = 258 516

MPI task timing breakdown:
Section |  min time  |  avg time  |  max time  |%varavg| %total
---------------------------------------------------------------
Pair    | 0.77834    | 2.1686     | 2.8258     |  39.7 | 71.05
Neigh   | 0          | 0          | 0          |   0.0 |  0.00
Comm    | 0.050524   | 0.49691    | 1.4859     |  57.8 | 16.28
Output  | 0.00049421 | 0.00049854 | 0.00064874 |   0.0 |  0.02
Modify  | 3.1371e-05 | 0.0042658  | 0.0090295  |   3.1 |  0.14
Other   |            | 0.3818     |            |       | 12.51

Nlocal:        2776.45 ave        3960 max           0 min
Histogram: 8 4 4 0 4 12 8 2 28 34
Nghost:        3879.08 ave        5424 max         232 min
Histogram: 8 0 8 0 16 0 8 8 16 40
Neighs:        79213.5 ave      115432 max           0 min
Histogram: 8 4 4 0 10 6 8 8 24 32

Total # of neighbors = 8238202
Ave neighs/atom = 28.530471
Neighbor list builds = 0
Dangerous builds = 0
The dot product: -2.66995815168689e-07
Setting atom values ...
  1 settings made for x
  1 settings made for y
  1 settings made for z
Setting up cg style minimization ...
  Unit style    : metal
  Current step  : 1014
Per MPI rank memory allocation (min/avg/max) = 5.441 | 5.816 | 6.074 Mbytes
Step PotEng KinEng TotEng v_fx v_fy v_fz 
    1014     -1152449            0     -1152449  0.018138437 -0.032756389 -0.0035430487 
    1184     -1152449            0     -1152449 -1.485153e-06 -4.6600017e-06 -5.523112e-07 
Loop time of 1.98748 on 104 procs for 170 steps with 288751 atoms

99.9% CPU use with 104 MPI tasks x 1 OpenMP threads

Minimization stats:
  Stopping criterion = energy tolerance
  Energy initial, next-to-last, final = 
      -1152448.9624755   -1152448.9652975   -1152448.9652975
  Force two-norm initial, final = 0.18183021 7.2162105e-05
  Force max component initial, final = 0.087958946 1.4223758e-05
  Final line search alpha, max atom move = 1.0000000 1.4223758e-05
  Iterations, force evaluations = 170 340

MPI task timing breakdown:
Section |  min time  |  avg time  |  max time  |%varavg| %total
---------------------------------------------------------------
Pair    | 0.51202    | 1.4349     | 1.8639     |  32.5 | 72.20
Neigh   | 0          | 0          | 0          |   0.0 |  0.00
Comm    | 0.030168   | 0.32399    | 0.97677    |  47.6 | 16.30
Output  | 0          | 0          | 0          |   0.0 |  0.00
Modify  | 2.0336e-05 | 0.0028107  | 0.0059747  |   2.5 |  0.14
Other   |            | 0.2257     |            |       | 11.36

Nlocal:        2776.45 ave        3960 max           0 min
Histogram: 8 4 4 0 4 12 8 2 28 34
Nghost:        3879.08 ave        5424 max         232 min
Histogram: 8 0 8 0 16 0 8 8 16 40
Neighs:        79213.6 ave      115435 max           0 min
Histogram: 8 4 4 0 10 6 8 8 24 32

Total # of neighbors = 8238211
Ave neighs/atom = 28.530502
Neighbor list builds = 0
Dangerous builds = 0
The dot product: -1.16429708385955e-07
Setting atom values ...
  1 settings made for x
  1 settings made for y
  1 settings made for z
Setting up cg style minimization ...
  Unit style    : metal
  Current step  : 1184
Per MPI rank memory allocation (min/avg/max) = 5.441 | 5.816 | 6.074 Mbytes
Step PotEng KinEng TotEng v_fx v_fy v_fz 
    1184     -1152449            0     -1152449 0.0063799913 -0.051681625 0.0040541936 
    1390     -1152449            0     -1152449 1.4081278e-05 2.9691084e-05 -4.0183204e-06 
Loop time of 2.42591 on 104 procs for 206 steps with 288751 atoms

99.9% CPU use with 104 MPI tasks x 1 OpenMP threads

Minimization stats:
  Stopping criterion = energy tolerance
  Energy initial, next-to-last, final = 
     -1152448.96075092  -1152448.96402151  -1152448.96402151
  Force two-norm initial, final = 0.20212735 0.00016405218
  Force max component initial, final = 0.084701602 4.0520221e-05
  Final line search alpha, max atom move = 1.0000000 4.0520221e-05
  Iterations, force evaluations = 206 412

MPI task timing breakdown:
Section |  min time  |  avg time  |  max time  |%varavg| %total
---------------------------------------------------------------
Pair    | 0.62295    | 1.7308     | 2.2557     |  35.5 | 71.34
Neigh   | 0          | 0          | 0          |   0.0 |  0.00
Comm    | 0.045558   | 0.39547    | 1.1987     |  51.9 | 16.30
Output  | 0          | 0          | 0          |   0.0 |  0.00
Modify  | 2.5578e-05 | 0.0034127  | 0.0072476  |   2.7 |  0.14
Other   |            | 0.2963     |            |       | 12.21

Nlocal:        2776.45 ave        3960 max           0 min
Histogram: 8 4 4 0 4 12 8 2 28 34
Nghost:        3879.12 ave        5424 max         232 min
Histogram: 8 0 8 0 16 0 8 8 16 40
Neighs:        79213.6 ave      115432 max           0 min
Histogram: 8 4 4 0 10 6 8 8 24 32

Total # of neighbors = 8238212
Ave neighs/atom = 28.530506
Neighbor list builds = 0
Dangerous builds = 0
The dot product: 4.78041388909581e-07
Setting atom values ...
  1 settings made for x
  1 settings made for y
  1 settings made for z
Setting up cg style minimization ...
  Unit style    : metal
  Current step  : 1390
Per MPI rank memory allocation (min/avg/max) = 5.441 | 5.816 | 6.074 Mbytes
Step PotEng KinEng TotEng v_fx v_fy v_fz 
    1390     -1152449            0     -1152449 -5.6124486e-05 -0.061173825  0.012074963 
    1586     -1152449            0     -1152449 -4.2575411e-06 -9.8855907e-06 2.5731161e-06 
Loop time of 2.31076 on 104 procs for 196 steps with 288751 atoms

99.9% CPU use with 104 MPI tasks x 1 OpenMP threads

Minimization stats:
  Stopping criterion = energy tolerance
  Energy initial, next-to-last, final = 
     -1152448.95984585  -1152448.96232701  -1152448.96232701
  Force two-norm initial, final = 0.21410085 9.8897404e-05
  Force max component initial, final = 0.095130265 2.4982592e-05
  Final line search alpha, max atom move = 1.0000000 2.4982592e-05
  Iterations, force evaluations = 196 392

MPI task timing breakdown:
Section |  min time  |  avg time  |  max time  |%varavg| %total
---------------------------------------------------------------
Pair    | 0.58666    | 1.6534     | 2.1542     |  34.9 | 71.55
Neigh   | 0          | 0          | 0          |   0.0 |  0.00
Comm    | 0.034868   | 0.37807    | 1.135      |  50.4 | 16.36
Output  | 0          | 0          | 0          |   0.0 |  0.00
Modify  | 2.3701e-05 | 0.0032417  | 0.0068847  |   2.7 |  0.14
Other   |            | 0.2761     |            |       | 11.95

Nlocal:        2776.45 ave        3960 max           0 min
Histogram: 8 4 4 0 4 12 8 2 28 34
Nghost:        3879.12 ave        5424 max         232 min
Histogram: 8 0 8 0 16 0 8 8 16 40
Neighs:        79213.6 ave      115432 max           0 min
Histogram: 8 4 4 0 10 6 8 8 24 32

Total # of neighbors = 8238213
Ave neighs/atom = 28.530509
Neighbor list builds = 0
Dangerous builds = 0
The dot product: 1.65984114070691e-08
Setting atom values ...
  1 settings made for x
  1 settings made for y
  1 settings made for z
Setting up cg style minimization ...
  Unit style    : metal
  Current step  : 1586
Per MPI rank memory allocation (min/avg/max) = 5.441 | 5.816 | 6.074 Mbytes
Step PotEng KinEng TotEng v_fx v_fy v_fz 
    1586     -1152449            0     -1152449 -0.0031990324 -0.072149625  0.013768234 
    1755     -1152449            0     -1152449 -5.7534623e-06 -1.1354844e-05 2.950398e-06 
Loop time of 1.97047 on 104 procs for 169 steps with 288751 atoms

99.9% CPU use with 104 MPI tasks x 1 OpenMP threads

Minimization stats:
  Stopping criterion = energy tolerance
  Energy initial, next-to-last, final = 
     -1152448.95749903  -1152448.95997368  -1152448.95997368
  Force two-norm initial, final = 0.21687097 0.00022693929
  Force max component initial, final = 0.095359164 2.6641859e-05
  Final line search alpha, max atom move = 1.0000000 2.6641859e-05
  Iterations, force evaluations = 169 338

MPI task timing breakdown:
Section |  min time  |  avg time  |  max time  |%varavg| %total
---------------------------------------------------------------
Pair    | 0.50755    | 1.419      | 1.8504     |  32.3 | 72.01
Neigh   | 0          | 0          | 0          |   0.0 |  0.00
Comm    | 0.030341   | 0.32029    | 0.9656     |  47.4 | 16.25
Output  | 0          | 0          | 0          |   0.0 |  0.00
Modify  | 2.1519e-05 | 0.0027906  | 0.0059224  |   2.5 |  0.14
Other   |            | 0.2284     |            |       | 11.59

Nlocal:        2776.45 ave        3960 max           0 min
Histogram: 8 4 4 0 4 12 8 2 28 34
Nghost:        3879.12 ave        5424 max         232 min
Histogram: 8 0 8 0 16 0 8 8 16 40
Neighs:        79213.6 ave      115439 max           0 min
Histogram: 8 4 4 0 10 6 8 8 24 32

Total # of neighbors = 8238210
Ave neighs/atom = 28.530499
Neighbor list builds = 0
Dangerous builds = 0
The dot product: 6.06763875463783e-08
Setting atom values ...
  1 settings made for x
  1 settings made for y
  1 settings made for z
Setting up cg style minimization ...
  Unit style    : metal
  Current step  : 1755
Per MPI rank memory allocation (min/avg/max) = 5.441 | 5.816 | 6.074 Mbytes
Step PotEng KinEng TotEng v_fx v_fy v_fz 
    1755     -1152449            0     -1152449 -0.0043757311 -0.078694274  0.012697403 
    1915     -1152449            0     -1152449 2.9476906e-06 4.4010156e-06 -1.103474e-06 
Loop time of 1.88637 on 104 procs for 160 steps with 288751 atoms

99.9% CPU use with 104 MPI tasks x 1 OpenMP threads

Minimization stats:
  Stopping criterion = energy tolerance
  Energy initial, next-to-last, final = 
     -1152448.95466241  -1152448.95722367  -1152448.95722367
  Force two-norm initial, final = 0.2168224 0.00022478644
  Force max component initial, final = 0.09375282 3.3356318e-05
  Final line search alpha, max atom move = 1.0000000 3.3356318e-05
  Iterations, force evaluations = 160 320

MPI task timing breakdown:
Section |  min time  |  avg time  |  max time  |%varavg| %total
---------------------------------------------------------------
Pair    | 0.48188    | 1.3542     | 1.7661     |  31.5 | 71.79
Neigh   | 0          | 0          | 0          |   0.0 |  0.00
Comm    | 0.029291   | 0.31126    | 0.94331    |  45.7 | 16.50
Output  | 0          | 0          | 0          |   0.0 |  0.00
Modify  | 2.2007e-05 | 0.0026475  | 0.0056368  |   2.4 |  0.14
Other   |            | 0.2183     |            |       | 11.57

Nlocal:        2776.45 ave        3960 max           0 min
Histogram: 8 4 4 0 4 12 8 2 28 34
Nghost:        3879.12 ave        5424 max         232 min
Histogram: 8 0 8 0 16 0 8 8 16 40
Neighs:        79213.5 ave      115437 max           0 min
Histogram: 8 4 4 0 10 6 8 8 24 32

Total # of neighbors = 8238208
Ave neighs/atom = 28.530492
Neighbor list builds = 0
Dangerous builds = 0
The dot product: -2.40539266248075e-08
Setting atom values ...
  1 settings made for x
  1 settings made for y
  1 settings made for z
Setting up cg style minimization ...
  Unit style    : metal
  Current step  : 1915
Per MPI rank memory allocation (min/avg/max) = 5.441 | 5.816 | 6.074 Mbytes
Step PotEng KinEng TotEng v_fx v_fy v_fz 
    1915     -1152449            0     -1152449 -0.0044893884  -0.08267306  0.010937145 
    2000     -1152449            0     -1152449 -7.4847055e-05 -0.00015810158 3.0453453e-05 
    2096     -1152449            0     -1152449 -3.0626827e-06 -5.0439697e-06 1.068698e-06 
Loop time of 2.11826 on 104 procs for 181 steps with 288751 atoms

99.9% CPU use with 104 MPI tasks x 1 OpenMP threads

Minimization stats:
  Stopping criterion = energy tolerance
  Energy initial, next-to-last, final = 
     -1152448.95149312  -1152448.95376958  -1152448.95376958
  Force two-norm initial, final = 0.2159984 0.00014703786
  Force max component initial, final = 0.092015272 1.5448496e-05
  Final line search alpha, max atom move = 1.0000000 1.5448496e-05
  Iterations, force evaluations = 181 362

MPI task timing breakdown:
Section |  min time  |  avg time  |  max time  |%varavg| %total
---------------------------------------------------------------
Pair    | 0.54452    | 1.5234     | 1.9848     |  33.5 | 71.92
Neigh   | 0          | 0          | 0          |   0.0 |  0.00
Comm    | 0.031399   | 0.34562    | 1.044      |  49.1 | 16.32
Output  | 0.000235   | 0.00024404 | 0.00035937 |   0.0 |  0.01
Modify  | 2.2019e-05 | 0.0029956  | 0.0063644  |   2.6 |  0.14
Other   |            | 0.246      |            |       | 11.61

Nlocal:        2776.45 ave        3960 max           0 min
Histogram: 8 4 4 0 4 12 8 2 28 34
Nghost:        3879.12 ave        5424 max         232 min
Histogram: 8 0 8 0 16 0 8 8 16 40
Neighs:        79213.5 ave      115436 max           0 min
Histogram: 8 4 4 0 10 6 8 8 24 32

Total # of neighbors = 8238202
Ave neighs/atom = 28.530471
Neighbor list builds = 0
Dangerous builds = 0
The dot product: 3.92055722394267e-08
Setting atom values ...
  1 settings made for x
  1 settings made for y
  1 settings made for z
Setting up cg style minimization ...
  Unit style    : metal
  Current step  : 2096
Per MPI rank memory allocation (min/avg/max) = 5.441 | 5.816 | 6.074 Mbytes
Step PotEng KinEng TotEng v_fx v_fy v_fz 
    2096   -1152448.9            0   -1152448.9 -0.0053899684  -0.08789158 0.0085846582 
    2315   -1152448.9            0   -1152448.9 5.3093477e-06 1.2738949e-05 -1.8751543e-06 
Loop time of 2.56737 on 104 procs for 219 steps with 288751 atoms

99.9% CPU use with 104 MPI tasks x 1 OpenMP threads

Minimization stats:
  Stopping criterion = energy tolerance
  Energy initial, next-to-last, final = 
     -1152448.94730179  -1152448.94953028  -1152448.94953028
  Force two-norm initial, final = 0.21493523 5.5097106e-05
  Force max component initial, final = 0.089447527 1.2738949e-05
  Final line search alpha, max atom move = 1.0000000 1.2738949e-05
  Iterations, force evaluations = 219 438

MPI task timing breakdown:
Section |  min time  |  avg time  |  max time  |%varavg| %total
---------------------------------------------------------------
Pair    | 0.6539     | 1.8481     | 2.3973     |  36.9 | 71.99
Neigh   | 0          | 0          | 0          |   0.0 |  0.00
Comm    | 0.038912   | 0.42162    | 1.274      |  53.7 | 16.42
Output  | 0          | 0          | 0          |   0.0 |  0.00
Modify  | 2.5983e-05 | 0.0036144  | 0.0076706  |   2.8 |  0.14
Other   |            | 0.294      |            |       | 11.45

Nlocal:        2776.45 ave        3960 max           0 min
Histogram: 8 4 4 0 4 12 8 2 28 34
Nghost:        3879.10 ave        5424 max         232 min
Histogram: 8 0 8 0 16 0 8 8 16 40
Neighs:        79213.5 ave      115436 max           0 min
Histogram: 8 4 4 0 10 6 8 8 24 32

Total # of neighbors = 8238201
Ave neighs/atom = 28.530467
Neighbor list builds = 0
Dangerous builds = 0
The dot product: -1.14743142539894e-07
Setting atom values ...
  1 settings made for x
  1 settings made for y
  1 settings made for z
Setting up cg style minimization ...
  Unit style    : metal
  Current step  : 2315
Per MPI rank memory allocation (min/avg/max) = 5.441 | 5.816 | 6.074 Mbytes
Step PotEng KinEng TotEng v_fx v_fy v_fz 
    2315   -1152448.9            0   -1152448.9 -0.0065010652 -0.091775922 0.0056235202 
    2493   -1152448.9            0   -1152448.9 1.0015523e-05 2.3116237e-05 -2.5253535e-06 
Loop time of 2.0715 on 104 procs for 178 steps with 288751 atoms

99.9% CPU use with 104 MPI tasks x 1 OpenMP threads

Minimization stats:
  Stopping criterion = energy tolerance
  Energy initial, next-to-last, final = 
     -1152448.94237769  -1152448.94455451  -1152448.94455451
  Force two-norm initial, final = 0.21312294 0.00014445474
  Force max component initial, final = 0.091775922 3.5871963e-05
  Final line search alpha, max atom move = 1.0000000 3.5871963e-05
  Iterations, force evaluations = 178 356

MPI task timing breakdown:
Section |  min time  |  avg time  |  max time  |%varavg| %total
---------------------------------------------------------------
Pair    | 0.5352     | 1.4924     | 1.9467     |  33.0 | 72.05
Neigh   | 0          | 0          | 0          |   0.0 |  0.00
Comm    | 0.029669   | 0.33809    | 1.0258     |  48.5 | 16.32
Output  | 0          | 0          | 0          |   0.0 |  0.00
Modify  | 2.1188e-05 | 0.0029448  | 0.0062255  |   2.6 |  0.14
Other   |            | 0.238      |            |       | 11.49

Nlocal:        2776.45 ave        3959 max           0 min
Histogram: 8 4 4 0 4 12 8 2 28 34
Nghost:        3879.10 ave        5427 max         232 min
Histogram: 8 0 8 0 16 0 8 8 16 40
Neighs:        79213.5 ave      115407 max           0 min
Histogram: 8 4 4 0 10 6 8 8 24 32

Total # of neighbors = 8238208
Ave neighs/atom = 28.530492
Neighbor list builds = 0
Dangerous builds = 0
The dot product: -2.10221680099624e-07
Setting atom values ...
  1 settings made for x
  1 settings made for y
  1 settings made for z
Setting up cg style minimization ...
  Unit style    : metal
  Current step  : 2493
Per MPI rank memory allocation (min/avg/max) = 5.441 | 5.816 | 6.074 Mbytes
Step PotEng KinEng TotEng v_fx v_fy v_fz 
    2493   -1152448.9            0   -1152448.9 -0.0066536363 -0.093755902 0.0024488927 
    2706   -1152448.9            0   -1152448.9 4.1064798e-06 1.1436601e-05 -7.1689195e-07 
Loop time of 2.49288 on 104 procs for 213 steps with 288751 atoms

99.9% CPU use with 104 MPI tasks x 1 OpenMP threads

Minimization stats:
  Stopping criterion = energy tolerance
  Energy initial, next-to-last, final = 
     -1152448.93671313  -1152448.93877585  -1152448.93877585
  Force two-norm initial, final = 0.21084042 5.9940245e-05
  Force max component initial, final = 0.093755902 1.2124435e-05
  Final line search alpha, max atom move = 1.0000000 1.2124435e-05
  Iterations, force evaluations = 213 426

MPI task timing breakdown:
Section |  min time  |  avg time  |  max time  |%varavg| %total
---------------------------------------------------------------
Pair    | 0.63758    | 1.7956     | 2.334      |  36.4 | 72.03
Neigh   | 0          | 0          | 0          |   0.0 |  0.00
Comm    | 0.036809   | 0.40811    | 1.2404     |  53.1 | 16.37
Output  | 0          | 0          | 0          |   0.0 |  0.00
Modify  | 2.5778e-05 | 0.0035177  | 0.0074452  |   2.8 |  0.14
Other   |            | 0.2856     |            |       | 11.46

Nlocal:        2776.45 ave        3959 max           0 min
Histogram: 8 4 4 0 4 12 8 2 28 34
Nghost:        3879.10 ave        5425 max         232 min
Histogram: 8 0 8 0 16 0 8 8 16 40
Neighs:        79213.5 ave      115413 max           0 min
Histogram: 8 4 4 0 10 6 8 8 24 32

Total # of neighbors = 8238203
Ave neighs/atom = 28.530474
Neighbor list builds = 0
Dangerous builds = 0
The dot product: -8.98294385828537e-08
Setting atom values ...
  1 settings made for x
  1 settings made for y
  1 settings made for z
Setting up cg style minimization ...
  Unit style    : metal
  Current step  : 2706
Per MPI rank memory allocation (min/avg/max) = 5.441 | 5.816 | 6.074 Mbytes
Step PotEng KinEng TotEng v_fx v_fy v_fz 
    2706   -1152448.9            0   -1152448.9 -0.0057611954 -0.093833258 -0.00042755512 
    2863   -1152448.9            0   -1152448.9 1.2997255e-05 3.5541077e-05 -1.2034804e-06 
Loop time of 1.86034 on 104 procs for 157 steps with 288751 atoms

99.9% CPU use with 104 MPI tasks x 1 OpenMP threads

Minimization stats:
  Stopping criterion = energy tolerance
  Energy initial, next-to-last, final = 
     -1152448.93017577  -1152448.93214602  -1152448.93214602
  Force two-norm initial, final = 0.20849564 0.0001959974
  Force max component initial, final = 0.093833258 5.2851308e-05
  Final line search alpha, max atom move = 1.0000000 5.2851308e-05
  Iterations, force evaluations = 157 314

MPI task timing breakdown:
Section |  min time  |  avg time  |  max time  |%varavg| %total
---------------------------------------------------------------
Pair    | 0.4736     | 1.3191     | 1.7195     |  31.1 | 70.91
Neigh   | 0          | 0          | 0          |   0.0 |  0.00
Comm    | 0.028086   | 0.29957    | 0.90239    |  45.4 | 16.10
Output  | 0          | 0          | 0          |   0.0 |  0.00
Modify  | 1.9393e-05 | 0.0025957  | 0.0054849  |   2.4 |  0.14
Other   |            | 0.2391     |            |       | 12.85

Nlocal:        2776.45 ave        3959 max           0 min
Histogram: 8 4 4 0 4 12 8 2 28 34
Nghost:        3879.10 ave        5424 max         232 min
Histogram: 8 0 8 0 16 0 8 8 16 40
Neighs:        79213.5 ave      115414 max           0 min
Histogram: 8 4 4 0 10 6 8 8 24 32

Total # of neighbors = 8238199
Ave neighs/atom = 28.530461
Neighbor list builds = 0
Dangerous builds = 0
The dot product: -2.54059934404409e-07
Setting atom values ...
  1 settings made for x
  1 settings made for y
  1 settings made for z
Setting up cg style minimization ...
  Unit style    : metal
  Current step  : 2863
Per MPI rank memory allocation (min/avg/max) = 5.441 | 5.816 | 6.074 Mbytes
Step PotEng KinEng TotEng v_fx v_fy v_fz 
    2863   -1152448.9            0   -1152448.9 -0.011139191 -0.089789889 -0.0019996472 
    3000   -1152448.9            0   -1152448.9 1.0153257e-05 2.1912294e-05 -4.6601989e-07 
    3050   -1152448.9            0   -1152448.9 4.5642911e-06 1.0928498e-05 -1.6832459e-07 
Loop time of 2.17751 on 104 procs for 187 steps with 288751 atoms

99.9% CPU use with 104 MPI tasks x 1 OpenMP threads

Minimization stats:
  Stopping criterion = energy tolerance
  Energy initial, next-to-last, final = 
     -1152448.92260627  -1152448.92449371  -1152448.92449371
  Force two-norm initial, final = 0.20466143 7.6633311e-05
  Force max component initial, final = 0.089789889 2.3944019e-05
  Final line search alpha, max atom move = 1.0000000 2.3944019e-05
  Iterations, force evaluations = 187 374

MPI task timing breakdown:
Section |  min time  |  avg time  |  max time  |%varavg| %total
---------------------------------------------------------------
Pair    | 0.56044    | 1.5737     | 2.0449     |  34.0 | 72.27
Neigh   | 0          | 0          | 0          |   0.0 |  0.00
Comm    | 0.033497   | 0.35671    | 1.0909     |  50.2 | 16.38
Output  | 0.00021321 | 0.0002159  | 0.00035479 |   0.0 |  0.01
Modify  | 2.2518e-05 | 0.0030955  | 0.0066031  |   2.6 |  0.14
Other   |            | 0.2438     |            |       | 11.20

Nlocal:        2776.45 ave        3959 max           0 min
Histogram: 8 4 4 0 4 12 8 2 28 34
Nghost:        3879.07 ave        5424 max         232 min
Histogram: 8 0 8 0 16 0 8 8 16 40
Neighs:        79213.5 ave      115415 max           0 min
Histogram: 8 4 4 0 10 6 8 8 24 32

Total # of neighbors = 8238199
Ave neighs/atom = 28.530461
Neighbor list builds = 0
Dangerous builds = 0
The dot product: -6.68355716842645e-08
Setting atom values ...
  1 settings made for x
  1 settings made for y
  1 settings made for z
Setting up cg style minimization ...
  Unit style    : metal
  Current step  : 3050
Per MPI rank memory allocation (min/avg/max) = 5.441 | 5.816 | 6.074 Mbytes
Step PotEng KinEng TotEng v_fx v_fy v_fz 
    3050   -1152448.9            0   -1152448.9 -0.019288377 -0.084357695 -0.0024206231 
    3202   -1152448.9            0   -1152448.9 1.0902868e-05 2.7749481e-05 2.1772181e-07 
Loop time of 1.77979 on 104 procs for 152 steps with 288751 atoms

99.9% CPU use with 104 MPI tasks x 1 OpenMP threads

Minimization stats:
  Stopping criterion = energy tolerance
  Energy initial, next-to-last, final = 
     -1152448.91370944  -1152448.91557952  -1152448.91557952
  Force two-norm initial, final = 0.20185183 0.00021462335
  Force max component initial, final = 0.084357695 4.3161033e-05
  Final line search alpha, max atom move = 1.0000000 4.3161033e-05
  Iterations, force evaluations = 152 304

MPI task timing breakdown:
Section |  min time  |  avg time  |  max time  |%varavg| %total
---------------------------------------------------------------
Pair    | 0.45719    | 1.276      | 1.6667     |  30.6 | 71.69
Neigh   | 0          | 0          | 0          |   0.0 |  0.00
Comm    | 0.02646    | 0.28979    | 0.87468    |  44.8 | 16.28
Output  | 0          | 0          | 0          |   0.0 |  0.00
Modify  | 1.8446e-05 | 0.002518   | 0.0053302  |   2.4 |  0.14
Other   |            | 0.2115     |            |       | 11.88

Nlocal:        2776.45 ave        3959 max           0 min
Histogram: 8 4 4 0 4 12 8 2 28 34
Nghost:        3879.08 ave        5424 max         232 min
Histogram: 8 0 8 0 16 0 8 8 16 40
Neighs:        79213.4 ave      115413 max           0 min
Histogram: 8 4 4 0 10 6 8 8 24 32

Total # of neighbors = 8238198
Ave neighs/atom = 28.530457
Neighbor list builds = 0
Dangerous builds = 0
The dot product: -1.42906359971539e-07
Setting atom values ...
  1 settings made for x
  1 settings made for y
  1 settings made for z
Setting up cg style minimization ...
  Unit style    : metal
  Current step  : 3202
Per MPI rank memory allocation (min/avg/max) = 5.441 | 5.816 | 6.074 Mbytes
Step PotEng KinEng TotEng v_fx v_fy v_fz 
    3202   -1152448.9            0   -1152448.9 -0.023737072 -0.081377278 -0.0029359726 
    3368   -1152448.9            0   -1152448.9 1.7522289e-05 4.7521336e-05 1.2684075e-06 
Loop time of 1.94661 on 104 procs for 166 steps with 288751 atoms

99.9% CPU use with 104 MPI tasks x 1 OpenMP threads

Minimization stats:
  Stopping criterion = energy tolerance
  Energy initial, next-to-last, final = 
     -1152448.90344554  -1152448.90530873  -1152448.90530873
  Force two-norm initial, final = 0.20034807 0.00014469996
  Force max component initial, final = 0.082613567 4.9299267e-05
  Final line search alpha, max atom move = 1.0000000 4.9299267e-05
  Iterations, force evaluations = 166 332

MPI task timing breakdown:
Section |  min time  |  avg time  |  max time  |%varavg| %total
---------------------------------------------------------------
Pair    | 0.49598    | 1.4025     | 1.8269     |  32.2 | 72.05
Neigh   | 0          | 0          | 0          |   0.0 |  0.00
Comm    | 0.030657   | 0.32105    | 0.97443    |  46.8 | 16.49
Output  | 0          | 0          | 0          |   0.0 |  0.00
Modify  | 2.0114e-05 | 0.0027428  | 0.0058386  |   2.5 |  0.14
Other   |            | 0.2203     |            |       | 11.32

Nlocal:        2776.45 ave        3959 max           0 min
Histogram: 8 4 4 0 4 12 8 2 28 34
Nghost:        3879.11 ave        5424 max         232 min
Histogram: 8 0 8 0 16 0 8 8 16 40
Neighs:        79213.4 ave      115413 max           0 min
Histogram: 8 4 4 0 10 6 8 8 24 32

Total # of neighbors = 8238198
Ave neighs/atom = 28.530457
Neighbor list builds = 0
Dangerous builds = 0
The dot product: -2.0458847586066e-07
Setting atom values ...
  1 settings made for x
  1 settings made for y
  1 settings made for z
Setting up cg style minimization ...
  Unit style    : metal
  Current step  : 3368
Per MPI rank memory allocation (min/avg/max) = 5.441 | 5.816 | 6.074 Mbytes
Step PotEng KinEng TotEng v_fx v_fy v_fz 
    3368   -1152448.9            0   -1152448.9 -0.026372838 -0.079245002 -0.0034374786 
    3542   -1152448.9            0   -1152448.9 5.3112948e-06 1.3446032e-05 4.8637391e-07 
Loop time of 2.03524 on 104 procs for 174 steps with 288751 atoms

99.9% CPU use with 104 MPI tasks x 1 OpenMP threads

Minimization stats:
  Stopping criterion = energy tolerance
  Energy initial, next-to-last, final = 
     -1152448.89182072  -1152448.89369382  -1152448.89369382
  Force two-norm initial, final = 0.19936115 0.0001251754
  Force max component initial, final = 0.084304478 1.4238024e-05
  Final line search alpha, max atom move = 1.0000000 1.4238024e-05
  Iterations, force evaluations = 174 348

MPI task timing breakdown:
Section |  min time  |  avg time  |  max time  |%varavg| %total
---------------------------------------------------------------
Pair    | 0.52061    | 1.463      | 1.9114     |  32.8 | 71.89
Neigh   | 0          | 0          | 0          |   0.0 |  0.00
Comm    | 0.029647   | 0.33344    | 1.0068     |  48.0 | 16.38
Output  | 0          | 0          | 0          |   0.0 |  0.00
Modify  | 2.1512e-05 | 0.0028734  | 0.0061003  |   2.5 |  0.14
Other   |            | 0.2359     |            |       | 11.59

Nlocal:        2776.45 ave        3959 max           0 min
Histogram: 8 4 4 0 4 12 8 2 28 34
Nghost:        3879.11 ave        5424 max         232 min
Histogram: 8 0 8 0 16 0 8 8 16 40
Neighs:        79213.5 ave      115414 max           0 min
Histogram: 8 4 4 0 10 6 8 8 24 32

Total # of neighbors = 8238200
Ave neighs/atom = 28.530464
Neighbor list builds = 0
Dangerous builds = 0
The dot product: -4.06565733845924e-08
Setting atom values ...
  1 settings made for x
  1 settings made for y
  1 settings made for z
Setting up cg style minimization ...
  Unit style    : metal
  Current step  : 3542
Per MPI rank memory allocation (min/avg/max) = 5.441 | 5.816 | 6.074 Mbytes
Step PotEng KinEng TotEng v_fx v_fy v_fz 
    3542   -1152448.9            0   -1152448.9 -0.027698381  -0.07665261 -0.0036964515 
    3746   -1152448.9            0   -1152448.9 -1.657239e-05 -4.3038785e-05 -1.962295e-06 
Loop time of 2.37789 on 104 procs for 204 steps with 288751 atoms

99.9% CPU use with 104 MPI tasks x 1 OpenMP threads

Minimization stats:
  Stopping criterion = energy tolerance
  Energy initial, next-to-last, final = 
     -1152448.87889396   -1152448.8809057   -1152448.8809057
  Force two-norm initial, final = 0.19850065 0.00012887007
  Force max component initial, final = 0.085692548 4.3498928e-05
  Final line search alpha, max atom move = 1.0000000 4.3498928e-05
  Iterations, force evaluations = 204 408

MPI task timing breakdown:
Section |  min time  |  avg time  |  max time  |%varavg| %total
---------------------------------------------------------------
Pair    | 0.6145     | 1.7233     | 2.2364     |  35.5 | 72.47
Neigh   | 0          | 0          | 0          |   0.0 |  0.00
Comm    | 0.036095   | 0.39139    | 1.1981     |  52.2 | 16.46
Output  | 0          | 0          | 0          |   0.0 |  0.00
Modify  | 2.451e-05  | 0.0033628  | 0.0071516  |   2.7 |  0.14
Other   |            | 0.2598     |            |       | 10.93

Nlocal:        2776.45 ave        3959 max           0 min
Histogram: 8 4 4 0 4 12 8 2 28 34
Nghost:        3879.11 ave        5424 max         232 min
Histogram: 8 0 8 0 16 0 8 8 16 40
Neighs:        79213.4 ave      115414 max           0 min
Histogram: 8 4 4 0 10 6 8 8 24 32

Total # of neighbors = 8238198
Ave neighs/atom = 28.530457
Neighbor list builds = 0
Dangerous builds = 0
The dot product: -3.49100028172382e-07
Setting atom values ...
  1 settings made for x
  1 settings made for y
  1 settings made for z
Setting up cg style minimization ...
  Unit style    : metal
  Current step  : 3746
Per MPI rank memory allocation (min/avg/max) = 5.441 | 5.816 | 6.074 Mbytes
Step PotEng KinEng TotEng v_fx v_fy v_fz 
    3746   -1152448.9            0   -1152448.9 -0.020236056  -0.06278549 -0.0020058188 
    3932   -1152448.9            0   -1152448.9 6.8002277e-06 9.2585141e-06 -1.6033996e-07 
Loop time of 2.17756 on 104 procs for 186 steps with 288751 atoms

99.9% CPU use with 104 MPI tasks x 1 OpenMP threads

Minimization stats:
  Stopping criterion = energy tolerance
  Energy initial, next-to-last, final = 
     -1152448.86546377  -1152448.86802377  -1152448.86802377
  Force two-norm initial, final = 0.19480372 0.00021976605
  Force max component initial, final = 0.084239333 5.9642723e-05
  Final line search alpha, max atom move = 1.0000000 5.9642723e-05
  Iterations, force evaluations = 186 372

MPI task timing breakdown:
Section |  min time  |  avg time  |  max time  |%varavg| %total
---------------------------------------------------------------
Pair    | 0.56024    | 1.5687     | 2.0415     |  33.9 | 72.04
Neigh   | 0          | 0          | 0          |   0.0 |  0.00
Comm    | 0.032711   | 0.35677    | 1.0751     |  49.9 | 16.38
Output  | 0          | 0          | 0          |   0.0 |  0.00
Modify  | 2.3084e-05 | 0.0030725  | 0.0065626  |   2.6 |  0.14
Other   |            | 0.249      |            |       | 11.44

Nlocal:        2776.45 ave        3959 max           0 min
Histogram: 8 4 4 0 4 12 8 2 28 34
Nghost:        3879.11 ave        5424 max         232 min
Histogram: 8 0 8 0 16 0 8 8 16 40
Neighs:        79213.4 ave      115412 max           0 min
Histogram: 8 4 4 0 10 6 8 8 24 32

Total # of neighbors = 8238191
Ave neighs/atom = 28.530433
Neighbor list builds = 0
Dangerous builds = 0
The dot product: 1.94818333533419e-07
Setting atom values ...
  1 settings made for x
  1 settings made for y
  1 settings made for z
Setting up cg style minimization ...
  Unit style    : metal
  Current step  : 3932
Per MPI rank memory allocation (min/avg/max) = 5.441 | 5.816 | 6.074 Mbytes
Step PotEng KinEng TotEng v_fx v_fy v_fz 
    3932   -1152448.9            0   -1152448.9 -0.014015227 -0.050551106 0.00031614282 
    4000   -1152448.9            0   -1152448.9 -2.5832209e-05 -0.00011000511 4.2894286e-08 
    4114   -1152448.9            0   -1152448.9 -1.318538e-05 -2.8911329e-05 8.954361e-07 
Loop time of 2.12985 on 104 procs for 182 steps with 288751 atoms

99.9% CPU use with 104 MPI tasks x 1 OpenMP threads

Minimization stats:
  Stopping criterion = energy tolerance
  Energy initial, next-to-last, final = 
     -1152448.85202143  -1152448.85414867  -1152448.85414867
  Force two-norm initial, final = 0.19442907 0.00018367118
  Force max component initial, final = 0.08041024 6.0133241e-05
  Final line search alpha, max atom move = 1.0000000 6.0133241e-05
  Iterations, force evaluations = 182 364

MPI task timing breakdown:
Section |  min time  |  avg time  |  max time  |%varavg| %total
---------------------------------------------------------------
Pair    | 0.54626    | 1.5305     | 1.9934     |  33.5 | 71.86
Neigh   | 0          | 0          | 0          |   0.0 |  0.00
Comm    | 0.037063   | 0.34903    | 1.0602     |  48.9 | 16.39
Output  | 0.00022862 | 0.00023119 | 0.00033204 |   0.0 |  0.01
Modify  | 2.1951e-05 | 0.0030049  | 0.0063701  |   2.6 |  0.14
Other   |            | 0.2471     |            |       | 11.60

Nlocal:        2776.45 ave        3959 max           0 min
Histogram: 8 4 4 0 4 12 8 2 28 34
Nghost:        3879.18 ave        5425 max         232 min
Histogram: 8 0 8 0 16 0 8 8 16 40
Neighs:        79213.4 ave      115405 max           0 min
Histogram: 8 4 4 0 10 6 8 8 24 32

Total # of neighbors = 8238193
Ave neighs/atom = 28.530440
Neighbor list builds = 0
Dangerous builds = 0
The dot product: -3.70835410476578e-07
Setting atom values ...
  1 settings made for x
  1 settings made for y
  1 settings made for z
Setting up cg style minimization ...
  Unit style    : metal
  Current step  : 4114
Per MPI rank memory allocation (min/avg/max) = 5.441 | 5.816 | 6.074 Mbytes
Step PotEng KinEng TotEng v_fx v_fy v_fz 
    4114   -1152448.8            0   -1152448.8  -0.02005672 -0.057268558 0.0026110691 
    4385   -1152448.8            0   -1152448.8 6.050587e-07 1.7120975e-06 -7.8867514e-08 
Loop time of 3.13558 on 104 procs for 271 steps with 288751 atoms

99.9% CPU use with 104 MPI tasks x 1 OpenMP threads

Minimization stats:
  Stopping criterion = energy tolerance
  Energy initial, next-to-last, final = 
     -1152448.83679363  -1152448.83888569  -1152448.83888569
  Force two-norm initial, final = 0.19916603 6.6512250e-06
  Force max component initial, final = 0.083063192 1.8107679e-06
  Final line search alpha, max atom move = 1.0000000 1.8107679e-06
  Iterations, force evaluations = 271 542

MPI task timing breakdown:
Section |  min time  |  avg time  |  max time  |%varavg| %total
---------------------------------------------------------------
Pair    | 0.81234    | 2.2692     | 2.9542     |  40.8 | 72.37
Neigh   | 0          | 0          | 0          |   0.0 |  0.00
Comm    | 0.045359   | 0.51213    | 1.5585     |  60.1 | 16.33
Output  | 0          | 0          | 0          |   0.0 |  0.00
Modify  | 3.2505e-05 | 0.0044769  | 0.0094646  |   3.2 |  0.14
Other   |            | 0.3497     |            |       | 11.15

Nlocal:        2776.45 ave        3959 max           0 min
Histogram: 8 4 4 0 4 12 8 2 28 34
Nghost:        3879.18 ave        5425 max         232 min
Histogram: 8 0 8 0 16 0 8 8 16 40
Neighs:        79213.4 ave      115405 max           0 min
Histogram: 8 4 4 0 10 6 8 8 24 32

Total # of neighbors = 8238190
Ave neighs/atom = 28.530429
Neighbor list builds = 0
Dangerous builds = 0
The dot product: 2.04941286448349e-08
Setting atom values ...
  1 settings made for x
  1 settings made for y
  1 settings made for z
Setting up cg style minimization ...
  Unit style    : metal
  Current step  : 4385
Per MPI rank memory allocation (min/avg/max) = 5.441 | 5.816 | 6.074 Mbytes
Step PotEng KinEng TotEng v_fx v_fy v_fz 
    4385   -1152448.8            0   -1152448.8 -0.023048233 -0.056558081 0.0046097846 
    4567   -1152448.8            0   -1152448.8 -7.729801e-06 -2.004826e-05 1.5657783e-06 
Loop time of 2.12359 on 104 procs for 182 steps with 288751 atoms

99.9% CPU use with 104 MPI tasks x 1 OpenMP threads

Minimization stats:
  Stopping criterion = energy tolerance
  Energy initial, next-to-last, final = 
     -1152448.82026669  -1152448.82233708  -1152448.82233708
  Force two-norm initial, final = 0.20136201 0.00015454206
  Force max component initial, final = 0.087061773 4.2983819e-05
  Final line search alpha, max atom move = 1.0000000 4.2983819e-05
  Iterations, force evaluations = 182 364

MPI task timing breakdown:
Section |  min time  |  avg time  |  max time  |%varavg| %total
---------------------------------------------------------------
Pair    | 0.54434    | 1.5355     | 1.9956     |  33.7 | 72.31
Neigh   | 0          | 0          | 0          |   0.0 |  0.00
Comm    | 0.032104   | 0.34767    | 1.0444     |  49.1 | 16.37
Output  | 0          | 0          | 0          |   0.0 |  0.00
Modify  | 2.1692e-05 | 0.003011   | 0.006398   |   2.6 |  0.14
Other   |            | 0.2374     |            |       | 11.18

Nlocal:        2776.45 ave        3958 max           0 min
Histogram: 8 4 4 0 4 12 8 2 28 34
Nghost:        3879.14 ave        5425 max         232 min
Histogram: 8 0 8 0 16 0 8 8 16 40
Neighs:        79213.4 ave      115362 max           0 min
Histogram: 8 4 4 0 10 6 8 8 24 32

Total # of neighbors = 8238192
Ave neighs/atom = 28.530436
Neighbor list builds = 0
Dangerous builds = 0
The dot product: -1.5316520016531e-07
Setting atom values ...
  1 settings made for x
  1 settings made for y
  1 settings made for z
Setting up cg style minimization ...
  Unit style    : metal
  Current step  : 4567
Per MPI rank memory allocation (min/avg/max) = 5.441 | 5.816 | 6.074 Mbytes
Step PotEng KinEng TotEng v_fx v_fy v_fz 
    4567   -1152448.8            0   -1152448.8 -0.026773828 -0.063290571 0.0063647673 
    4729   -1152448.8            0   -1152448.8 -1.161991e-05 -4.5755193e-05 3.3778668e-06 
Loop time of 1.88791 on 104 procs for 162 steps with 288751 atoms

99.9% CPU use with 104 MPI tasks x 1 OpenMP threads

Minimization stats:
  Stopping criterion = energy tolerance
  Energy initial, next-to-last, final = 
     -1152448.80234917  -1152448.80435126  -1152448.80435126
  Force two-norm initial, final = 0.20505855 0.00018643507
  Force max component initial, final = 0.089600159 4.5755193e-05
  Final line search alpha, max atom move = 1.0000000 4.5755193e-05
  Iterations, force evaluations = 162 324

MPI task timing breakdown:
Section |  min time  |  avg time  |  max time  |%varavg| %total
---------------------------------------------------------------
Pair    | 0.48503    | 1.3587     | 1.7699     |  31.6 | 71.97
Neigh   | 0          | 0          | 0          |   0.0 |  0.00
Comm    | 0.028302   | 0.3074     | 0.92481    |  46.4 | 16.28
Output  | 0          | 0          | 0          |   0.0 |  0.00
Modify  | 2.0593e-05 | 0.0026808  | 0.0056835  |   2.4 |  0.14
Other   |            | 0.2191     |            |       | 11.61

Nlocal:        2776.45 ave        3958 max           0 min
Histogram: 8 4 4 0 4 12 8 2 28 34
Nghost:        3879.14 ave        5425 max         232 min
Histogram: 8 0 8 0 16 0 8 8 16 40
Neighs:        79213.4 ave      115355 max           0 min
Histogram: 8 4 4 0 10 6 8 8 24 32

Total # of neighbors = 8238191
Ave neighs/atom = 28.530433
Neighbor list builds = 0
Dangerous builds = 0
The dot product: -1.80625349830707e-07
Setting atom values ...
  1 settings made for x
  1 settings made for y
  1 settings made for z
Setting up cg style minimization ...
  Unit style    : metal
  Current step  : 4729
Per MPI rank memory allocation (min/avg/max) = 5.441 | 5.816 | 6.074 Mbytes
Step PotEng KinEng TotEng v_fx v_fy v_fz 
    4729   -1152448.8            0   -1152448.8 -0.029882062 -0.069284875 0.0076297047 
    4921   -1152448.8            0   -1152448.8 -9.8572086e-07 -2.3182562e-06 2.5304992e-07 
Loop time of 2.29535 on 104 procs for 192 steps with 288751 atoms

99.9% CPU use with 104 MPI tasks x 1 OpenMP threads

Minimization stats:
  Stopping criterion = energy tolerance
  Energy initial, next-to-last, final = 
     -1152448.78298403  -1152448.78491787  -1152448.78491787
  Force two-norm initial, final = 0.20789553 6.4577958e-05
  Force max component initial, final = 0.090833546 9.5393631e-06
  Final line search alpha, max atom move = 1.0000000 9.5393631e-06
  Iterations, force evaluations = 192 384

MPI task timing breakdown:
Section |  min time  |  avg time  |  max time  |%varavg| %total
---------------------------------------------------------------
Pair    | 0.57682    | 1.6342     | 2.1346     |  34.9 | 71.20
Neigh   | 0          | 0          | 0          |   0.0 |  0.00
Comm    | 0.034729   | 0.37811    | 1.1348     |  49.9 | 16.47
Output  | 0          | 0          | 0          |   0.0 |  0.00
Modify  | 2.3183e-05 | 0.0031708  | 0.0067349  |   2.6 |  0.14
Other   |            | 0.2799     |            |       | 12.19

Nlocal:        2776.45 ave        3957 max           0 min
Histogram: 8 4 4 0 4 12 8 2 28 34
Nghost:        3879.06 ave        5425 max         232 min
Histogram: 8 0 8 0 16 0 8 8 16 40
Neighs:        79213.3 ave      115314 max           0 min
Histogram: 8 4 4 0 10 6 8 8 24 32

Total # of neighbors = 8238188
Ave neighs/atom = 28.530422
Neighbor list builds = 0
Dangerous builds = 0
The dot product: -1.54503043153563e-10
Setting atom values ...
  1 settings made for x
  1 settings made for y
  1 settings made for z
Setting up cg style minimization ...
  Unit style    : metal
  Current step  : 4921
Per MPI rank memory allocation (min/avg/max) = 5.441 | 5.816 | 6.074 Mbytes
Step PotEng KinEng TotEng v_fx v_fy v_fz 
    4921   -1152448.8            0   -1152448.8 -0.033467803 -0.075185884 0.0084496888 
    5000   -1152448.8            0   -1152448.8 -4.1437754e-05 -0.00014793817 1.2834396e-05 
    5147   -1152448.8            0   -1152448.8 6.5802397e-07 2.3259868e-06 -2.028024e-07 
Loop time of 2.64503 on 104 procs for 226 steps with 288751 atoms

99.9% CPU use with 104 MPI tasks x 1 OpenMP threads

Minimization stats:
  Stopping criterion = energy tolerance
  Energy initial, next-to-last, final = 
     -1152448.76208309  -1152448.76396193  -1152448.76396193
  Force two-norm initial, final = 0.21012877 1.7632052e-05
  Force max component initial, final = 0.090806552 3.1940058e-06
  Final line search alpha, max atom move = 1.0000000 3.1940058e-06
  Iterations, force evaluations = 226 452

MPI task timing breakdown:
Section |  min time  |  avg time  |  max time  |%varavg| %total
---------------------------------------------------------------
Pair    | 0.6757     | 1.8943     | 2.4632     |  37.3 | 71.62
Neigh   | 0          | 0          | 0          |   0.0 |  0.00
Comm    | 0.039858   | 0.43194    | 1.3053     |  54.5 | 16.33
Output  | 0.00022598 | 0.00022849 | 0.00033529 |   0.0 |  0.01
Modify  | 2.7339e-05 | 0.0037333  | 0.0079469  |   2.9 |  0.14
Other   |            | 0.3148     |            |       | 11.90

Nlocal:        2776.45 ave        3957 max           0 min
Histogram: 8 4 4 0 4 12 8 2 28 34
Nghost:        3879.14 ave        5425 max         232 min
Histogram: 8 0 8 0 16 0 8 8 16 40
Neighs:        79213.3 ave      115314 max           0 min
Histogram: 8 4 4 0 10 6 8 8 24 32

Total # of neighbors = 8238188
Ave neighs/atom = 28.530422
Neighbor list builds = 0
Dangerous builds = 0
The dot product: -5.97303262772986e-09
Setting atom values ...
  1 settings made for x
  1 settings made for y
  1 settings made for z
Setting up cg style minimization ...
  Unit style    : metal
  Current step  : 5147
Per MPI rank memory allocation (min/avg/max) = 5.441 | 5.816 | 6.074 Mbytes
Step PotEng KinEng TotEng v_fx v_fy v_fz 
    5147   -1152448.7            0   -1152448.7 -0.036463354 -0.079643495  0.008631264 
    5311   -1152448.7            0   -1152448.7 -8.470318e-06 -2.6650121e-05 2.3313967e-06 
Loop time of 1.92597 on 104 procs for 164 steps with 288751 atoms

99.9% CPU use with 104 MPI tasks x 1 OpenMP threads

Minimization stats:
  Stopping criterion = energy tolerance
  Energy initial, next-to-last, final = 
     -1152448.73962586  -1152448.74148093  -1152448.74148093
  Force two-norm initial, final = 0.21133501 0.00011146463
  Force max component initial, final = 0.089789921 2.6650121e-05
  Final line search alpha, max atom move = 1.0000000 2.6650121e-05
  Iterations, force evaluations = 164 328

MPI task timing breakdown:
Section |  min time  |  avg time  |  max time  |%varavg| %total
---------------------------------------------------------------
Pair    | 0.49511    | 1.3857     | 1.8012     |  31.8 | 71.95
Neigh   | 0          | 0          | 0          |   0.0 |  0.00
Comm    | 0.02912    | 0.31838    | 0.96464    |  46.5 | 16.53
Output  | 0          | 0          | 0          |   0.0 |  0.00
Modify  | 2.0115e-05 | 0.0027098  | 0.0057943  |   2.5 |  0.14
Other   |            | 0.2192     |            |       | 11.38

Nlocal:        2776.45 ave        3957 max           0 min
Histogram: 8 4 4 0 4 12 8 2 28 34
Nghost:        3879.12 ave        5424 max         232 min
Histogram: 8 0 8 0 16 0 8 8 16 40
Neighs:        79213.3 ave      115314 max           0 min
Histogram: 8 4 4 0 10 6 8 8 24 32

Total # of neighbors = 8238187
Ave neighs/atom = 28.530419
Neighbor list builds = 0
Dangerous builds = 0
The dot product: 1.20116565870194e-07
Setting atom values ...
  1 settings made for x
  1 settings made for y
  1 settings made for z
Setting up cg style minimization ...
  Unit style    : metal
  Current step  : 5311
Per MPI rank memory allocation (min/avg/max) = 5.441 | 5.816 | 6.074 Mbytes
Step PotEng KinEng TotEng v_fx v_fy v_fz 
    5311   -1152448.7            0   -1152448.7 -0.037871479 -0.082445102 0.0081785932 
    5488   -1152448.7            0   -1152448.7 -2.4104007e-06 -2.3764069e-06 4.2239531e-07 
Loop time of 2.05514 on 104 procs for 177 steps with 288751 atoms

99.9% CPU use with 104 MPI tasks x 1 OpenMP threads

Minimization stats:
  Stopping criterion = energy tolerance
  Energy initial, next-to-last, final = 
     -1152448.71565536  -1152448.71748584  -1152448.71748584
  Force two-norm initial, final = 0.21138897 6.3386045e-05
  Force max component initial, final = 0.088154499 1.5776431e-05
  Final line search alpha, max atom move = 1.0000000 1.5776431e-05
  Iterations, force evaluations = 177 354

MPI task timing breakdown:
Section |  min time  |  avg time  |  max time  |%varavg| %total
---------------------------------------------------------------
Pair    | 0.52821    | 1.4887     | 1.938      |  33.2 | 72.44
Neigh   | 0          | 0          | 0          |   0.0 |  0.00
Comm    | 0.029743   | 0.33723    | 1.0216     |  48.8 | 16.41
Output  | 0          | 0          | 0          |   0.0 |  0.00
Modify  | 2.163e-05  | 0.0029334  | 0.0063033  |   2.6 |  0.14
Other   |            | 0.2263     |            |       | 11.01

Nlocal:        2776.45 ave        3957 max           0 min
Histogram: 8 4 4 0 4 12 8 2 28 34
Nghost:        3879.13 ave        5424 max         232 min
Histogram: 8 0 8 0 16 0 8 8 16 40
Neighs:        79213.3 ave      115304 max           0 min
Histogram: 8 4 4 0 10 6 8 8 24 32

Total # of neighbors = 8238186
Ave neighs/atom = 28.530415
Neighbor list builds = 0
Dangerous builds = 0
The dot product: 2.14001144064379e-08
Setting atom values ...
  1 settings made for x
  1 settings made for y
  1 settings made for z
Setting up cg style minimization ...
  Unit style    : metal
  Current step  : 5488
Per MPI rank memory allocation (min/avg/max) = 5.441 | 5.816 | 6.074 Mbytes
Step PotEng KinEng TotEng v_fx v_fy v_fz 
    5488   -1152448.7            0   -1152448.7 -0.037784309 -0.084184659 0.0072829068 
    5693   -1152448.7            0   -1152448.7 -5.5024878e-07 -1.8819431e-06 1.2363709e-07 
Loop time of 2.38581 on 104 procs for 205 steps with 288751 atoms

99.9% CPU use with 104 MPI tasks x 1 OpenMP threads

Minimization stats:
  Stopping criterion = energy tolerance
  Energy initial, next-to-last, final = 
     -1152448.69019599   -1152448.6919943   -1152448.6919943
  Force two-norm initial, final = 0.21057071 4.1443781e-05
  Force max component initial, final = 0.086051645 3.4235127e-06
  Final line search alpha, max atom move = 1.0000000 3.4235127e-06
  Iterations, force evaluations = 205 410

MPI task timing breakdown:
Section |  min time  |  avg time  |  max time  |%varavg| %total
---------------------------------------------------------------
Pair    | 0.61452    | 1.7294     | 2.2414     |  35.5 | 72.49
Neigh   | 0          | 0          | 0          |   0.0 |  0.00
Comm    | 0.038666   | 0.3922     | 1.1798     |  52.4 | 16.44
Output  | 0          | 0          | 0          |   0.0 |  0.00
Modify  | 2.4863e-05 | 0.0033805  | 0.007199   |   2.7 |  0.14
Other   |            | 0.2608     |            |       | 10.93

Nlocal:        2776.45 ave        3956 max           0 min
Histogram: 8 4 4 0 4 12 8 0 30 34
Nghost:        3879.14 ave        5424 max         232 min
Histogram: 8 0 8 0 16 0 8 8 16 40
Neighs:        79213.3 ave      115270 max           0 min
Histogram: 8 4 4 0 10 6 8 8 24 32

Total # of neighbors = 8238188
Ave neighs/atom = 28.530422
Neighbor list builds = 0
Dangerous builds = 0
The dot product: 1.194915035971e-08
Setting atom values ...
  1 settings made for x
  1 settings made for y
  1 settings made for z
Setting up cg style minimization ...
  Unit style    : metal
  Current step  : 5693
Per MPI rank memory allocation (min/avg/max) = 5.441 | 5.816 | 6.074 Mbytes
Step PotEng KinEng TotEng v_fx v_fy v_fz 
    5693   -1152448.7            0   -1152448.7 -0.036234849 -0.085319219 0.0060806285 
    5873   -1152448.7            0   -1152448.7 -7.7690624e-06 -1.9052003e-05 1.3177434e-06 
Loop time of 2.09088 on 104 procs for 180 steps with 288751 atoms

99.9% CPU use with 104 MPI tasks x 1 OpenMP threads

Minimization stats:
  Stopping criterion = energy tolerance
  Energy initial, next-to-last, final = 
     -1152448.66327091  -1152448.66503056  -1152448.66503056
  Force two-norm initial, final = 0.209211 7.1450196e-05
  Force max component initial, final = 0.085319219 3.0710818e-05
  Final line search alpha, max atom move = 1.0000000 3.0710818e-05
  Iterations, force evaluations = 180 360

MPI task timing breakdown:
Section |  min time  |  avg time  |  max time  |%varavg| %total
---------------------------------------------------------------
Pair    | 0.53815    | 1.5111     | 1.9697     |  33.4 | 72.27
Neigh   | 0          | 0          | 0          |   0.0 |  0.00
Comm    | 0.031225   | 0.34043    | 1.0294     |  49.2 | 16.28
Output  | 0          | 0          | 0          |   0.0 |  0.00
Modify  | 2.1725e-05 | 0.0029769  | 0.0063136  |   2.6 |  0.14
Other   |            | 0.2363     |            |       | 11.30

Nlocal:        2776.45 ave        3956 max           0 min
Histogram: 8 4 4 0 4 12 8 2 28 34
Nghost:        3879.16 ave        5424 max         232 min
Histogram: 8 0 8 0 16 0 8 8 16 40
Neighs:        79213.3 ave      115269 max           0 min
Histogram: 8 4 4 0 10 6 8 8 24 32

Total # of neighbors = 8238186
Ave neighs/atom = 28.530415
Neighbor list builds = 0
Dangerous builds = 0
The dot product: 1.43356006185471e-07
Setting atom values ...
  1 settings made for x
  1 settings made for y
  1 settings made for z
Setting up cg style minimization ...
  Unit style    : metal
  Current step  : 5873
Per MPI rank memory allocation (min/avg/max) = 5.441 | 5.816 | 6.074 Mbytes
Step PotEng KinEng TotEng v_fx v_fy v_fz 
    5873   -1152448.6            0   -1152448.6 -0.033118129  -0.08605493 0.0046513327 
    6000   -1152448.6            0   -1152448.6 1.5059559e-05 3.4737206e-05 -2.0736054e-06 
    6028   -1152448.6            0   -1152448.6 -7.8505123e-06 -1.5750077e-05 1.0587126e-06 
Loop time of 1.80349 on 104 procs for 155 steps with 288751 atoms

99.9% CPU use with 104 MPI tasks x 1 OpenMP threads

Minimization stats:
  Stopping criterion = energy tolerance
  Energy initial, next-to-last, final = 
     -1152448.63490857  -1152448.63662523  -1152448.63662523
  Force two-norm initial, final = 0.20751447 0.00016155116
  Force max component initial, final = 0.08605493 1.6734027e-05
  Final line search alpha, max atom move = 1.0000000 1.6734027e-05
  Iterations, force evaluations = 155 310

MPI task timing breakdown:
Section |  min time  |  avg time  |  max time  |%varavg| %total
---------------------------------------------------------------
Pair    | 0.46505    | 1.3062     | 1.6965     |  31.0 | 72.42
Neigh   | 0          | 0          | 0          |   0.0 |  0.00
Comm    | 0.02695    | 0.29495    | 0.89266    |  45.4 | 16.35
Output  | 0.00022059 | 0.00022616 | 0.00035163 |   0.0 |  0.01
Modify  | 1.9085e-05 | 0.0025613  | 0.0054217  |   2.4 |  0.14
Other   |            | 0.1996     |            |       | 11.07

Nlocal:        2776.45 ave        3956 max           0 min
Histogram: 8 4 4 0 4 12 8 2 28 34
Nghost:        3879.16 ave        5424 max         232 min
Histogram: 8 0 8 0 16 0 8 8 16 40
Neighs:        79213.3 ave      115271 max           0 min
Histogram: 8 4 4 0 10 6 8 8 24 32

Total # of neighbors = 8238188
Ave neighs/atom = 28.530422
Neighbor list builds = 0
Dangerous builds = 0
The dot product: 1.32778643466102e-07
Setting atom values ...
  1 settings made for x
  1 settings made for y
  1 settings made for z
Setting up cg style minimization ...
  Unit style    : metal
  Current step  : 6028
Per MPI rank memory allocation (min/avg/max) = 5.441 | 5.816 | 6.074 Mbytes
Step PotEng KinEng TotEng v_fx v_fy v_fz 
    6028   -1152448.6            0   -1152448.6 -0.028141356 -0.086534504 0.0030259281 
    6253   -1152448.6            0   -1152448.6 7.0238823e-07 1.6397992e-06 -7.5647511e-08 
Loop time of 2.60535 on 104 procs for 225 steps with 288751 atoms

99.9% CPU use with 104 MPI tasks x 1 OpenMP threads

Minimization stats:
  Stopping criterion = energy tolerance
  Energy initial, next-to-last, final = 
     -1152448.60514595  -1152448.60681874  -1152448.60681874
  Force two-norm initial, final = 0.20561573 2.3162988e-05
  Force max component initial, final = 0.086534504 2.8996680e-06
  Final line search alpha, max atom move = 1.0000000 2.8996680e-06
  Iterations, force evaluations = 225 450

MPI task timing breakdown:
Section |  min time  |  avg time  |  max time  |%varavg| %total
---------------------------------------------------------------
Pair    | 0.67546    | 1.8838     | 2.4509     |  37.1 | 72.30
Neigh   | 0          | 0          | 0          |   0.0 |  0.00
Comm    | 0.039261   | 0.42434    | 1.2772     |  54.7 | 16.29
Output  | 0          | 0          | 0          |   0.0 |  0.00
Modify  | 2.7144e-05 | 0.0037118  | 0.0078823  |   2.9 |  0.14
Other   |            | 0.2935     |            |       | 11.27

Nlocal:        2776.45 ave        3956 max           0 min
Histogram: 8 4 4 0 4 12 8 2 28 34
Nghost:        3879.11 ave        5424 max         232 min
Histogram: 8 0 8 0 16 0 8 8 16 40
Neighs:        79213.3 ave      115272 max           0 min
Histogram: 8 4 4 0 10 6 8 8 24 32

Total # of neighbors = 8238188
Ave neighs/atom = 28.530422
Neighbor list builds = 0
Dangerous builds = 0
The dot product: -1.39567920694161e-08
Setting atom values ...
  1 settings made for x
  1 settings made for y
  1 settings made for z
Setting up cg style minimization ...
  Unit style    : metal
  Current step  : 6253
Per MPI rank memory allocation (min/avg/max) = 5.441 | 5.816 | 6.074 Mbytes
Step PotEng KinEng TotEng v_fx v_fy v_fz 
    6253   -1152448.6            0   -1152448.6 -0.022110419 -0.086379494 0.0013265463 
    6478   -1152448.6            0   -1152448.6 1.7854661e-06 3.9221236e-06 -1.3992393e-07 
Loop time of 2.63403 on 104 procs for 225 steps with 288751 atoms

99.9% CPU use with 104 MPI tasks x 1 OpenMP threads

Minimization stats:
  Stopping criterion = energy tolerance
  Energy initial, next-to-last, final = 
     -1152448.57404378  -1152448.57567379  -1152448.57567379
  Force two-norm initial, final = 0.2035359 2.2378353e-05
  Force max component initial, final = 0.086673174 5.2673827e-06
  Final line search alpha, max atom move = 1.0000000 5.2673827e-06
  Iterations, force evaluations = 225 450

MPI task timing breakdown:
Section |  min time  |  avg time  |  max time  |%varavg| %total
---------------------------------------------------------------
Pair    | 0.67157    | 1.9001     | 2.4759     |  37.6 | 72.14
Neigh   | 0          | 0          | 0          |   0.0 |  0.00
Comm    | 0.039907   | 0.43178    | 1.3061     |  54.6 | 16.39
Output  | 0          | 0          | 0          |   0.0 |  0.00
Modify  | 2.7471e-05 | 0.0037137  | 0.0078919  |   2.9 |  0.14
Other   |            | 0.2985     |            |       | 11.33

Nlocal:        2776.45 ave        3956 max           0 min
Histogram: 8 4 4 0 4 12 8 2 28 34
Nghost:        3879.07 ave        5424 max         232 min
Histogram: 8 0 8 0 16 0 8 8 16 40
Neighs:        79213.4 ave      115282 max           0 min
Histogram: 8 4 4 0 10 6 8 8 24 32

Total # of neighbors = 8238189
Ave neighs/atom = 28.530426
Neighbor list builds = 0
Dangerous builds = 0
The dot product: -3.5770140091812e-08
Setting atom values ...
  1 settings made for x
  1 settings made for y
  1 settings made for z
Setting up cg style minimization ...
  Unit style    : metal
  Current step  : 6478
Per MPI rank memory allocation (min/avg/max) = 5.441 | 5.816 | 6.074 Mbytes
Step PotEng KinEng TotEng v_fx v_fy v_fz 
    6478   -1152448.5            0   -1152448.5 -0.012353754 -0.087214338 -0.00076525022 
    6746   -1152448.6            0   -1152448.6 -2.7518135e-05 -8.1369775e-05 8.5343441e-07 
Loop time of 3.1195 on 104 procs for 268 steps with 288751 atoms

99.9% CPU use with 104 MPI tasks x 1 OpenMP threads

Minimization stats:
  Stopping criterion = energy tolerance
  Energy initial, next-to-last, final = 
     -1152448.54175938  -1152448.61680103  -1152448.61680103
  Force two-norm initial, final = 0.20195037 0.00024415906
  Force max component initial, final = 0.088504703 8.1568722e-05
  Final line search alpha, max atom move = 1.0000000 8.1568722e-05
  Iterations, force evaluations = 268 536

MPI task timing breakdown:
Section |  min time  |  avg time  |  max time  |%varavg| %total
---------------------------------------------------------------
Pair    | 0.81119    | 2.2489     | 2.9262     |  40.5 | 72.09
Neigh   | 2.0657e-05 | 0.0058791  | 0.0084978  |   3.2 |  0.19
Comm    | 0.048374   | 0.51081    | 1.5442     |  59.6 | 16.37
Output  | 0          | 0          | 0          |   0.0 |  0.00
Modify  | 3.2534e-05 | 0.0044306  | 0.0094285  |   3.1 |  0.14
Other   |            | 0.3495     |            |       | 11.20

Nlocal:        2776.45 ave        3956 max           0 min
Histogram: 8 4 4 0 4 12 8 2 28 34
Nghost:        3879.03 ave        5424 max         232 min
Histogram: 8 0 8 0 16 0 8 8 16 40
Neighs:        79213.4 ave      115296 max           0 min
Histogram: 8 4 4 0 10 6 8 8 24 32

Total # of neighbors = 8238190
Ave neighs/atom = 28.530429
Neighbor list builds = 2
Dangerous builds = 0
The dot product: 8.6860645870789e-06
Setting atom values ...
  1 settings made for x
  1 settings made for y
  1 settings made for z
Setting up cg style minimization ...
  Unit style    : metal
  Current step  : 6746
Per MPI rank memory allocation (min/avg/max) = 5.441 | 5.816 | 6.074 Mbytes
Step PotEng KinEng TotEng v_fx v_fy v_fz 
    6746   -1152448.6            0   -1152448.6  0.087794004  -0.14030485 -0.088045104 
    6998   -1152448.6            0   -1152448.6 2.7745802e-07 -8.4560841e-06 -2.8350322e-06 
Loop time of 2.92386 on 104 procs for 252 steps with 288751 atoms

99.9% CPU use with 104 MPI tasks x 1 OpenMP threads

Minimization stats:
  Stopping criterion = energy tolerance
  Energy initial, next-to-last, final = 
     -1152448.61004382  -1152448.61311174  -1152448.61311174
  Force two-norm initial, final = 0.2321708 2.4891587e-05
  Force max component initial, final = 0.14030485 8.4560841e-06
  Final line search alpha, max atom move = 1.0000000 8.4560841e-06
  Iterations, force evaluations = 252 504

MPI task timing breakdown:
Section |  min time  |  avg time  |  max time  |%varavg| %total
---------------------------------------------------------------
Pair    | 0.75829    | 2.1283     | 2.7537     |  39.5 | 72.79
Neigh   | 0          | 0          | 0          |   0.0 |  0.00
Comm    | 0.043758   | 0.4806     | 1.4764     |  58.5 | 16.44
Output  | 0          | 0          | 0          |   0.0 |  0.00
Modify  | 3.0326e-05 | 0.0041538  | 0.0088406  |   3.0 |  0.14
Other   |            | 0.3108     |            |       | 10.63

Nlocal:        2776.45 ave        3960 max           0 min
Histogram: 8 4 4 0 4 12 8 2 28 34
Nghost:        3879.06 ave        5424 max         232 min
Histogram: 8 0 8 0 16 0 8 8 16 40
Neighs:        79213.3 ave      115441 max           0 min
Histogram: 8 4 4 0 10 6 8 8 24 32

Total # of neighbors = 8238185
Ave neighs/atom = 28.530412
Neighbor list builds = 0
Dangerous builds = 0
The dot product: 1.82739857517621e-07
Setting atom values ...
  1 settings made for x
  1 settings made for y
  1 settings made for z
Setting up cg style minimization ...
  Unit style    : metal
  Current step  : 6998
Per MPI rank memory allocation (min/avg/max) = 5.441 | 5.816 | 6.074 Mbytes
Step PotEng KinEng TotEng v_fx v_fy v_fz 
    6998   -1152448.6            0   -1152448.6 -0.0045598591 -0.075362956 -0.023979145 
    7000   -1152448.6            0   -1152448.6 -0.019817085 -0.032222573 -0.00068841367 
    7268     -1152449            0     -1152449 -1.2126529e-05 7.2208142e-06 9.0225872e-06 
Loop time of 3.18176 on 104 procs for 270 steps with 288751 atoms

99.9% CPU use with 104 MPI tasks x 1 OpenMP threads

Minimization stats:
  Stopping criterion = energy tolerance
  Energy initial, next-to-last, final = 
     -1152448.60638443  -1152448.99363475  -1152448.99363475
  Force two-norm initial, final = 0.15921559 0.00022400669
  Force max component initial, final = 0.075362956 2.9113230e-05
  Final line search alpha, max atom move = 1.0000000 2.9113230e-05
  Iterations, force evaluations = 270 538

MPI task timing breakdown:
Section |  min time  |  avg time  |  max time  |%varavg| %total
---------------------------------------------------------------
Pair    | 0.83964    | 2.267      | 2.9523     |  40.1 | 71.25
Neigh   | 9.0519e-05 | 0.026476   | 0.038229   |   6.7 |  0.83
Comm    | 0.050259   | 0.51497    | 1.5369     |  59.4 | 16.18
Output  | 0.00013566 | 0.0001447  | 0.00020093 |   0.0 |  0.00
Modify  | 3.3336e-05 | 0.0044463  | 0.0094614  |   3.1 |  0.14
Other   |            | 0.3688     |            |       | 11.59

Nlocal:        2776.45 ave        3960 max           0 min
Histogram: 8 4 4 0 4 12 8 2 28 34
Nghost:        3879.11 ave        5425 max         232 min
Histogram: 8 0 8 0 16 0 8 8 16 40
Neighs:        79213.6 ave      115438 max           0 min
Histogram: 8 4 4 0 10 6 8 8 24 32

Total # of neighbors = 8238215
Ave neighs/atom = 28.530516
Neighbor list builds = 9
Dangerous builds = 0
The dot product: -5.92135800540419e-06
Setting atom values ...
  1 settings made for x
  1 settings made for y
  1 settings made for z
Setting up cg style minimization ...
  Unit style    : metal
  Current step  : 7268
Per MPI rank memory allocation (min/avg/max) = 5.441 | 5.816 | 6.074 Mbytes
Step PotEng KinEng TotEng v_fx v_fy v_fz 
    7268     -1152449            0     -1152449   0.25301119   0.56120545   0.76020094 
    7533   -1152449.2            0   -1152449.2 5.891469e-07 1.978412e-05 3.3147426e-05 
Loop time of 3.09124 on 104 procs for 265 steps with 288751 atoms

99.9% CPU use with 104 MPI tasks x 1 OpenMP threads

Minimization stats:
  Stopping criterion = energy tolerance
  Energy initial, next-to-last, final = 
     -1152449.01787541  -1152449.17360296  -1152449.17360296
  Force two-norm initial, final = 0.99022417 0.00011858327
  Force max component initial, final = 0.76020094 3.3147426e-05
  Final line search alpha, max atom move = 1.0000000 3.3147426e-05
  Iterations, force evaluations = 265 530

MPI task timing breakdown:
Section |  min time  |  avg time  |  max time  |%varavg| %total
---------------------------------------------------------------
Pair    | 0.79932    | 2.2322     | 2.9072     |  40.4 | 72.21
Neigh   | 2.0318e-05 | 0.0058865  | 0.0085566  |   3.2 |  0.19
Comm    | 0.045353   | 0.5097     | 1.5554     |  59.2 | 16.49
Output  | 0          | 0          | 0          |   0.0 |  0.00
Modify  | 3.2293e-05 | 0.0043682  | 0.0092543  |   3.1 |  0.14
Other   |            | 0.3391     |            |       | 10.97

Nlocal:        2776.45 ave        3961 max           0 min
Histogram: 8 4 4 0 6 10 8 4 26 34
Nghost:        3879.00 ave        5426 max         232 min
Histogram: 8 0 8 0 16 0 8 8 16 40
Neighs:        79213.5 ave      115476 max           0 min
Histogram: 8 4 4 0 10 6 8 8 24 32

Total # of neighbors = 8238203
Ave neighs/atom = 28.530474
Neighbor list builds = 2
Dangerous builds = 0
The dot product: 1.13321283127171e-05
Setting atom values ...
  1 settings made for x
  1 settings made for y
  1 settings made for z
Setting up cg style minimization ...
  Unit style    : metal
  Current step  : 7533
Per MPI rank memory allocation (min/avg/max) = 5.441 | 5.816 | 6.074 Mbytes
Step PotEng KinEng TotEng v_fx v_fy v_fz 
    7533   -1152449.2            0   -1152449.2  -0.12314702  -0.36554698  -0.23854306 
    7769   -1152449.2            0   -1152449.2 2.3467891e-06 -1.1734974e-05 -1.2081014e-05 
Loop time of 2.75538 on 104 procs for 236 steps with 288751 atoms

99.9% CPU use with 104 MPI tasks x 1 OpenMP threads

Minimization stats:
  Stopping criterion = energy tolerance
  Energy initial, next-to-last, final = 
     -1152449.19795972  -1152449.22519596  -1152449.22519596
  Force two-norm initial, final = 0.48390654 9.8111472e-05
  Force max component initial, final = 0.36554698 1.6870978e-05
  Final line search alpha, max atom move = 1.0000000 1.6870978e-05
  Iterations, force evaluations = 236 472

MPI task timing breakdown:
Section |  min time  |  avg time  |  max time  |%varavg| %total
---------------------------------------------------------------
Pair    | 0.71317    | 1.9821     | 2.5854     |  38.1 | 71.94
Neigh   | 1.0132e-05 | 0.0029388  | 0.004274   |   2.2 |  0.11
Comm    | 0.040503   | 0.4484     | 1.3532     |  56.0 | 16.27
Output  | 0          | 0          | 0          |   0.0 |  0.00
Modify  | 2.8535e-05 | 0.0039026  | 0.0082826  |   2.9 |  0.14
Other   |            | 0.3181     |            |       | 11.54

Nlocal:        2776.45 ave        3961 max           0 min
Histogram: 8 4 4 0 6 10 8 4 26 34
Nghost:        3879.09 ave        5426 max         232 min
Histogram: 8 0 8 0 16 0 8 8 16 40
Neighs:        79213.4 ave      115467 max           0 min
Histogram: 8 4 4 0 10 6 8 8 24 32

Total # of neighbors = 8238197
Ave neighs/atom = 28.530454
Neighbor list builds = 1
Dangerous builds = 0
The dot product: 1.77667768750105e-06
Setting atom values ...
  1 settings made for x
  1 settings made for y
  1 settings made for z
Setting up cg style minimization ...
  Unit style    : metal
  Current step  : 7769
Per MPI rank memory allocation (min/avg/max) = 5.441 | 5.816 | 6.074 Mbytes
Step PotEng KinEng TotEng v_fx v_fy v_fz 
    7769   -1152449.2            0   -1152449.2  0.046013095   0.07744612  0.054458508 
    7984   -1152449.3            0   -1152449.3 3.120628e-05 5.488854e-06 -1.5641572e-05 
Loop time of 2.54181 on 104 procs for 215 steps with 288751 atoms

99.9% CPU use with 104 MPI tasks x 1 OpenMP threads

Minimization stats:
  Stopping criterion = energy tolerance
  Energy initial, next-to-last, final = 
     -1152449.24696332   -1152449.2517415   -1152449.2517415
  Force two-norm initial, final = 0.19037018 0.00010634645
  Force max component initial, final = 0.087908749 3.1206280e-05
  Final line search alpha, max atom move = 1.0000000 3.1206280e-05
  Iterations, force evaluations = 215 430

MPI task timing breakdown:
Section |  min time  |  avg time  |  max time  |%varavg| %total
---------------------------------------------------------------
Pair    | 0.64499    | 1.8195     | 2.361      |  36.4 | 71.58
Neigh   | 0          | 0          | 0          |   0.0 |  0.00
Comm    | 0.041577   | 0.41321    | 1.2341     |  53.2 | 16.26
Output  | 0          | 0          | 0          |   0.0 |  0.00
Modify  | 2.5614e-05 | 0.0035442  | 0.0075209  |   2.8 |  0.14
Other   |            | 0.3056     |            |       | 12.02

Nlocal:        2776.45 ave        3961 max           0 min
Histogram: 8 4 4 0 6 10 8 4 26 34
Nghost:        3879.03 ave        5425 max         232 min
Histogram: 8 0 8 0 16 0 8 8 16 40
Neighs:        79213.5 ave      115502 max           0 min
Histogram: 8 4 4 0 10 6 8 8 24 32

Total # of neighbors = 8238205
Ave neighs/atom = 28.530481
Neighbor list builds = 0
Dangerous builds = 0
The dot product: 4.54704907762806e-07
Setting atom values ...
  1 settings made for x
  1 settings made for y
  1 settings made for z
Setting up cg style minimization ...
  Unit style    : metal
  Current step  : 7984
Per MPI rank memory allocation (min/avg/max) = 5.441 | 5.816 | 6.074 Mbytes
Step PotEng KinEng TotEng v_fx v_fy v_fz 
    7984   -1152449.3            0   -1152449.3 -0.028285346 -0.061605305 -0.043759973 
    8000   -1152449.3            0   -1152449.3 -5.2654223e-05  0.000103117 0.00014363026 
[...]
Histogram: 8 4 4 0 4 12 8 2 28 34
Nghost:        3879.03 ave        5424 max         232 min
Histogram: 8 0 8 0 16 0 8 8 16 40
Neighs:        79213.3 ave      115434 max           0 min
Histogram: 8 4 4 0 10 6 8 8 24 32

Total # of neighbors = 8238183
Ave neighs/atom = 28.530405
Neighbor list builds = 1
Dangerous builds = 0
The dot product: -1.18237192950091e-07
Setting atom values ...
  1 settings made for x
  1 settings made for y
  1 settings made for z
Setting up cg style minimization ...
  Unit style    : metal
  Current step  : 17212
Per MPI rank memory allocation (min/avg/max) = 5.441 | 5.816 | 6.074 Mbytes
Step PotEng KinEng TotEng v_fx v_fy v_fz 
   17212   -1152449.3            0   -1152449.3  0.015859663  0.018445442  0.015073805 
   17429   -1152449.3            0   -1152449.3 2.0488665e-06 -9.3405013e-07 -3.0245269e-06 
Loop time of 2.53318 on 104 procs for 217 steps with 288751 atoms

99.9% CPU use with 104 MPI tasks x 1 OpenMP threads

Minimization stats:
  Stopping criterion = energy tolerance
  Energy initial, next-to-last, final = 
     -1152449.31071565   -1152449.3117152   -1152449.3117152
  Force two-norm initial, final = 0.13206995 3.5205667e-05
  Force max component initial, final = 0.053778672 7.0190449e-06
  Final line search alpha, max atom move = 1.0000000 7.0190449e-06
  Iterations, force evaluations = 217 434

MPI task timing breakdown:
Section |  min time  |  avg time  |  max time  |%varavg| %total
---------------------------------------------------------------
Pair    | 0.64699    | 1.8194     | 2.3876     |  36.6 | 71.82
Neigh   | 0          | 0          | 0          |   0.0 |  0.00
Comm    | 0.048856   | 0.41576    | 1.2504     |  52.8 | 16.41
Output  | 0          | 0          | 0          |   0.0 |  0.00
Modify  | 2.5846e-05 | 0.0035813  | 0.0076199  |   2.8 |  0.14
Other   |            | 0.2944     |            |       | 11.62

Nlocal:        2776.45 ave        3960 max           0 min
Histogram: 8 4 4 0 4 12 8 4 26 34
Nghost:        3879.12 ave        5425 max         232 min
Histogram: 8 0 8 0 16 0 8 8 16 40
Neighs:        79213.4 ave      115427 max           0 min
Histogram: 8 4 4 0 10 6 8 8 24 32

Total # of neighbors = 8238190
Ave neighs/atom = 28.530429
Neighbor list builds = 0
Dangerous builds = 0
The dot product: -1.39942857029252e-08
Setting atom values ...
  1 settings made for x
  1 settings made for y
  1 settings made for z
Setting up cg style minimization ...
  Unit style    : metal
  Current step  : 17429
Per MPI rank memory allocation (min/avg/max) = 5.441 | 5.816 | 6.074 Mbytes
Step PotEng KinEng TotEng v_fx v_fy v_fz 
   17429   -1152449.3            0   -1152449.3  0.041791443  0.022708216 0.00099268519 
   17645   -1152449.3            0   -1152449.3 -2.5874423e-07 -7.056241e-06 -1.0344203e-05 
Loop time of 2.53195 on 104 procs for 216 steps with 288751 atoms

99.9% CPU use with 104 MPI tasks x 1 OpenMP threads

Minimization stats:
  Stopping criterion = energy tolerance
  Energy initial, next-to-last, final = 
     -1152449.32086109  -1152449.32186806  -1152449.32186806
  Force two-norm initial, final = 0.13884974 3.4661267e-05
  Force max component initial, final = 0.056096456 1.0344203e-05
  Final line search alpha, max atom move = 1.0000000 1.0344203e-05
  Iterations, force evaluations = 216 432

MPI task timing breakdown:
Section |  min time  |  avg time  |  max time  |%varavg| %total
---------------------------------------------------------------
Pair    | 0.64449    | 1.8171     | 2.372      |  36.4 | 71.77
Neigh   | 0          | 0          | 0          |   0.0 |  0.00
Comm    | 0.039428   | 0.41909    | 1.2476     |  52.8 | 16.55
Output  | 0          | 0          | 0          |   0.0 |  0.00
Modify  | 2.4304e-05 | 0.0035643  | 0.0075987  |   2.8 |  0.14
Other   |            | 0.2922     |            |       | 11.54

Nlocal:        2776.45 ave        3960 max           0 min
Histogram: 8 4 4 0 4 12 8 4 26 34
Nghost:        3879.10 ave        5424 max         232 min
Histogram: 8 0 8 0 16 0 8 8 16 40
Neighs:        79213.4 ave      115428 max           0 min
Histogram: 8 4 4 0 10 6 8 8 24 32

Total # of neighbors = 8238190
Ave neighs/atom = 28.530429
Neighbor list builds = 0
Dangerous builds = 0
The dot product: -1.04310255117961e-08
Setting atom values ...
  1 settings made for x
  1 settings made for y
  1 settings made for z
Setting up cg style minimization ...
  Unit style    : metal
  Current step  : 17645
Per MPI rank memory allocation (min/avg/max) = 5.441 | 5.816 | 6.074 Mbytes
Step PotEng KinEng TotEng v_fx v_fy v_fz 
   17645   -1152449.3            0   -1152449.3  0.042487474  0.023828228 0.0019968296 
   17860   -1152449.3            0   -1152449.3 3.0975376e-06 7.5723169e-06 8.8611144e-06 
Loop time of 2.51148 on 104 procs for 215 steps with 288751 atoms

99.9% CPU use with 104 MPI tasks x 1 OpenMP threads

Minimization stats:
  Stopping criterion = energy tolerance
  Energy initial, next-to-last, final = 
      -1152449.3294903  -1152449.33051322  -1152449.33051322
  Force two-norm initial, final = 0.14006818 3.5777787e-05
  Force max component initial, final = 0.05784168 8.8611144e-06
  Final line search alpha, max atom move = 1.0000000 8.8611144e-06
  Iterations, force evaluations = 215 430

MPI task timing breakdown:
Section |  min time  |  avg time  |  max time  |%varavg| %total
---------------------------------------------------------------
Pair    | 0.64157    | 1.8021     | 2.3695     |  36.4 | 71.75
Neigh   | 0          | 0          | 0          |   0.0 |  0.00
Comm    | 0.038366   | 0.41235    | 1.2402     |  52.7 | 16.42
Output  | 0          | 0          | 0          |   0.0 |  0.00
Modify  | 2.4155e-05 | 0.0035428  | 0.0075306  |   2.8 |  0.14
Other   |            | 0.2935     |            |       | 11.69

Nlocal:        2776.45 ave        3960 max           0 min
Histogram: 8 4 4 0 4 12 8 4 26 34
Nghost:        3879.11 ave        5424 max         232 min
Histogram: 8 0 8 0 16 0 8 8 16 40
Neighs:        79213.4 ave      115435 max           0 min
Histogram: 8 4 4 0 10 6 8 8 24 32

Total # of neighbors = 8238191
Ave neighs/atom = 28.530433
Neighbor list builds = 0
Dangerous builds = 0
The dot product: 2.03028053220948e-08
Setting atom values ...
  1 settings made for x
  1 settings made for y
  1 settings made for z
Setting up cg style minimization ...
  Unit style    : metal
  Current step  : 17860
Per MPI rank memory allocation (min/avg/max) = 5.441 | 5.816 | 6.074 Mbytes
Step PotEng KinEng TotEng v_fx v_fy v_fz 
   17860   -1152449.3            0   -1152449.3  0.043782509  0.024376345 0.0016674795 
   18000   -1152449.3            0   -1152449.3 7.3577655e-06 9.3516075e-06 8.1210927e-06 
   18053   -1152449.3            0   -1152449.3 1.1348714e-05 2.593142e-06 -5.1262105e-06 
Loop time of 2.28047 on 104 procs for 193 steps with 288751 atoms

99.9% CPU use with 104 MPI tasks x 1 OpenMP threads

Minimization stats:
  Stopping criterion = energy tolerance
  Energy initial, next-to-last, final = 
     -1152449.33662481  -1152449.33766329  -1152449.33766329
  Force two-norm initial, final = 0.14118057 9.1694388e-05
  Force max component initial, final = 0.05955945 1.9753566e-05
  Final line search alpha, max atom move = 1.0000000 1.9753566e-05
  Iterations, force evaluations = 193 386

MPI task timing breakdown:
Section |  min time  |  avg time  |  max time  |%varavg| %total
---------------------------------------------------------------
Pair    | 0.57576    | 1.6208     | 2.1416     |  34.6 | 71.07
Neigh   | 0          | 0          | 0          |   0.0 |  0.00
Comm    | 0.034682   | 0.3746     | 1.1003     |  49.2 | 16.43
Output  | 0.00025797 | 0.00026125 | 0.00042968 |   0.0 |  0.01
Modify  | 2.1659e-05 | 0.0031859  | 0.0067881  |   2.7 |  0.14
Other   |            | 0.2816     |            |       | 12.35

Nlocal:        2776.45 ave        3960 max           0 min
Histogram: 8 4 4 0 4 12 8 2 28 34
Nghost:        3879.07 ave        5424 max         232 min
Histogram: 8 0 8 0 16 0 8 8 16 40
Neighs:        79213.4 ave      115434 max           0 min
Histogram: 8 4 4 0 10 6 8 8 24 32

Total # of neighbors = 8238191
Ave neighs/atom = 28.530433
Neighbor list builds = 0
Dangerous builds = 0
The dot product: 3.14235468776497e-08
Setting atom values ...
  1 settings made for x
  1 settings made for y
  1 settings made for z
Setting up cg style minimization ...
  Unit style    : metal
  Current step  : 18053
Per MPI rank memory allocation (min/avg/max) = 5.441 | 5.816 | 6.074 Mbytes
Step PotEng KinEng TotEng v_fx v_fy v_fz 
   18053   -1152449.3            0   -1152449.3  0.044382992  0.024189053 0.00077998605 
   18228   -1152449.3            0   -1152449.3 8.0485978e-06 -9.1893913e-06 -2.009141e-05 
Loop time of 2.04375 on 104 procs for 175 steps with 288751 atoms

99.9% CPU use with 104 MPI tasks x 1 OpenMP threads

Minimization stats:
  Stopping criterion = energy tolerance
  Energy initial, next-to-last, final = 
     -1152449.34227671  -1152449.34332844  -1152449.34332844
  Force two-norm initial, final = 0.14185057 0.00015251809
  Force max component initial, final = 0.061238096 2.0091410e-05
  Final line search alpha, max atom move = 1.0000000 2.0091410e-05
  Iterations, force evaluations = 175 350

MPI task timing breakdown:
Section |  min time  |  avg time  |  max time  |%varavg| %total
---------------------------------------------------------------
Pair    | 0.52208    | 1.467      | 1.9267     |  32.9 | 71.78
Neigh   | 0          | 0          | 0          |   0.0 |  0.00
Comm    | 0.03293    | 0.33577    | 0.99396    |  47.3 | 16.43
Output  | 0          | 0          | 0          |   0.0 |  0.00
Modify  | 1.9712e-05 | 0.002892   | 0.0061312  |   2.5 |  0.14
Other   |            | 0.2381     |            |       | 11.65

Nlocal:        2776.45 ave        3960 max           0 min
Histogram: 8 4 4 0 4 12 8 2 28 34
Nghost:        3879.09 ave        5424 max         232 min
Histogram: 8 0 8 0 16 0 8 8 16 40
Neighs:        79213.4 ave      115434 max           0 min
Histogram: 8 4 4 0 10 6 8 8 24 32

Total # of neighbors = 8238191
Ave neighs/atom = 28.530433
Neighbor list builds = 0
Dangerous builds = 0
The dot product: 1.12381705385115e-09
Setting atom values ...
  1 settings made for x
  1 settings made for y
  1 settings made for z
Setting up cg style minimization ...
  Unit style    : metal
  Current step  : 18228
Per MPI rank memory allocation (min/avg/max) = 5.441 | 5.816 | 6.074 Mbytes
Step PotEng KinEng TotEng v_fx v_fy v_fz 
   18228   -1152449.3            0   -1152449.3  0.044414027  0.023402705 -0.00055056348 
   18447   -1152449.3            0   -1152449.3 -4.0961324e-06 -4.5921929e-06 -3.5722877e-06 
Loop time of 2.58784 on 104 procs for 219 steps with 288751 atoms

99.9% CPU use with 104 MPI tasks x 1 OpenMP threads

Minimization stats:
  Stopping criterion = energy tolerance
  Energy initial, next-to-last, final = 
     -1152449.34645265  -1152449.34751579  -1152449.34751579
  Force two-norm initial, final = 0.14220175 2.8991458e-05
  Force max component initial, final = 0.062848899 7.1100059e-06
  Final line search alpha, max atom move = 1.0000000 7.1100059e-06
  Iterations, force evaluations = 219 438

MPI task timing breakdown:
Section |  min time  |  avg time  |  max time  |%varavg| %total
---------------------------------------------------------------
Pair    | 0.65234    | 1.8396     | 2.4273     |  36.8 | 71.09
Neigh   | 0          | 0          | 0          |   0.0 |  0.00
Comm    | 0.042756   | 0.42743    | 1.253      |  52.4 | 16.52
Output  | 0          | 0          | 0          |   0.0 |  0.00
Modify  | 2.4426e-05 | 0.0036106  | 0.0076925  |   2.8 |  0.14
Other   |            | 0.3172     |            |       | 12.26

Nlocal:        2776.45 ave        3960 max           0 min
Histogram: 8 4 4 0 4 12 8 2 28 34
Nghost:        3879.05 ave        5424 max         232 min
Histogram: 8 0 8 0 16 0 8 8 16 40
Neighs:        79213.4 ave      115434 max           0 min
Histogram: 8 4 4 0 10 6 8 8 24 32

Total # of neighbors = 8238189
Ave neighs/atom = 28.530426
Neighbor list builds = 0
Dangerous builds = 0
The dot product: -1.91228675740279e-08
Setting atom values ...
  1 settings made for x
  1 settings made for y
  1 settings made for z
Setting up cg style minimization ...
  Unit style    : metal
  Current step  : 18447
Per MPI rank memory allocation (min/avg/max) = 5.441 | 5.816 | 6.074 Mbytes
Step PotEng KinEng TotEng v_fx v_fy v_fz 
   18447   -1152449.3            0   -1152449.3  0.044022508  0.022197083 -0.0021643493 
   18664   -1152449.4            0   -1152449.4 4.6182867e-06 6.0381823e-07 -2.7916861e-06 
Loop time of 2.52626 on 104 procs for 217 steps with 288751 atoms

99.9% CPU use with 104 MPI tasks x 1 OpenMP threads

Minimization stats:
  Stopping criterion = energy tolerance
  Energy initial, next-to-last, final = 
     -1152449.34915734  -1152449.35023041  -1152449.35023041
  Force two-norm initial, final = 0.14236721 3.0196419e-05
  Force max component initial, final = 0.064416689 4.6182867e-06
  Final line search alpha, max atom move = 1.0000000 4.6182867e-06
  Iterations, force evaluations = 217 434

MPI task timing breakdown:
Section |  min time  |  avg time  |  max time  |%varavg| %total
---------------------------------------------------------------
Pair    | 0.64819    | 1.8186     | 2.3809     |  36.5 | 71.99
Neigh   | 0          | 0          | 0          |   0.0 |  0.00
Comm    | 0.042193   | 0.41593    | 1.2388     |  52.9 | 16.46
Output  | 0          | 0          | 0          |   0.0 |  0.00
Modify  | 2.4419e-05 | 0.00358    | 0.0076268  |   2.8 |  0.14
Other   |            | 0.2881     |            |       | 11.41

Nlocal:        2776.45 ave        3960 max           0 min
Histogram: 8 4 4 0 4 12 8 2 28 34
Nghost:        3879.01 ave        5424 max         232 min
Histogram: 8 0 8 0 16 0 8 8 16 40
Neighs:        79213.3 ave      115434 max           0 min
Histogram: 8 4 4 0 10 6 8 8 24 32

Total # of neighbors = 8238188
Ave neighs/atom = 28.530422
Neighbor list builds = 0
Dangerous builds = 0
The dot product: 1.25482552506245e-08
Setting atom values ...
  1 settings made for x
  1 settings made for y
  1 settings made for z
Setting up cg style minimization ...
  Unit style    : metal
  Current step  : 18664
Per MPI rank memory allocation (min/avg/max) = 5.441 | 5.816 | 6.074 Mbytes
Step PotEng KinEng TotEng v_fx v_fy v_fz 
   18664   -1152449.4            0   -1152449.4  0.043479761  0.020852341 -0.0038556086 
   18866   -1152449.4            0   -1152449.4 -2.8777355e-06 -6.9371059e-06 -7.9986183e-06 
Loop time of 2.38625 on 104 procs for 202 steps with 288751 atoms

99.9% CPU use with 104 MPI tasks x 1 OpenMP threads

Minimization stats:
  Stopping criterion = energy tolerance
  Energy initial, next-to-last, final = 
     -1152449.35039883  -1152449.35147929  -1152449.35147929
  Force two-norm initial, final = 0.14244968 6.8933638e-05
  Force max component initial, final = 0.065935883 1.2767843e-05
  Final line search alpha, max atom move = 1.0000000 1.2767843e-05
  Iterations, force evaluations = 202 404

MPI task timing breakdown:
Section |  min time  |  avg time  |  max time  |%varavg| %total
---------------------------------------------------------------
Pair    | 0.60419    | 1.7006     | 2.2254     |  35.3 | 71.27
Neigh   | 0          | 0          | 0          |   0.0 |  0.00
Comm    | 0.040092   | 0.39112    | 1.1538     |  51.0 | 16.39
Output  | 0          | 0          | 0          |   0.0 |  0.00
Modify  | 2.3104e-05 | 0.0033359  | 0.0071439  |   2.7 |  0.14
Other   |            | 0.2912     |            |       | 12.20

Nlocal:        2776.45 ave        3960 max           0 min
Histogram: 8 4 4 0 4 12 8 2 28 34
Nghost:        3879.03 ave        5424 max         232 min
Histogram: 8 0 8 0 16 0 8 8 16 40
Neighs:        79213.4 ave      115434 max           0 min
Histogram: 8 4 4 0 10 6 8 8 24 32

Total # of neighbors = 8238189
Ave neighs/atom = 28.530426
Neighbor list builds = 0
Dangerous builds = 0
The dot product: -1.88694476586602e-08
Setting atom values ...
  1 settings made for x
  1 settings made for y
  1 settings made for z
Setting up cg style minimization ...
  Unit style    : metal
  Current step  : 18866
Per MPI rank memory allocation (min/avg/max) = 5.441 | 5.816 | 6.074 Mbytes
Step PotEng KinEng TotEng v_fx v_fy v_fz 
   18866   -1152449.4            0   -1152449.4  0.043135598  0.019802032 -0.0052593394 
   19000   -1152449.4            0   -1152449.4 3.5061575e-05 3.8622393e-06 -2.2427514e-05 
   19194   -1152449.4            0   -1152449.4 -1.4147976e-08 -3.2903594e-08 -3.7462137e-08 
Loop time of 3.83275 on 104 procs for 328 steps with 288751 atoms

99.9% CPU use with 104 MPI tasks x 1 OpenMP threads

Minimization stats:
  Stopping criterion = energy tolerance
  Energy initial, next-to-last, final = 
     -1152449.35019772  -1152449.35128278  -1152449.35128278
  Force two-norm initial, final = 0.14248715 2.9778730e-07
  Force max component initial, final = 0.067404693 6.2903249e-08
  Final line search alpha, max atom move = 1.0000000 6.2903249e-08
  Iterations, force evaluations = 328 656

MPI task timing breakdown:
Section |  min time  |  avg time  |  max time  |%varavg| %total
---------------------------------------------------------------
Pair    | 0.97838    | 2.7485     | 3.6076     |  44.9 | 71.71
Neigh   | 0          | 0          | 0          |   0.0 |  0.00
Comm    | 0.06951    | 0.62998    | 1.8686     |  64.7 | 16.44
Output  | 0.00023123 | 0.00023509 | 0.00040273 |   0.0 |  0.01
Modify  | 3.6656e-05 | 0.0054065  | 0.011489   |   3.5 |  0.14
Other   |            | 0.4487     |            |       | 11.71

Nlocal:        2776.45 ave        3960 max           0 min
Histogram: 8 4 4 0 4 12 8 2 28 34
Nghost:        3879.01 ave        5424 max         232 min
Histogram: 8 0 8 0 16 0 8 8 16 40
Neighs:        79213.4 ave      115434 max           0 min
Histogram: 8 4 4 0 10 6 8 8 24 32

Total # of neighbors = 8238192
Ave neighs/atom = 28.530436
Neighbor list builds = 0
Dangerous builds = 0
The dot product: -8.7504304741485e-11
Setting up cg style minimization ...
  Unit style    : metal
  Current step  : 19194
Per MPI rank memory allocation (min/avg/max) = 5.441 | 5.816 | 6.074 Mbytes
Step PotEng KinEng TotEng v_fx v_fy v_fz 
   19194   -1152449.4            0   -1152449.4 -0.018524662  0.034226772 -0.023065956 
   19338   -1152449.4            0   -1152449.4 2.4594304e-05 1.6487745e-05 -2.1264123e-05 
Loop time of 1.67792 on 104 procs for 144 steps with 288751 atoms

99.9% CPU use with 104 MPI tasks x 1 OpenMP threads

Minimization stats:
  Stopping criterion = energy tolerance
  Energy initial, next-to-last, final = 
     -1152449.35128278  -1152449.35157307  -1152449.35157307
  Force two-norm initial, final = 0.045240174 0.00020591662
  Force max component initial, final = 0.034226772 3.3500683e-05
  Final line search alpha, max atom move = 1.0000000 3.3500683e-05
  Iterations, force evaluations = 144 288

MPI task timing breakdown:
Section |  min time  |  avg time  |  max time  |%varavg| %total
---------------------------------------------------------------
Pair    | 0.43082    | 1.2108     | 1.583      |  29.8 | 72.16
Neigh   | 0          | 0          | 0          |   0.0 |  0.00
Comm    | 0.029797   | 0.2769     | 0.82351    |  43.2 | 16.50
Output  | 0          | 0          | 0          |   0.0 |  0.00
Modify  | 1.524e-05  | 0.0015498  | 0.0039639  |   2.5 |  0.09
Other   |            | 0.1887     |            |       | 11.25

Nlocal:        2776.45 ave        3959 max           0 min
Histogram: 8 4 4 0 4 12 8 2 28 34
Nghost:        3879.03 ave        5424 max         232 min
Histogram: 8 0 8 0 16 0 8 8 16 40
Neighs:        79213.4 ave      115396 max           0 min
Histogram: 8 4 4 0 10 6 8 8 24 32

Total # of neighbors = 8238191
Ave neighs/atom = 28.530433
Neighbor list builds = 0
Dangerous builds = 0
