LAMMPS (29 Oct 2020)
OMP_NUM_THREADS environment is not set. Defaulting to 1 thread. (../comm.cpp:94)
  using 1 OpenMP thread(s) per MPI task
OMP_NUM_THREADS environment is not set. Defaulting to 1 thread. (../comm.cpp:94)
  using 1 OpenMP thread(s) per MPI task
Reading data file ...
  orthogonal box = (-122.39241 -121.13707 -37.090501) to (122.39241 121.13707 37.090501)
  13 by 4 by 2 MPI processor grid
  reading atoms ...
  288751 atoms
  read_data CPU = 0.463 seconds
199981 atoms in group inner
88770 atoms in group outer
1 atoms in group carbon
Neighbor list info ...
  update every 1 steps, delay 0 steps, check yes
  max neighbors/atom: 2000, page size: 100000
  master list distance cutoff = 5.6
  ghost atom cutoff = 5.6
  binsize = 2.8, bins = 88 87 27
  1 neighbor lists, perpetual/occasional/extra = 1 0 0
  (1) pair eam/alloy, perpetual
      attributes: half, newton on
      pair build: half/bin/atomonly/newton
      stencil: half/bin/3d/newton
      bin: standard
Setting up cg style minimization ...
  Unit style    : metal
  Current step  : 0
Per MPI rank memory allocation (min/avg/max) = 5.441 | 5.816 | 6.074 Mbytes
Step v_fx v_fy v_fz PotEng KinEng TotEng 
       0   0.37581877  -0.48819857  -0.54137569   -1152447.8            0   -1152447.8 
     170 -1.1722092e-05 7.0630363e-07 -1.0479764e-05   -1152449.5            0   -1152449.5 
Loop time of 2.03781 on 104 procs for 170 steps with 288751 atoms

99.8% CPU use with 104 MPI tasks x 1 OpenMP threads

Minimization stats:
  Stopping criterion = energy tolerance
  Energy initial, next-to-last, final = 
     -1152447.84504142  -1152449.45035286  -1152449.45035286
  Force two-norm initial, final = 9.8082103 6.2391070e-05
  Force max component initial, final = 5.2820146 1.1793134e-05
  Final line search alpha, max atom move = 1.0000000 1.1793134e-05
  Iterations, force evaluations = 170 339

MPI task timing breakdown:
Section |  min time  |  avg time  |  max time  |%varavg| %total
---------------------------------------------------------------
Pair    | 0.53703    | 1.4448     | 1.8822     |  32.0 | 70.90
Neigh   | 2.1474e-05 | 0.0064685  | 0.0098197  |   3.4 |  0.32
Comm    | 0.044566   | 0.34131    | 1.003      |  46.8 | 16.75
Output  | 0          | 0          | 0          |   0.0 |  0.00
Modify  | 2.299e-05  | 0.001873   | 0.0048177  |   2.7 |  0.09
Other   |            | 0.2434     |            |       | 11.94

Nlocal:        2776.45 ave        3955 max           0 min
Histogram: 8 4 4 0 4 12 8 0 30 34
Nghost:        3879.07 ave        5424 max         232 min
Histogram: 8 0 8 0 16 0 8 8 16 40
Neighs:        79213.7 ave      115289 max           0 min
Histogram: 8 4 4 0 10 6 8 8 24 32

Total # of neighbors = 8238222
Ave neighs/atom = 28.530540
Neighbor list builds = 2
Dangerous builds = 0
Setting atom values ...
  1 settings made for x
  1 settings made for y
  1 settings made for z
Setting up cg style minimization ...
  Unit style    : metal
  Current step  : 170
Per MPI rank memory allocation (min/avg/max) = 5.441 | 5.816 | 6.074 Mbytes
Step PotEng KinEng TotEng v_fx v_fy v_fz 
     170   -1152449.4            0   -1152449.4  0.025604361  0.022130282  0.031082546 
     346   -1152449.4            0   -1152449.4 3.5834794e-06 -5.4051761e-06 3.1481404e-06 
Loop time of 2.09246 on 104 procs for 176 steps with 288751 atoms

99.9% CPU use with 104 MPI tasks x 1 OpenMP threads

Minimization stats:
  Stopping criterion = energy tolerance
  Energy initial, next-to-last, final = 
     -1152449.44521981  -1152449.44878007  -1152449.44878007
  Force two-norm initial, final = 0.28105011 0.00024971926
  Force max component initial, final = 0.14428441 5.0242598e-05
  Final line search alpha, max atom move = 1.0000000 5.0242598e-05
  Iterations, force evaluations = 176 352

MPI task timing breakdown:
Section |  min time  |  avg time  |  max time  |%varavg| %total
---------------------------------------------------------------
Pair    | 0.53893    | 1.4922     | 1.9318     |  32.9 | 71.31
Neigh   | 0          | 0          | 0          |   0.0 |  0.00
Comm    | 0.035902   | 0.34486    | 1.0259     |  48.1 | 16.48
Output  | 0          | 0          | 0          |   0.0 |  0.00
Modify  | 2.2552e-05 | 0.0029179  | 0.0061695  |   2.6 |  0.14
Other   |            | 0.2524     |            |       | 12.06

Nlocal:        2776.45 ave        3958 max           0 min
Histogram: 8 4 4 0 4 12 8 2 28 34
Nghost:        3879.03 ave        5424 max         232 min
Histogram: 8 0 8 0 16 0 8 8 16 40
Neighs:        79213.4 ave      115370 max           0 min
Histogram: 8 4 4 0 10 6 8 8 24 32

Total # of neighbors = 8238197
Ave neighs/atom = 28.530454
Neighbor list builds = 0
Dangerous builds = 0
Setting atom values ...
  1 settings made for x
  1 settings made for y
  1 settings made for z
Setting up cg style minimization ...
  Unit style    : metal
  Current step  : 346
Per MPI rank memory allocation (min/avg/max) = 5.441 | 5.816 | 6.074 Mbytes
Step PotEng KinEng TotEng v_fx v_fy v_fz 
     346   -1152449.4            0   -1152449.4  0.031958704   0.03312819  0.052725494 
     527   -1152449.4            0   -1152449.4 -3.1044077e-05 -5.4279302e-06 -4.3649553e-05 
Loop time of 2.11608 on 104 procs for 181 steps with 288751 atoms

99.9% CPU use with 104 MPI tasks x 1 OpenMP threads

Minimization stats:
  Stopping criterion = energy tolerance
  Energy initial, next-to-last, final = 
      -1152449.4384843   -1152449.4431226   -1152449.4431226
  Force two-norm initial, final = 0.3234252 0.00021278382
  Force max component initial, final = 0.16006438 4.3649553e-05
  Final line search alpha, max atom move = 1.0000000 4.3649553e-05
  Iterations, force evaluations = 181 362

MPI task timing breakdown:
Section |  min time  |  avg time  |  max time  |%varavg| %total
---------------------------------------------------------------
Pair    | 0.55406    | 1.523      | 1.9793     |  33.3 | 71.97
Neigh   | 0          | 0          | 0          |   0.0 |  0.00
Comm    | 0.035905   | 0.34474    | 1.0347     |  49.0 | 16.29
Output  | 0          | 0          | 0          |   0.0 |  0.00
Modify  | 2.2457e-05 | 0.0029997  | 0.0063552  |   2.6 |  0.14
Other   |            | 0.2453     |            |       | 11.59

Nlocal:        2776.45 ave        3957 max           0 min
Histogram: 8 4 4 0 4 12 8 2 28 34
Nghost:        3879.03 ave        5424 max         232 min
Histogram: 8 0 8 0 16 0 8 8 16 40
Neighs:        79213.4 ave      115347 max           0 min
Histogram: 8 4 4 0 10 6 8 8 24 32

Total # of neighbors = 8238197
Ave neighs/atom = 28.530454
Neighbor list builds = 0
Dangerous builds = 0
The dot product: -5.33458586330978e-06
The cos of the angle between the force vector and the displacement vector: -0.0990867333763965
The angle: 95.686582961897
Setting atom values ...
  1 settings made for x
  1 settings made for y
  1 settings made for z
Setting up cg style minimization ...
  Unit style    : metal
  Current step  : 527
Per MPI rank memory allocation (min/avg/max) = 5.441 | 5.816 | 6.074 Mbytes
Step PotEng KinEng TotEng v_fx v_fy v_fz 
     527   -1152449.4            0   -1152449.4  0.037207576  0.039787053  0.078684177 
     677   -1152449.4            0   -1152449.4 2.2936433e-05 3.4299097e-06 3.9876353e-05 
Loop time of 1.77501 on 104 procs for 150 steps with 288751 atoms

99.9% CPU use with 104 MPI tasks x 1 OpenMP threads

Minimization stats:
  Stopping criterion = energy tolerance
  Energy initial, next-to-last, final = 
     -1152449.42919619   -1152449.4338456   -1152449.4338456
  Force two-norm initial, final = 0.32541824 0.0003658666
  Force max component initial, final = 0.158991 6.1183252e-05
  Final line search alpha, max atom move = 1.0000000 6.1183252e-05
  Iterations, force evaluations = 150 300

MPI task timing breakdown:
Section |  min time  |  avg time  |  max time  |%varavg| %total
---------------------------------------------------------------
Pair    | 0.46358    | 1.2728     | 1.6575     |  30.3 | 71.70
Neigh   | 0          | 0          | 0          |   0.0 |  0.00
Comm    | 0.035805   | 0.29364    | 0.87711    |  44.6 | 16.54
Output  | 0          | 0          | 0          |   0.0 |  0.00
Modify  | 1.9346e-05 | 0.0024874  | 0.0052694  |   2.4 |  0.14
Other   |            | 0.2061     |            |       | 11.61

Nlocal:        2776.45 ave        3957 max           0 min
Histogram: 8 4 4 0 4 12 8 2 28 34
Nghost:        3879.03 ave        5424 max         232 min
Histogram: 8 0 8 0 16 0 8 8 16 40
Neighs:        79213.5 ave      115346 max           0 min
Histogram: 8 4 4 0 10 6 8 8 24 32

Total # of neighbors = 8238199
Ave neighs/atom = 28.530461
Neighbor list builds = 0
Dangerous builds = 0
The dot product: 5.76894231475779e-06
The cos of the angle between the force vector and the displacement vector: 0.125058631770233
The angle: 82.8158582963919
Setting atom values ...
  1 settings made for x
  1 settings made for y
  1 settings made for z
Setting up cg style minimization ...
  Unit style    : metal
  Current step  : 677
Per MPI rank memory allocation (min/avg/max) = 5.441 | 5.816 | 6.074 Mbytes
Step PotEng KinEng TotEng v_fx v_fy v_fz 
     677   -1152449.4            0   -1152449.4  0.034487221  0.039421042   0.10293778 
     804   -1152449.4            0   -1152449.4 4.7759858e-06 2.615079e-06 1.2542613e-05 
Loop time of 1.51616 on 104 procs for 127 steps with 288751 atoms

99.8% CPU use with 104 MPI tasks x 1 OpenMP threads

Minimization stats:
  Stopping criterion = energy tolerance
  Energy initial, next-to-last, final = 
     -1152449.41710636  -1152449.42181201  -1152449.42181201
  Force two-norm initial, final = 0.32555689 0.00013509695
  Force max component initial, final = 0.15795574 2.3837148e-05
  Final line search alpha, max atom move = 1.0000000 2.3837148e-05
  Iterations, force evaluations = 127 254

MPI task timing breakdown:
Section |  min time  |  avg time  |  max time  |%varavg| %total
---------------------------------------------------------------
Pair    | 0.39517    | 1.0723     | 1.387      |  27.5 | 70.72
Neigh   | 0          | 0          | 0          |   0.0 |  0.00
Comm    | 0.033949   | 0.24433    | 0.73444    |  41.3 | 16.12
Output  | 0          | 0          | 0          |   0.0 |  0.00
Modify  | 1.5524e-05 | 0.0021111  | 0.0044817  |   2.2 |  0.14
Other   |            | 0.1975     |            |       | 13.02

Nlocal:        2776.45 ave        3957 max           0 min
Histogram: 8 4 4 0 4 12 8 4 26 34
Nghost:        3879.07 ave        5424 max         232 min
Histogram: 8 0 8 0 16 0 8 8 16 40
Neighs:        79213.5 ave      115346 max           0 min
Histogram: 8 4 4 0 10 6 8 8 24 32

Total # of neighbors = 8238202
Ave neighs/atom = 28.530471
Neighbor list builds = 0
Dangerous builds = 0
The dot product: 1.68595630024662e-06
The cos of the angle between the force vector and the displacement vector: 0.12330060681506
The angle: 82.9173714570912
Setting atom values ...
  1 settings made for x
  1 settings made for y
  1 settings made for z
Setting up cg style minimization ...
  Unit style    : metal
  Current step  : 804
Per MPI rank memory allocation (min/avg/max) = 5.441 | 5.816 | 6.074 Mbytes
Step PotEng KinEng TotEng v_fx v_fy v_fz 
     804   -1152449.4            0   -1152449.4  0.024289766  0.028358227   0.10888388 
     982   -1152449.4            0   -1152449.4 2.8321707e-06 -2.7537504e-06 7.2923456e-06 
Loop time of 2.10458 on 104 procs for 178 steps with 288751 atoms

99.9% CPU use with 104 MPI tasks x 1 OpenMP threads

Minimization stats:
  Stopping criterion = energy tolerance
  Energy initial, next-to-last, final = 
     -1152449.40240838   -1152449.4069765   -1152449.4069765
  Force two-norm initial, final = 0.31825889 0.00019197792
  Force max component initial, final = 0.15404354 3.8179005e-05
  Final line search alpha, max atom move = 1.0000000 3.8179005e-05
  Iterations, force evaluations = 178 356

MPI task timing breakdown:
Section |  min time  |  avg time  |  max time  |%varavg| %total
---------------------------------------------------------------
Pair    | 0.54605    | 1.5042     | 1.9634     |  33.1 | 71.47
Neigh   | 0          | 0          | 0          |   0.0 |  0.00
Comm    | 0.034823   | 0.34315    | 1.0186     |  48.2 | 16.30
Output  | 0          | 0          | 0          |   0.0 |  0.00
Modify  | 2.3217e-05 | 0.0029574  | 0.0063275  |   2.6 |  0.14
Other   |            | 0.2543     |            |       | 12.08

Nlocal:        2776.45 ave        3958 max           0 min
Histogram: 8 4 4 0 4 12 8 4 26 34
Nghost:        3879.07 ave        5424 max         232 min
Histogram: 8 0 8 0 16 0 8 8 16 40
Neighs:        79213.5 ave      115380 max           0 min
Histogram: 8 4 4 0 10 6 8 8 24 32

Total # of neighbors = 8238203
Ave neighs/atom = 28.530474
Neighbor list builds = 0
Dangerous builds = 0
The dot product: 8.36606956961624e-07
The cos of the angle between the force vector and the displacement vector: 0.100874654841675
The angle: 84.210460794946
Setting atom values ...
  1 settings made for x
  1 settings made for y
  1 settings made for z
Setting up cg style minimization ...
  Unit style    : metal
  Current step  : 982
Per MPI rank memory allocation (min/avg/max) = 5.441 | 5.816 | 6.074 Mbytes
Step PotEng KinEng TotEng v_fx v_fy v_fz 
     982   -1152449.4            0   -1152449.4  0.014887121   0.01351587   0.10155218 
    1000   -1152449.4            0   -1152449.4 0.0001379554 0.00017870281 0.0010126708 
    1197   -1152449.4            0   -1152449.4 -4.0904669e-06 -3.4578322e-06 -2.7560264e-05 
Loop time of 2.50318 on 104 procs for 215 steps with 288751 atoms

99.9% CPU use with 104 MPI tasks x 1 OpenMP threads

Minimization stats:
  Stopping criterion = energy tolerance
  Energy initial, next-to-last, final = 
     -1152449.38472262  -1152449.38911156  -1152449.38911156
  Force two-norm initial, final = 0.30812201 7.0189968e-05
  Force max component initial, final = 0.14893574 2.7560264e-05
  Final line search alpha, max atom move = 1.0000000 2.7560264e-05
  Iterations, force evaluations = 215 430

MPI task timing breakdown:
Section |  min time  |  avg time  |  max time  |%varavg| %total
---------------------------------------------------------------
Pair    | 0.66019    | 1.8062     | 2.3464     |  36.1 | 72.16
Neigh   | 0          | 0          | 0          |   0.0 |  0.00
Comm    | 0.048621   | 0.40717    | 1.2333     |  53.6 | 16.27
Output  | 0.00010642 | 0.00010946 | 0.0001815  |   0.0 |  0.00
Modify  | 2.6994e-05 | 0.0035703  | 0.0075856  |   2.8 |  0.14
Other   |            | 0.2861     |            |       | 11.43

Nlocal:        2776.45 ave        3959 max           0 min
Histogram: 8 4 4 0 4 12 8 4 26 34
Nghost:        3879.07 ave        5424 max         232 min
Histogram: 8 0 8 0 16 0 8 8 16 40
Neighs:        79213.5 ave      115419 max           0 min
Histogram: 8 4 4 0 10 6 8 8 24 32

Total # of neighbors = 8238204
Ave neighs/atom = 28.530478
Neighbor list builds = 0
Dangerous builds = 0
The dot product: -2.18815934553306e-06
The cos of the angle between the force vector and the displacement vector: -0.0779372582987381
The angle: 94.4700090802017
Setting atom values ...
  1 settings made for x
  1 settings made for y
  1 settings made for z
Setting up cg style minimization ...
  Unit style    : metal
  Current step  : 1197
Per MPI rank memory allocation (min/avg/max) = 5.441 | 5.816 | 6.074 Mbytes
Step PotEng KinEng TotEng v_fx v_fy v_fz 
    1197   -1152449.4            0   -1152449.4 0.0087134932 -0.0013604879   0.09061631 
    1429   -1152449.4            0   -1152449.4 7.9885199e-07 7.9083855e-07 1.0350562e-05 
Loop time of 2.68865 on 104 procs for 232 steps with 288751 atoms

99.9% CPU use with 104 MPI tasks x 1 OpenMP threads

Minimization stats:
  Stopping criterion = energy tolerance
  Energy initial, next-to-last, final = 
     -1152449.36382266  -1152449.36812587  -1152449.36812587
  Force two-norm initial, final = 0.29923499 3.7519927e-05
  Force max component initial, final = 0.1439349 1.0350562e-05
  Final line search alpha, max atom move = 1.0000000 1.0350562e-05
  Iterations, force evaluations = 232 464

MPI task timing breakdown:
Section |  min time  |  avg time  |  max time  |%varavg| %total
---------------------------------------------------------------
Pair    | 0.70562    | 1.9537     | 2.5353     |  37.6 | 72.67
Neigh   | 0          | 0          | 0          |   0.0 |  0.00
Comm    | 0.046541   | 0.43932    | 1.3365     |  56.1 | 16.34
Output  | 0          | 0          | 0          |   0.0 |  0.00
Modify  | 2.8316e-05 | 0.0038383  | 0.0081693  |   2.9 |  0.14
Other   |            | 0.2917     |            |       | 10.85

Nlocal:        2776.45 ave        3959 max           0 min
Histogram: 8 4 4 0 4 12 8 4 26 34
Nghost:        3879.07 ave        5424 max         232 min
Histogram: 8 0 8 0 16 0 8 8 16 40
Neighs:        79213.5 ave      115423 max           0 min
Histogram: 8 4 4 0 10 6 8 8 24 32

Total # of neighbors = 8238206
Ave neighs/atom = 28.530485
Neighbor list builds = 0
Dangerous builds = 0
The dot product: 6.87309719649107e-07
The cos of the angle between the force vector and the displacement vector: 0.0660149663210599
The angle: 86.2148683908358
Setting atom values ...
  1 settings made for x
  1 settings made for y
  1 settings made for z
Setting up cg style minimization ...
  Unit style    : metal
  Current step  : 1429
Per MPI rank memory allocation (min/avg/max) = 5.441 | 5.816 | 6.074 Mbytes
Step PotEng KinEng TotEng v_fx v_fy v_fz 
    1429   -1152449.3            0   -1152449.3   0.00452603 -0.015616936  0.083119172 
    1629   -1152449.3            0   -1152449.3 6.8834415e-07 -6.8234634e-07 2.5222195e-05 
Loop time of 2.34333 on 104 procs for 200 steps with 288751 atoms

99.9% CPU use with 104 MPI tasks x 1 OpenMP threads

Minimization stats:
  Stopping criterion = energy tolerance
  Energy initial, next-to-last, final = 
     -1152449.33972117  -1152449.34432104  -1152449.34432104
  Force two-norm initial, final = 0.29298427 0.00014403403
  Force max component initial, final = 0.1386535 3.8932913e-05
  Final line search alpha, max atom move = 1.0000000 3.8932913e-05
  Iterations, force evaluations = 200 400

MPI task timing breakdown:
Section |  min time  |  avg time  |  max time  |%varavg| %total
---------------------------------------------------------------
Pair    | 0.61153    | 1.682      | 2.1854     |  35.0 | 71.78
Neigh   | 0          | 0          | 0          |   0.0 |  0.00
Comm    | 0.041409   | 0.38118    | 1.1437     |  51.4 | 16.27
Output  | 0          | 0          | 0          |   0.0 |  0.00
Modify  | 2.4792e-05 | 0.0033141  | 0.0070142  |   2.7 |  0.14
Other   |            | 0.2768     |            |       | 11.81

Nlocal:        2776.45 ave        3959 max           0 min
Histogram: 8 4 4 0 4 12 8 4 26 34
Nghost:        3879.05 ave        5424 max         232 min
Histogram: 8 0 8 0 16 0 8 8 16 40
Neighs:        79213.5 ave      115435 max           0 min
Histogram: 8 4 4 0 10 6 8 8 24 32

Total # of neighbors = 8238206
Ave neighs/atom = 28.530485
Neighbor list builds = 0
Dangerous builds = 0
The dot product: 2.1982476200308e-06
The cos of the angle between the force vector and the displacement vector: 0.0870910049569479
The angle: 85.0037233601509
Setting atom values ...
  1 settings made for x
  1 settings made for y
  1 settings made for z
Setting up cg style minimization ...
  Unit style    : metal
  Current step  : 1629
Per MPI rank memory allocation (min/avg/max) = 5.441 | 5.816 | 6.074 Mbytes
Step PotEng KinEng TotEng v_fx v_fy v_fz 
    1629   -1152449.3            0   -1152449.3 -0.0020417348 -0.034217069  0.097038128 
    1974   -1152449.3            0   -1152449.3 1.4260777e-08 8.4871213e-09 -2.3905094e-07 
Loop time of 4.03983 on 104 procs for 345 steps with 288751 atoms

99.9% CPU use with 104 MPI tasks x 1 OpenMP threads

Minimization stats:
  Stopping criterion = energy tolerance
  Energy initial, next-to-last, final = 
     -1152449.31322136  -1152449.31863912  -1152449.31863912
  Force two-norm initial, final = 0.29227165 9.5959286e-07
  Force max component initial, final = 0.12872472 2.8136218e-07
  Final line search alpha, max atom move = 1.0000000 2.8136218e-07
  Iterations, force evaluations = 345 690

MPI task timing breakdown:
Section |  min time  |  avg time  |  max time  |%varavg| %total
---------------------------------------------------------------
Pair    | 1.0526     | 2.9185     | 3.7899     |  46.0 | 72.24
Neigh   | 0          | 0          | 0          |   0.0 |  0.00
Comm    | 0.072771   | 0.66383    | 2.011      |  68.3 | 16.43
Output  | 0          | 0          | 0          |   0.0 |  0.00
Modify  | 4.4059e-05 | 0.0057029  | 0.012082   |   3.6 |  0.14
Other   |            | 0.4518     |            |       | 11.18

Nlocal:        2776.45 ave        3961 max           0 min
Histogram: 8 4 4 0 6 10 8 4 26 34
Nghost:        3879.03 ave        5424 max         232 min
Histogram: 8 0 8 0 16 0 8 8 16 40
Neighs:        79213.5 ave      115463 max           0 min
Histogram: 8 4 4 0 10 6 8 8 24 32

Total # of neighbors = 8238206
Ave neighs/atom = 28.530485
Neighbor list builds = 0
Dangerous builds = 0
The dot product: -2.32765031482494e-08
The cos of the angle between the force vector and the displacement vector: -0.0971366895453838
The angle: 95.5743120005015
Setting atom values ...
  1 settings made for x
  1 settings made for y
  1 settings made for z
Setting up cg style minimization ...
  Unit style    : metal
  Current step  : 1974
Per MPI rank memory allocation (min/avg/max) = 5.441 | 5.816 | 6.074 Mbytes
Step PotEng KinEng TotEng v_fx v_fy v_fz 
    1974   -1152449.3            0   -1152449.3 -0.013218927 -0.047623269   0.10331937 
    2000   -1152449.3            0   -1152449.3 9.4610421e-05 -0.00022826781 -0.00048545766 
    2164   -1152449.3            0   -1152449.3 -9.3236657e-07 -1.9295306e-06 6.6493666e-06 
Loop time of 2.20669 on 104 procs for 190 steps with 288751 atoms

99.9% CPU use with 104 MPI tasks x 1 OpenMP threads

Minimization stats:
  Stopping criterion = energy tolerance
  Energy initial, next-to-last, final = 
     -1152449.28522716  -1152449.29050638  -1152449.29050638
  Force two-norm initial, final = 0.29047049 0.00023816097
  Force max component initial, final = 0.14001195 2.2218702e-05
  Final line search alpha, max atom move = 1.0000000 2.2218702e-05
  Iterations, force evaluations = 190 380

MPI task timing breakdown:
Section |  min time  |  avg time  |  max time  |%varavg| %total
---------------------------------------------------------------
Pair    | 0.57997    | 1.6002     | 2.077      |  34.1 | 72.52
Neigh   | 0          | 0          | 0          |   0.0 |  0.00
Comm    | 0.041427   | 0.35931    | 1.0892     |  50.9 | 16.28
Output  | 0.00010076 | 0.00011188 | 0.000189   |   0.0 |  0.01
Modify  | 2.3469e-05 | 0.0031647  | 0.0067099  |   2.7 |  0.14
Other   |            | 0.2439     |            |       | 11.05

Nlocal:        2776.45 ave        3961 max           0 min
Histogram: 8 4 4 0 6 10 8 4 26 34
Nghost:        3878.99 ave        5424 max         232 min
Histogram: 8 0 8 0 16 0 8 8 16 40
Neighs:        79213.5 ave      115464 max           0 min
Histogram: 8 4 4 0 10 6 8 8 24 32

Total # of neighbors = 8238207
Ave neighs/atom = 28.530488
Neighbor list builds = 0
Dangerous builds = 0
The dot product: 6.35169345743877e-07
The cos of the angle between the force vector and the displacement vector: 0.0909181986344652
The angle: 84.7835674253042
Setting atom values ...
  1 settings made for x
  1 settings made for y
  1 settings made for z
Setting up cg style minimization ...
  Unit style    : metal
  Current step  : 2164
Per MPI rank memory allocation (min/avg/max) = 5.441 | 5.816 | 6.074 Mbytes
Step PotEng KinEng TotEng v_fx v_fy v_fz 
    2164   -1152449.3            0   -1152449.3 -0.020461362 -0.050023462  0.088482722 
    2395   -1152449.3            0   -1152449.3 1.2221968e-06  2.64709e-07 -4.9885996e-06 
Loop time of 2.72093 on 104 procs for 231 steps with 288751 atoms

99.9% CPU use with 104 MPI tasks x 1 OpenMP threads

Minimization stats:
  Stopping criterion = energy tolerance
  Energy initial, next-to-last, final = 
     -1152449.25444868  -1152449.25958861  -1152449.25958861
  Force two-norm initial, final = 0.28244985 4.9842575e-05
  Force max component initial, final = 0.15386819 4.9885996e-06
  Final line search alpha, max atom move = 1.0000000 4.9885996e-06
  Iterations, force evaluations = 231 462

MPI task timing breakdown:
Section |  min time  |  avg time  |  max time  |%varavg| %total
---------------------------------------------------------------
Pair    | 0.70516    | 1.9524     | 2.5362     |  37.7 | 71.75
Neigh   | 0          | 0          | 0          |   0.0 |  0.00
Comm    | 0.045183   | 0.45068    | 1.3511     |  54.8 | 16.56
Output  | 0          | 0          | 0          |   0.0 |  0.00
Modify  | 2.7479e-05 | 0.003817   | 0.0081226  |   2.9 |  0.14
Other   |            | 0.3141     |            |       | 11.54

Nlocal:        2776.45 ave        3961 max           0 min
Histogram: 8 4 4 0 6 10 8 4 26 34
Nghost:        3879.03 ave        5428 max         232 min
Histogram: 8 0 8 0 16 0 8 8 16 40
Neighs:        79213.6 ave      115464 max           0 min
Histogram: 8 4 4 0 10 6 8 8 24 32

Total # of neighbors = 8238211
Ave neighs/atom = 28.530502
Neighbor list builds = 0
Dangerous builds = 0
The dot product: -3.8378724607849e-07
The cos of the angle between the force vector and the displacement vector: -0.0746239121172465
The angle: 94.279613500897
Setting atom values ...
  1 settings made for x
  1 settings made for y
  1 settings made for z
Setting up cg style minimization ...
  Unit style    : metal
  Current step  : 2395
Per MPI rank memory allocation (min/avg/max) = 5.441 | 5.816 | 6.074 Mbytes
Step PotEng KinEng TotEng v_fx v_fy v_fz 
    2395   -1152449.2            0   -1152449.2 -0.025824785  -0.04482084  0.077957017 
    2618   -1152449.2            0   -1152449.2 1.059188e-06 -2.2703204e-07 -3.26262e-06 
Loop time of 2.58998 on 104 procs for 223 steps with 288751 atoms

99.9% CPU use with 104 MPI tasks x 1 OpenMP threads

Minimization stats:
  Stopping criterion = energy tolerance
  Energy initial, next-to-last, final = 
     -1152449.22106026  -1152449.22607853  -1152449.22607853
  Force two-norm initial, final = 0.27592116 6.8864979e-05
  Force max component initial, final = 0.16541033 7.8739975e-06
  Final line search alpha, max atom move = 1.0000000 7.8739975e-06
  Iterations, force evaluations = 223 446

MPI task timing breakdown:
Section |  min time  |  avg time  |  max time  |%varavg| %total
---------------------------------------------------------------
Pair    | 0.67757    | 1.8706     | 2.4389     |  36.9 | 72.22
Neigh   | 0          | 0          | 0          |   0.0 |  0.00
Comm    | 0.049729   | 0.42127    | 1.2757     |  54.6 | 16.27
Output  | 0          | 0          | 0          |   0.0 |  0.00
Modify  | 2.7035e-05 | 0.0037072  | 0.0079697  |   2.9 |  0.14
Other   |            | 0.2944     |            |       | 11.37

Nlocal:        2776.45 ave        3961 max           0 min
Histogram: 8 4 4 0 6 10 8 4 26 34
Nghost:        3878.98 ave        5426 max         232 min
Histogram: 8 0 8 0 16 0 8 8 16 40
Neighs:        79213.6 ave      115464 max           0 min
Histogram: 8 4 4 0 10 6 8 8 24 32

Total # of neighbors = 8238218
Ave neighs/atom = 28.530526
Neighbor list builds = 0
Dangerous builds = 0
The dot product: -2.21156159103694e-07
The cos of the angle between the force vector and the displacement vector: -0.0643316938529118
The angle: 93.688481707686
Setting atom values ...
  1 settings made for x
  1 settings made for y
  1 settings made for z
Setting up cg style minimization ...
  Unit style    : metal
  Current step  : 2618
Per MPI rank memory allocation (min/avg/max) = 5.441 | 5.816 | 6.074 Mbytes
Step PotEng KinEng TotEng v_fx v_fy v_fz 
    2618   -1152449.2            0   -1152449.2 -0.029319574 -0.033288916  0.070180451 
    2948   -1152449.2            0   -1152449.2 -7.260457e-08 -8.1784328e-09 1.8063592e-07 
Loop time of 3.87655 on 104 procs for 330 steps with 288751 atoms

99.9% CPU use with 104 MPI tasks x 1 OpenMP threads

Minimization stats:
  Stopping criterion = energy tolerance
  Energy initial, next-to-last, final = 
     -1152449.18522708  -1152449.19059459  -1152449.19059459
  Force two-norm initial, final = 0.27061277 1.6580638e-06
  Force max component initial, final = 0.17529473 1.8063592e-07
  Final line search alpha, max atom move = 1.0000000 1.8063592e-07
  Iterations, force evaluations = 330 660

MPI task timing breakdown:
Section |  min time  |  avg time  |  max time  |%varavg| %total
---------------------------------------------------------------
Pair    | 1.0072     | 2.7835     | 3.6348     |  45.0 | 71.80
Neigh   | 0          | 0          | 0          |   0.0 |  0.00
Comm    | 0.066689   | 0.6341     | 1.9086     |  66.0 | 16.36
Output  | 0          | 0          | 0          |   0.0 |  0.00
Modify  | 4.1063e-05 | 0.0054743  | 0.011606   |   3.5 |  0.14
Other   |            | 0.4535     |            |       | 11.70

Nlocal:        2776.45 ave        3961 max           0 min
Histogram: 8 4 4 0 6 10 8 4 26 34
Nghost:        3879.03 ave        5425 max         232 min
Histogram: 8 0 8 0 16 0 8 8 16 40
Neighs:        79213.6 ave      115469 max           0 min
Histogram: 8 4 4 0 10 6 8 8 24 32

Total # of neighbors = 8238215
Ave neighs/atom = 28.530516
Neighbor list builds = 0
Dangerous builds = 0
The dot product: 1.35511072386341e-08
The cos of the angle between the force vector and the displacement vector: 0.0695453253608349
The angle: 86.0121273634224
Setting atom values ...
  1 settings made for x
  1 settings made for y
  1 settings made for z
Setting up cg style minimization ...
  Unit style    : metal
  Current step  : 2948
Per MPI rank memory allocation (min/avg/max) = 5.441 | 5.816 | 6.074 Mbytes
Step PotEng KinEng TotEng v_fx v_fy v_fz 
    2948   -1152449.1            0   -1152449.1 -0.035211213 -0.018340419   0.07095315 
    3000   -1152449.2            0   -1152449.2 -0.00029313253 -8.0872069e-05 0.00059829852 
    3168   -1152449.2            0   -1152449.2 -5.404008e-06 -3.501746e-07 1.1150826e-05 
Loop time of 2.56002 on 104 procs for 220 steps with 288751 atoms

99.9% CPU use with 104 MPI tasks x 1 OpenMP threads

Minimization stats:
  Stopping criterion = energy tolerance
  Energy initial, next-to-last, final = 
     -1152449.14834023  -1152449.15362416  -1152449.15362416
  Force two-norm initial, final = 0.26792413 8.1312940e-05
  Force max component initial, final = 0.18326279 1.1150826e-05
  Final line search alpha, max atom move = 1.0000000 1.1150826e-05
  Iterations, force evaluations = 220 440

MPI task timing breakdown:
Section |  min time  |  avg time  |  max time  |%varavg| %total
---------------------------------------------------------------
Pair    | 0.67488    | 1.8479     | 2.406      |  36.5 | 72.18
Neigh   | 0          | 0          | 0          |   0.0 |  0.00
Comm    | 0.044334   | 0.41796    | 1.2582     |  54.0 | 16.33
Output  | 9.633e-05  | 0.00010234 | 0.00020928 |   0.0 |  0.00
Modify  | 2.8043e-05 | 0.0036604  | 0.0078478  |   2.9 |  0.14
Other   |            | 0.2904     |            |       | 11.34

Nlocal:        2776.45 ave        3960 max           0 min
Histogram: 8 4 4 0 4 12 8 3 27 34
Nghost:        3879.03 ave        5425 max         232 min
Histogram: 8 0 8 0 16 0 8 8 16 40
Neighs:        79213.6 ave      115444 max           0 min
Histogram: 8 4 4 0 10 6 8 8 24 32

Total # of neighbors = 8238217
Ave neighs/atom = 28.530523
Neighbor list builds = 0
Dangerous builds = 0
The dot product: 7.60230283743702e-07
The cos of the angle between the force vector and the displacement vector: 0.061327476107483
The angle: 86.4839881094386
Setting atom values ...
  1 settings made for x
  1 settings made for y
  1 settings made for z
Setting up cg style minimization ...
  Unit style    : metal
  Current step  : 3168
Per MPI rank memory allocation (min/avg/max) = 5.441 | 5.816 | 6.074 Mbytes
Step PotEng KinEng TotEng v_fx v_fy v_fz 
    3168   -1152449.1            0   -1152449.1 -0.034281061 -0.0073537969  0.060351726 
    3371   -1152449.1            0   -1152449.1 1.0255996e-05 5.360319e-06 -1.7736791e-05 
Loop time of 2.37344 on 104 procs for 203 steps with 288751 atoms

99.9% CPU use with 104 MPI tasks x 1 OpenMP threads

Minimization stats:
  Stopping criterion = energy tolerance
  Energy initial, next-to-last, final = 
     -1152449.10963975  -1152449.11429105  -1152449.11429105
  Force two-norm initial, final = 0.26436624 0.00015352283
  Force max component initial, final = 0.1909265 3.6710385e-05
  Final line search alpha, max atom move = 1.0000000 3.6710385e-05
  Iterations, force evaluations = 203 406

MPI task timing breakdown:
Section |  min time  |  avg time  |  max time  |%varavg| %total
---------------------------------------------------------------
Pair    | 0.62414    | 1.7137     | 2.232      |  35.1 | 72.20
Neigh   | 0          | 0          | 0          |   0.0 |  0.00
Comm    | 0.040961   | 0.38752    | 1.168      |  52.2 | 16.33
Output  | 0          | 0          | 0          |   0.0 |  0.00
Modify  | 2.5167e-05 | 0.0033705  | 0.0071435  |   2.8 |  0.14
Other   |            | 0.2688     |            |       | 11.33

Nlocal:        2776.45 ave        3961 max           0 min
Histogram: 8 4 4 0 6 10 8 3 27 34
Nghost:        3878.98 ave        5425 max         232 min
Histogram: 8 0 8 0 16 0 8 8 16 40
Neighs:        79213.6 ave      115468 max           0 min
Histogram: 8 4 4 0 10 6 8 8 24 32

Total # of neighbors = 8238217
Ave neighs/atom = 28.530523
Neighbor list builds = 0
Dangerous builds = 0
The dot product: -9.82648595288966e-07
The cos of the angle between the force vector and the displacement vector: -0.0463992646394877
The angle: 92.6594368656937
Setting atom values ...
  1 settings made for x
  1 settings made for y
  1 settings made for z
Setting up cg style minimization ...
  Unit style    : metal
  Current step  : 3371
Per MPI rank memory allocation (min/avg/max) = 5.441 | 5.816 | 6.074 Mbytes
Step PotEng KinEng TotEng v_fx v_fy v_fz 
    3371   -1152449.1            0   -1152449.1 -0.027924402 -0.0019425035  0.044413292 
    3601   -1152449.1            0   -1152449.1 2.2847132e-08 3.6290983e-07 -2.9889489e-09 
Loop time of 2.66375 on 104 procs for 230 steps with 288751 atoms

99.9% CPU use with 104 MPI tasks x 1 OpenMP threads

Minimization stats:
  Stopping criterion = energy tolerance
  Energy initial, next-to-last, final = 
     -1152449.06800083  -1152449.07211137  -1152449.07211137
  Force two-norm initial, final = 0.26193313 3.3795193e-05
  Force max component initial, final = 0.19833251 2.5492879e-06
  Final line search alpha, max atom move = 1.0000000 2.5492879e-06
  Iterations, force evaluations = 230 460

MPI task timing breakdown:
Section |  min time  |  avg time  |  max time  |%varavg| %total
---------------------------------------------------------------
Pair    | 0.69939    | 1.9291     | 2.5088     |  37.4 | 72.42
Neigh   | 0          | 0          | 0          |   0.0 |  0.00
Comm    | 0.043875   | 0.43323    | 1.3103     |  55.6 | 16.26
Output  | 0          | 0          | 0          |   0.0 |  0.00
Modify  | 2.8736e-05 | 0.0038102  | 0.0080535  |   2.9 |  0.14
Other   |            | 0.2976     |            |       | 11.17

Nlocal:        2776.45 ave        3961 max           0 min
Histogram: 8 4 4 0 6 10 8 3 27 34
Nghost:        3878.97 ave        5424 max         232 min
Histogram: 8 0 8 0 16 0 8 8 16 40
Neighs:        79213.6 ave      115468 max           0 min
Histogram: 8 4 4 0 10 6 8 8 24 32

Total # of neighbors = 8238212
Ave neighs/atom = 28.530506
Neighbor list builds = 0
Dangerous builds = 0
The dot product: -1.38651503492276e-10
The cos of the angle between the force vector and the displacement vector: -0.000381287219601799
The angle: 90.021846148995
OMP_NUM_THREADS environment is not set. Defaulting to 1 thread. (../comm.cpp:94)
  using 1 OpenMP thread(s) per MPI task
Reading data file ...
  orthogonal box = (-122.39241 -121.13707 -37.090501) to (122.39241 121.13707 37.090501)
  13 by 4 by 2 MPI processor grid
  reading atoms ...
  288751 atoms
  read_data CPU = 0.344 seconds
199981 atoms in group inner
88770 atoms in group outer
Setting atom values ...
  1 settings made for x
  1 settings made for y
  1 settings made for z
Neighbor list info ...
  update every 1 steps, delay 0 steps, check yes
  max neighbors/atom: 2000, page size: 100000
  master list distance cutoff = 5.6
  ghost atom cutoff = 5.6
  binsize = 2.8, bins = 88 87 27
  1 neighbor lists, perpetual/occasional/extra = 1 0 0
  (1) pair eam/alloy, perpetual
      attributes: half, newton on
      pair build: half/bin/atomonly/newton
      stencil: half/bin/3d/newton
      bin: standard
Setting up cg style minimization ...
  Unit style    : metal
  Current step  : 0
Per MPI rank memory allocation (min/avg/max) = 5.441 | 5.816 | 6.074 Mbytes
Step Temp E_pair E_mol TotEng Press 
       0            0   -1152447.8            0   -1152447.8   -524.09894 
     144            0   -1152449.5            0   -1152449.5   -526.37366 
Loop time of 1.68783 on 104 procs for 144 steps with 288751 atoms

99.9% CPU use with 104 MPI tasks x 1 OpenMP threads

Minimization stats:
  Stopping criterion = energy tolerance
  Energy initial, next-to-last, final = 
     -1152447.84360092  -1152449.45035281  -1152449.45035281
  Force two-norm initial, final = 9.8373434 0.00029270531
  Force max component initial, final = 5.3183362 7.9196283e-05
  Final line search alpha, max atom move = 1.0000000 7.9196283e-05
  Iterations, force evaluations = 144 287

MPI task timing breakdown:
Section |  min time  |  avg time  |  max time  |%varavg| %total
---------------------------------------------------------------
Pair    | 0.44586    | 1.2157     | 1.5861     |  29.5 | 72.03
Neigh   | 2.0422e-05 | 0.0059125  | 0.0085384  |   3.2 |  0.35
Comm    | 0.028002   | 0.27253    | 0.81872    |  43.7 | 16.15
Output  | 0          | 0          | 0          |   0.0 |  0.00
Modify  | 1.6369e-05 | 0.0015505  | 0.0039877  |   2.5 |  0.09
Other   |            | 0.1921     |            |       | 11.38

Nlocal:        2776.45 ave        3955 max           0 min
Histogram: 8 4 4 0 4 12 8 0 30 34
Nghost:        3879.07 ave        5424 max         232 min
Histogram: 8 0 8 0 16 0 8 8 16 40
Neighs:        79213.7 ave      115288 max           0 min
Histogram: 8 4 4 0 10 6 8 8 24 32

Total # of neighbors = 8238221
Ave neighs/atom = 28.530537
Neighbor list builds = 2
Dangerous builds = 0
OMP_NUM_THREADS environment is not set. Defaulting to 1 thread. (../comm.cpp:94)
  using 1 OpenMP thread(s) per MPI task
Reading data file ...
  orthogonal box = (-122.39241 -121.13707 -37.090501) to (122.39241 121.13707 37.090501)
  13 by 4 by 2 MPI processor grid
  reading atoms ...
  288751 atoms
  read_data CPU = 0.341 seconds
199981 atoms in group inner
88770 atoms in group outer
Setting atom values ...
  1 settings made for x
  1 settings made for y
  1 settings made for z
Neighbor list info ...
  update every 1 steps, delay 0 steps, check yes
  max neighbors/atom: 2000, page size: 100000
  master list distance cutoff = 5.6
  ghost atom cutoff = 5.6
  binsize = 2.8, bins = 88 87 27
  1 neighbor lists, perpetual/occasional/extra = 1 0 0
  (1) pair eam/alloy, perpetual
      attributes: half, newton on
      pair build: half/bin/atomonly/newton
      stencil: half/bin/3d/newton
      bin: standard
Setting up cg style minimization ...
  Unit style    : metal
  Current step  : 0
Per MPI rank memory allocation (min/avg/max) = 5.441 | 5.816 | 6.074 Mbytes
Step Temp E_pair E_mol TotEng Press 
       0            0   -1152445.5            0   -1152445.5   -522.12206 
     149            0   -1152449.5            0   -1152449.5   -526.37367 
Loop time of 1.7213 on 104 procs for 149 steps with 288751 atoms

99.9% CPU use with 104 MPI tasks x 1 OpenMP threads

Minimization stats:
  Stopping criterion = energy tolerance
  Energy initial, next-to-last, final = 
     -1152445.53278448  -1152449.45035283  -1152449.45035283
  Force two-norm initial, final = 23.626945 0.00021267003
  Force max component initial, final = 14.048018 6.2361007e-05
  Final line search alpha, max atom move = 1.0000000 6.2361007e-05
  Iterations, force evaluations = 149 295

MPI task timing breakdown:
Section |  min time  |  avg time  |  max time  |%varavg| %total
---------------------------------------------------------------
Pair    | 0.46195    | 1.2414     | 1.6113     |  29.6 | 72.12
Neigh   | 3.0068e-05 | 0.008862   | 0.012789   |   3.9 |  0.51
Comm    | 0.029473   | 0.27876    | 0.83525    |  44.3 | 16.19
Output  | 0          | 0          | 0          |   0.0 |  0.00
Modify  | 1.592e-05  | 0.0015954  | 0.0040573  |   2.5 |  0.09
Other   |            | 0.1907     |            |       | 11.08

Nlocal:        2776.45 ave        3956 max           0 min
Histogram: 8 4 4 0 4 12 8 0 30 34
Nghost:        3879.07 ave        5424 max         232 min
Histogram: 8 0 8 0 16 0 8 8 16 40
Neighs:        79213.7 ave      115320 max           0 min
Histogram: 8 4 4 0 10 6 8 8 24 32

Total # of neighbors = 8238223
Ave neighs/atom = 28.530544
Neighbor list builds = 3
Dangerous builds = 0
OMP_NUM_THREADS environment is not set. Defaulting to 1 thread. (../comm.cpp:94)
  using 1 OpenMP thread(s) per MPI task
Reading data file ...
  orthogonal box = (-122.39241 -121.13707 -37.090501) to (122.39241 121.13707 37.090501)
  13 by 4 by 2 MPI processor grid
  reading atoms ...
  288751 atoms
  read_data CPU = 0.342 seconds
199981 atoms in group inner
88770 atoms in group outer
1 atoms in group carbon
Neighbor list info ...
  update every 1 steps, delay 0 steps, check yes
  max neighbors/atom: 2000, page size: 100000
  master list distance cutoff = 5.6
  ghost atom cutoff = 5.6
  binsize = 2.8, bins = 88 87 27
  1 neighbor lists, perpetual/occasional/extra = 1 0 0
  (1) pair eam/alloy, perpetual
      attributes: half, newton on
      pair build: half/bin/atomonly/newton
      stencil: half/bin/3d/newton
      bin: standard
Setting up cg style minimization ...
  Unit style    : metal
  Current step  : 0
Per MPI rank memory allocation (min/avg/max) = 5.441 | 5.816 | 6.074 Mbytes
Step v_fx v_fy v_fz PotEng KinEng TotEng 
       0   0.37581877  -0.48819857  -0.54137569   -1152447.8            0   -1152447.8 
     170 -1.1722092e-05 7.0630363e-07 -1.0479764e-05   -1152449.5            0   -1152449.5 
Loop time of 2.01593 on 104 procs for 170 steps with 288751 atoms

99.9% CPU use with 104 MPI tasks x 1 OpenMP threads

Minimization stats:
  Stopping criterion = energy tolerance
  Energy initial, next-to-last, final = 
     -1152447.84504142  -1152449.45035286  -1152449.45035286
  Force two-norm initial, final = 9.8082103 6.2391070e-05
  Force max component initial, final = 5.2820146 1.1793134e-05
  Final line search alpha, max atom move = 1.0000000 1.1793134e-05
  Iterations, force evaluations = 170 339

MPI task timing breakdown:
Section |  min time  |  avg time  |  max time  |%varavg| %total
---------------------------------------------------------------
Pair    | 0.54004    | 1.4352     | 1.8732     |  31.7 | 71.19
Neigh   | 2.0228e-05 | 0.00593    | 0.0085828  |   3.2 |  0.29
Comm    | 0.033695   | 0.32564    | 0.97053    |  47.0 | 16.15
Output  | 0          | 0          | 0          |   0.0 |  0.00
Modify  | 1.926e-05  | 0.0018342  | 0.0047118  |   2.7 |  0.09
Other   |            | 0.2473     |            |       | 12.27

Nlocal:        2776.45 ave        3955 max           0 min
Histogram: 8 4 4 0 4 12 8 0 30 34
Nghost:        3879.07 ave        5424 max         232 min
Histogram: 8 0 8 0 16 0 8 8 16 40
Neighs:        79213.7 ave      115289 max           0 min
Histogram: 8 4 4 0 10 6 8 8 24 32

Total # of neighbors = 8238222
Ave neighs/atom = 28.530540
Neighbor list builds = 2
Dangerous builds = 0
Setting atom values ...
  1 settings made for x
  1 settings made for y
  1 settings made for z
Setting up cg style minimization ...
  Unit style    : metal
  Current step  : 170
Per MPI rank memory allocation (min/avg/max) = 5.441 | 5.816 | 6.074 Mbytes
Step PotEng KinEng TotEng v_fx v_fy v_fz 
     170   -1152449.4            0   -1152449.4 -0.027606805 -0.025045096 -0.030852869 
     407   -1152449.4            0   -1152449.4 -3.8550201e-06 1.2186076e-06 9.9055939e-06 
Loop time of 2.80574 on 104 procs for 237 steps with 288751 atoms

99.9% CPU use with 104 MPI tasks x 1 OpenMP threads

Minimization stats:
  Stopping criterion = energy tolerance
  Energy initial, next-to-last, final = 
     -1152449.44410776  -1152449.44789603  -1152449.44789603
  Force two-norm initial, final = 0.27591847 3.5135772e-05
  Force max component initial, final = 0.14509064 9.9055939e-06
  Final line search alpha, max atom move = 1.0000000 9.9055939e-06
  Iterations, force evaluations = 237 474

MPI task timing breakdown:
Section |  min time  |  avg time  |  max time  |%varavg| %total
---------------------------------------------------------------
Pair    | 0.72959    | 1.9921     | 2.635      |  38.0 | 71.00
Neigh   | 0          | 0          | 0          |   0.0 |  0.00
Comm    | 0.042801   | 0.45538    | 1.3477     |  55.2 | 16.23
Output  | 0          | 0          | 0          |   0.0 |  0.00
Modify  | 2.7542e-05 | 0.0039196  | 0.0083459  |   3.0 |  0.14
Other   |            | 0.3543     |            |       | 12.63

Nlocal:        2776.45 ave        3958 max           0 min
Histogram: 8 4 4 0 4 12 8 2 28 34
Nghost:        3879.03 ave        5424 max         232 min
Histogram: 8 0 8 0 16 0 8 8 16 40
Neighs:        79213.5 ave      115370 max           0 min
Histogram: 8 4 4 0 10 6 8 8 24 32

Total # of neighbors = 8238199
Ave neighs/atom = 28.530461
Neighbor list builds = 0
Dangerous builds = 0
Setting atom values ...
  1 settings made for x
  1 settings made for y
  1 settings made for z
Setting up cg style minimization ...
  Unit style    : metal
  Current step  : 407
Per MPI rank memory allocation (min/avg/max) = 5.441 | 5.816 | 6.074 Mbytes
Step PotEng KinEng TotEng v_fx v_fy v_fz 
     407   -1152449.4            0   -1152449.4  -0.02082971 -0.021666514 -0.037639473 
     545   -1152449.4            0   -1152449.4 2.9956236e-05 -2.7046447e-06 -5.8217215e-05 
Loop time of 1.6233 on 104 procs for 138 steps with 288751 atoms

99.9% CPU use with 104 MPI tasks x 1 OpenMP threads

Minimization stats:
  Stopping criterion = energy tolerance
  Energy initial, next-to-last, final = 
     -1152449.43918686  -1152449.44205859  -1152449.44205859
  Force two-norm initial, final = 0.24288803 0.00027908203
  Force max component initial, final = 0.13208528 5.8217215e-05
  Final line search alpha, max atom move = 1.0000000 5.8217215e-05
  Iterations, force evaluations = 138 276

MPI task timing breakdown:
Section |  min time  |  avg time  |  max time  |%varavg| %total
---------------------------------------------------------------
Pair    | 0.42345    | 1.1659     | 1.5286     |  29.2 | 71.83
Neigh   | 0          | 0          | 0          |   0.0 |  0.00
Comm    | 0.023362   | 0.26302    | 0.7903     |  42.7 | 16.20
Output  | 0          | 0          | 0          |   0.0 |  0.00
Modify  | 1.6102e-05 | 0.002289   | 0.0048951  |   2.3 |  0.14
Other   |            | 0.192      |            |       | 11.83

Nlocal:        2776.45 ave        3956 max           0 min
Histogram: 8 4 4 0 4 12 8 0 30 34
Nghost:        3879.03 ave        5424 max         232 min
Histogram: 8 0 8 0 16 0 8 8 16 40
Neighs:        79213.4 ave      115311 max           0 min
Histogram: 8 4 4 0 10 6 8 8 24 32

Total # of neighbors = 8238197
Ave neighs/atom = 28.530454
Neighbor list builds = 0
Dangerous builds = 0
The dot product: 2.03394646510059e-06
The cos of the angle between the force vector and the displacement vector: 0.0310392894867779
The angle: 88.2212940233155
Setting atom values ...
  1 settings made for x
  1 settings made for y
  1 settings made for z
Setting up cg style minimization ...
  Unit style    : metal
  Current step  : 545
Per MPI rank memory allocation (min/avg/max) = 5.441 | 5.816 | 6.074 Mbytes
Step PotEng KinEng TotEng v_fx v_fy v_fz 
     545   -1152449.4            0   -1152449.4 -0.018937046 -0.020022283 -0.041240006 
     711   -1152449.4            0   -1152449.4 6.6413457e-05 1.9574388e-05 -5.0448515e-05 
Loop time of 1.98034 on 104 procs for 166 steps with 288751 atoms

99.9% CPU use with 104 MPI tasks x 1 OpenMP threads

Minimization stats:
  Stopping criterion = energy tolerance
  Energy initial, next-to-last, final = 
     -1152449.43027846  -1152449.43311625  -1152449.43311625
  Force two-norm initial, final = 0.24156313 0.00027906694
  Force max component initial, final = 0.13762763 7.1361821e-05
  Final line search alpha, max atom move = 1.0000000 7.1361821e-05
  Iterations, force evaluations = 166 332

MPI task timing breakdown:
Section |  min time  |  avg time  |  max time  |%varavg| %total
---------------------------------------------------------------
Pair    | 0.50787    | 1.4011     | 1.8326     |  32.0 | 70.75
Neigh   | 0          | 0          | 0          |   0.0 |  0.00
Comm    | 0.027777   | 0.32137    | 0.95325    |  45.9 | 16.23
Output  | 0          | 0          | 0          |   0.0 |  0.00
Modify  | 1.9689e-05 | 0.0027595  | 0.0058985  |   2.5 |  0.14
Other   |            | 0.2551     |            |       | 12.88

Nlocal:        2776.45 ave        3954 max           0 min
Histogram: 8 4 4 0 4 12 8 0 30 34
Nghost:        3879.03 ave        5424 max         232 min
Histogram: 8 0 8 0 16 0 8 8 16 40
Neighs:        79213.5 ave      115245 max           0 min
Histogram: 8 4 4 0 10 6 8 8 24 32

Total # of neighbors = 8238199
Ave neighs/atom = 28.530461
Neighbor list builds = 0
Dangerous builds = 0
The dot product: 2.24078907018714e-06
The cos of the angle between the force vector and the displacement vector: 0.0261567522330943
The angle: 88.5011575462037
Setting atom values ...
  1 settings made for x
  1 settings made for y
  1 settings made for z
Setting up cg style minimization ...
  Unit style    : metal
  Current step  : 711
Per MPI rank memory allocation (min/avg/max) = 5.441 | 5.816 | 6.074 Mbytes
Step PotEng KinEng TotEng v_fx v_fy v_fz 
     711   -1152449.4            0   -1152449.4 -0.019467334 -0.019281771 -0.042539863 
     879   -1152449.4            0   -1152449.4 -8.284195e-06 -1.4019984e-05 -4.4156523e-05 
Loop time of 2.00628 on 104 procs for 168 steps with 288751 atoms

99.9% CPU use with 104 MPI tasks x 1 OpenMP threads

Minimization stats:
  Stopping criterion = energy tolerance
  Energy initial, next-to-last, final = 
     -1152449.41818802  -1152449.42099136  -1152449.42099136
  Force two-norm initial, final = 0.24056998 0.00016878527
  Force max component initial, final = 0.14185983 4.4281122e-05
  Final line search alpha, max atom move = 1.0000000 4.4281122e-05
  Iterations, force evaluations = 168 336

MPI task timing breakdown:
Section |  min time  |  avg time  |  max time  |%varavg| %total
---------------------------------------------------------------
Pair    | 0.51617    | 1.4192     | 1.863      |  32.2 | 70.74
Neigh   | 0          | 0          | 0          |   0.0 |  0.00
Comm    | 0.030324   | 0.32449    | 0.9658     |  46.3 | 16.17
Output  | 0          | 0          | 0          |   0.0 |  0.00
Modify  | 1.943e-05  | 0.0027878  | 0.0059586  |   2.5 |  0.14
Other   |            | 0.2598     |            |       | 12.95

Nlocal:        2776.45 ave        3952 max           0 min
Histogram: 8 4 4 0 4 12 8 0 30 34
Nghost:        3879.03 ave        5424 max         232 min
Histogram: 8 0 8 0 16 0 8 8 16 40
Neighs:        79213.5 ave      115172 max           0 min
Histogram: 8 4 4 0 10 6 8 8 24 32

Total # of neighbors = 8238203
Ave neighs/atom = 28.530474
Neighbor list builds = 0
Dangerous builds = 0
The dot product: 1.09691468277251e-06
The cos of the angle between the force vector and the displacement vector: 0.0233070506373821
The angle: 88.6644834340568
Setting atom values ...
  1 settings made for x
  1 settings made for y
  1 settings made for z
Setting up cg style minimization ...
  Unit style    : metal
  Current step  : 879
Per MPI rank memory allocation (min/avg/max) = 5.441 | 5.816 | 6.074 Mbytes
Step PotEng KinEng TotEng v_fx v_fy v_fz 
     879   -1152449.4            0   -1152449.4 -0.022387524 -0.020181507 -0.044941988 
    1000   -1152449.4            0   -1152449.4 -3.8171945e-05 -1.6334442e-05 1.7246298e-05 
    1008   -1152449.4            0   -1152449.4 -2.7565467e-05 -9.6284552e-06 2.3709628e-05 
Loop time of 1.49615 on 104 procs for 129 steps with 288751 atoms

99.9% CPU use with 104 MPI tasks x 1 OpenMP threads

Minimization stats:
  Stopping criterion = energy tolerance
  Energy initial, next-to-last, final = 
      -1152449.4028534   -1152449.4056325   -1152449.4056325
  Force two-norm initial, final = 0.24054827 0.00017404051
  Force max component initial, final = 0.14548096 4.4160556e-05
  Final line search alpha, max atom move = 1.0000000 4.4160556e-05
  Iterations, force evaluations = 129 258

MPI task timing breakdown:
Section |  min time  |  avg time  |  max time  |%varavg| %total
---------------------------------------------------------------
Pair    | 0.39347    | 1.0843     | 1.4153     |  28.1 | 72.47
Neigh   | 0          | 0          | 0          |   0.0 |  0.00
Comm    | 0.023429   | 0.24285    | 0.73556    |  41.6 | 16.23
Output  | 0.00010352 | 0.00011365 | 0.00024248 |   0.0 |  0.01
Modify  | 1.6171e-05 | 0.0021382  | 0.0045742  |   2.2 |  0.14
Other   |            | 0.1668     |            |       | 11.15

Nlocal:        2776.45 ave        3948 max           0 min
Histogram: 8 4 4 0 4 12 8 0 28 36
Nghost:        3879.03 ave        5425 max         232 min
Histogram: 8 0 8 0 16 0 8 8 16 40
Neighs:        79213.5 ave      115010 max           0 min
Histogram: 8 4 4 0 10 6 8 8 24 32

Total # of neighbors = 8238203
Ave neighs/atom = 28.530474
Neighbor list builds = 0
Dangerous builds = 0
The dot product: -7.3085904931549e-07
The cos of the angle between the force vector and the displacement vector: -0.0194312232369978
The angle: 91.1133971544325
Setting atom values ...
  1 settings made for x
  1 settings made for y
  1 settings made for z
Setting up cg style minimization ...
  Unit style    : metal
  Current step  : 1008
Per MPI rank memory allocation (min/avg/max) = 5.441 | 5.816 | 6.074 Mbytes
Step PotEng KinEng TotEng v_fx v_fy v_fz 
    1008   -1152449.4            0   -1152449.4 -0.028742047 -0.023378366 -0.051417228 
    1146   -1152449.4            0   -1152449.4 1.0831847e-06 -3.0006374e-06 -2.1761278e-05 
Loop time of 1.61988 on 104 procs for 138 steps with 288751 atoms

99.9% CPU use with 104 MPI tasks x 1 OpenMP threads

Minimization stats:
  Stopping criterion = energy tolerance
  Energy initial, next-to-last, final = 
     -1152449.38430009  -1152449.38708504  -1152449.38708504
  Force two-norm initial, final = 0.24197207 9.8064251e-05
  Force max component initial, final = 0.14901825 2.1761278e-05
  Final line search alpha, max atom move = 1.0000000 2.1761278e-05
  Iterations, force evaluations = 138 276

MPI task timing breakdown:
Section |  min time  |  avg time  |  max time  |%varavg| %total
---------------------------------------------------------------
Pair    | 0.42246    | 1.1654     | 1.5235     |  29.2 | 71.94
Neigh   | 0          | 0          | 0          |   0.0 |  0.00
Comm    | 0.023573   | 0.2625     | 0.79158    |  42.9 | 16.21
Output  | 0          | 0          | 0          |   0.0 |  0.00
Modify  | 1.6017e-05 | 0.0022849  | 0.0048646  |   2.3 |  0.14
Other   |            | 0.1897     |            |       | 11.71

Nlocal:        2776.45 ave        3945 max           0 min
Histogram: 8 4 4 0 4 12 8 0 28 36
Nghost:        3879.03 ave        5425 max         232 min
Histogram: 8 0 8 0 16 0 8 8 16 40
Neighs:        79213.5 ave      114940 max           0 min
Histogram: 8 4 4 0 10 6 8 8 22 34

Total # of neighbors = 8238204
Ave neighs/atom = 28.530478
Neighbor list builds = 0
Dangerous builds = 0
The dot product: 6.85181507480414e-07
The cos of the angle between the force vector and the displacement vector: 0.0311532945751127
The angle: 88.2147588524553
Setting atom values ...
  1 settings made for x
  1 settings made for y
  1 settings made for z
Setting up cg style minimization ...
  Unit style    : metal
  Current step  : 1146
Per MPI rank memory allocation (min/avg/max) = 5.441 | 5.816 | 6.074 Mbytes
Step PotEng KinEng TotEng v_fx v_fy v_fz 
    1146   -1152449.4            0   -1152449.4  -0.04430585  -0.03161977 -0.071495867 
    1309   -1152449.4            0   -1152449.4 -9.9534467e-06 -1.8697557e-07 3.8133745e-05 
Loop time of 1.89964 on 104 procs for 163 steps with 288751 atoms

99.9% CPU use with 104 MPI tasks x 1 OpenMP threads

Minimization stats:
  Stopping criterion = energy tolerance
  Energy initial, next-to-last, final = 
     -1152449.36281733  -1152449.36675152  -1152449.36675152
  Force two-norm initial, final = 0.24951394 0.00021998492
  Force max component initial, final = 0.15322045 4.6094977e-05
  Final line search alpha, max atom move = 1.0000000 4.6094977e-05
  Iterations, force evaluations = 163 326

MPI task timing breakdown:
Section |  min time  |  avg time  |  max time  |%varavg| %total
---------------------------------------------------------------
Pair    | 0.4973     | 1.3697     | 1.7866     |  31.6 | 72.10
Neigh   | 0          | 0          | 0          |   0.0 |  0.00
Comm    | 0.027724   | 0.30846    | 0.93315    |  46.5 | 16.24
Output  | 0          | 0          | 0          |   0.0 |  0.00
Modify  | 1.9073e-05 | 0.0027     | 0.0057948  |   2.5 |  0.14
Other   |            | 0.2188     |            |       | 11.52

Nlocal:        2776.45 ave        3941 max           0 min
Histogram: 8 4 4 0 4 12 8 0 28 36
Nghost:        3879.07 ave        5425 max         232 min
Histogram: 8 0 8 0 16 0 8 8 16 40
Neighs:        79213.5 ave      114826 max           0 min
Histogram: 8 4 4 0 10 6 8 8 22 34

Total # of neighbors = 8238203
Ave neighs/atom = 28.530474
Neighbor list builds = 0
Dangerous builds = 0
The dot product: -5.55521252300384e-06
The cos of the angle between the force vector and the displacement vector: -0.140953091775641
The angle: 98.1030013029497
Setting atom values ...
  1 settings made for x
  1 settings made for y
  1 settings made for z
Setting up cg style minimization ...
  Unit style    : metal
  Current step  : 1309
Per MPI rank memory allocation (min/avg/max) = 5.441 | 5.816 | 6.074 Mbytes
Step PotEng KinEng TotEng v_fx v_fy v_fz 
    1309   -1152449.3            0   -1152449.3  -0.14384956 -0.035304952  -0.17119549 
    1539   -1152449.4            0   -1152449.4 -1.7021632e-05 -5.5382998e-06 -1.4199862e-06 
Loop time of 2.69062 on 104 procs for 230 steps with 288751 atoms

99.9% CPU use with 104 MPI tasks x 1 OpenMP threads

Minimization stats:
  Stopping criterion = energy tolerance
  Energy initial, next-to-last, final = 
     -1152449.34467725  -1152449.35456661  -1152449.35456661
  Force two-norm initial, final = 0.31825454 7.1437094e-05
  Force max component initial, final = 0.17119549 1.7021632e-05
  Final line search alpha, max atom move = 1.0000000 1.7021632e-05
  Iterations, force evaluations = 230 460

MPI task timing breakdown:
Section |  min time  |  avg time  |  max time  |%varavg| %total
---------------------------------------------------------------
Pair    | 0.70672    | 1.9364     | 2.5349     |  37.5 | 71.97
Neigh   | 1.0267e-05 | 0.0029617  | 0.004309   |   2.2 |  0.11
Comm    | 0.039857   | 0.43833    | 1.3127     |  54.9 | 16.29
Output  | 0          | 0          | 0          |   0.0 |  0.00
Modify  | 2.6463e-05 | 0.0038042  | 0.0080927  |   2.9 |  0.14
Other   |            | 0.3092     |            |       | 11.49

Nlocal:        2776.45 ave        3943 max           0 min
Histogram: 8 4 4 0 4 12 8 0 28 36
Nghost:        3879.07 ave        5424 max         232 min
Histogram: 8 0 8 0 16 0 8 8 16 40
Neighs:        79213.4 ave      114885 max           0 min
Histogram: 8 4 4 0 10 6 8 8 22 34

Total # of neighbors = 8238194
Ave neighs/atom = 28.530443
Neighbor list builds = 1
Dangerous builds = 0
The dot product: 3.30069057634251e-06
The cos of the angle between the force vector and the displacement vector: 0.183819003697723
The angle: 79.4077144688665
Setting atom values ...
  1 settings made for x
  1 settings made for y
  1 settings made for z
Setting up cg style minimization ...
  Unit style    : metal
  Current step  : 1539
Per MPI rank memory allocation (min/avg/max) = 5.441 | 5.816 | 6.074 Mbytes
Step PotEng KinEng TotEng v_fx v_fy v_fz 
    1539   -1152449.3            0   -1152449.3  -0.13404014   0.01321336  -0.12341615 
    1743   -1152449.3            0   -1152449.3 -2.2360261e-05 -7.8742567e-06  1.75261e-05 
Loop time of 2.38683 on 104 procs for 204 steps with 288751 atoms

99.9% CPU use with 104 MPI tasks x 1 OpenMP threads

Minimization stats:
  Stopping criterion = energy tolerance
  Energy initial, next-to-last, final = 
     -1152449.33518487  -1152449.34202298  -1152449.34202298
  Force two-norm initial, final = 0.27793346 0.00020056783
  Force max component initial, final = 0.14156155 5.2844887e-05
  Final line search alpha, max atom move = 1.0000000 5.2844887e-05
  Iterations, force evaluations = 204 408

MPI task timing breakdown:
Section |  min time  |  avg time  |  max time  |%varavg| %total
---------------------------------------------------------------
Pair    | 0.62498    | 1.7126     | 2.2491     |  35.2 | 71.75
Neigh   | 0          | 0          | 0          |   0.0 |  0.00
Comm    | 0.034487   | 0.386      | 1.1596     |  51.8 | 16.17
Output  | 0          | 0          | 0          |   0.0 |  0.00
Modify  | 2.3809e-05 | 0.0033708  | 0.0071802  |   2.8 |  0.14
Other   |            | 0.2849     |            |       | 11.94

Nlocal:        2776.45 ave        3943 max           0 min
Histogram: 8 4 4 0 4 12 8 0 28 36
Nghost:        3879.03 ave        5424 max         232 min
Histogram: 8 0 8 0 16 0 8 8 16 40
Neighs:        79213.4 ave      114888 max           0 min
Histogram: 8 4 4 0 10 6 8 8 22 34

Total # of neighbors = 8238198
Ave neighs/atom = 28.530457
Neighbor list builds = 0
Dangerous builds = 0
The dot product: 2.20594213748723e-07
The cos of the angle between the force vector and the displacement vector: 0.0074825031852624
The angle: 89.5712801467106
Setting atom values ...
  1 settings made for x
  1 settings made for y
  1 settings made for z
Setting up cg style minimization ...
  Unit style    : metal
  Current step  : 1743
Per MPI rank memory allocation (min/avg/max) = 5.441 | 5.816 | 6.074 Mbytes
Step PotEng KinEng TotEng v_fx v_fy v_fz 
    1743   -1152449.3            0   -1152449.3 -0.065386717  0.031512582 -0.080765288 
    1998   -1152449.3            0   -1152449.3 -1.4435191e-05 -4.6481754e-06 1.0624403e-05 
Loop time of 2.99942 on 104 procs for 255 steps with 288751 atoms

99.9% CPU use with 104 MPI tasks x 1 OpenMP threads

Minimization stats:
  Stopping criterion = energy tolerance
  Energy initial, next-to-last, final = 
     -1152449.32688325  -1152449.34789413  -1152449.34789413
  Force two-norm initial, final = 0.24445412 6.0846494e-05
  Force max component initial, final = 0.11938654 1.4435191e-05
  Final line search alpha, max atom move = 1.0000000 1.4435191e-05
  Iterations, force evaluations = 255 510

MPI task timing breakdown:
Section |  min time  |  avg time  |  max time  |%varavg| %total
---------------------------------------------------------------
Pair    | 0.78235    | 2.1481     | 2.8256     |  39.6 | 71.62
Neigh   | 1.0125e-05 | 0.0029623  | 0.0042968  |   2.2 |  0.10
Comm    | 0.045754   | 0.49251    | 1.4758     |  57.5 | 16.42
Output  | 0          | 0          | 0          |   0.0 |  0.00
Modify  | 2.917e-05  | 0.0042169  | 0.0089522  |   3.1 |  0.14
Other   |            | 0.3517     |            |       | 11.72

Nlocal:        2776.45 ave        3947 max           0 min
Histogram: 8 4 4 0 4 12 8 0 28 36
Nghost:        3879.03 ave        5424 max         232 min
Histogram: 8 0 8 0 16 0 8 8 16 40
Neighs:        79213.5 ave      114997 max           0 min
Histogram: 8 4 4 0 10 6 8 8 24 32

Total # of neighbors = 8238199
Ave neighs/atom = 28.530461
Neighbor list builds = 1
Dangerous builds = 0
The dot product: -7.90562201842401e-07
The cos of the angle between the force vector and the displacement vector: -0.0426951727459867
The angle: 92.4469970176689
Setting atom values ...
  1 settings made for x
  1 settings made for y
  1 settings made for z
Setting up cg style minimization ...
  Unit style    : metal
  Current step  : 1998
Per MPI rank memory allocation (min/avg/max) = 5.441 | 5.816 | 6.074 Mbytes
Step PotEng KinEng TotEng v_fx v_fy v_fz 
    1998   -1152449.3            0   -1152449.3  0.012357911 -0.031616275  0.050889122 
    2000   -1152449.4            0   -1152449.4 -0.0090160358 -0.014621078  0.024999082 
    2158   -1152449.4            0   -1152449.4 2.4183048e-05 -4.009167e-05 6.3684335e-05 
Loop time of 1.87602 on 104 procs for 160 steps with 288751 atoms

99.9% CPU use with 104 MPI tasks x 1 OpenMP threads

Minimization stats:
  Stopping criterion = energy tolerance
  Energy initial, next-to-last, final = 
      -1152449.3489301  -1152449.35105308  -1152449.35105308
  Force two-norm initial, final = 0.19453884 0.00027127344
  Force max component initial, final = 0.077898101 6.3684335e-05
  Final line search alpha, max atom move = 1.0000000 6.3684335e-05
  Iterations, force evaluations = 160 320

MPI task timing breakdown:
Section |  min time  |  avg time  |  max time  |%varavg| %total
---------------------------------------------------------------
Pair    | 0.48811    | 1.3474     | 1.7685     |  31.4 | 71.82
Neigh   | 0          | 0          | 0          |   0.0 |  0.00
Comm    | 0.029014   | 0.30498    | 0.91218    |  46.0 | 16.26
Output  | 8.6886e-05 | 9.1781e-05 | 0.00014658 |   0.0 |  0.00
Modify  | 1.8677e-05 | 0.0026512  | 0.00564    |   2.5 |  0.14
Other   |            | 0.2209     |            |       | 11.77

Nlocal:        2776.45 ave        3961 max           0 min
Histogram: 8 4 4 0 6 10 8 2 28 34
Nghost:        3879.03 ave        5426 max         232 min
Histogram: 8 0 8 0 16 0 8 8 16 40
Neighs:        79213.4 ave      115460 max           0 min
Histogram: 8 4 4 0 10 6 8 8 24 32

Total # of neighbors = 8238190
Ave neighs/atom = 28.530429
Neighbor list builds = 0
Dangerous builds = 0
The dot product: 1.24814810370083e-06
The cos of the angle between the force vector and the displacement vector: 0.0157906717118343
The angle: 89.0952235522844
Setting atom values ...
  1 settings made for x
  1 settings made for y
  1 settings made for z
Setting up cg style minimization ...
  Unit style    : metal
  Current step  : 2158
Per MPI rank memory allocation (min/avg/max) = 5.441 | 5.816 | 6.074 Mbytes
Step PotEng KinEng TotEng v_fx v_fy v_fz 
    2158   -1152449.3            0   -1152449.3 0.0010786692 -0.016803809  0.028520446 
    2399   -1152449.4            0   -1152449.4 2.1360908e-06 1.4560179e-06 -2.6666981e-06 
Loop time of 2.83439 on 104 procs for 241 steps with 288751 atoms

99.9% CPU use with 104 MPI tasks x 1 OpenMP threads

Minimization stats:
  Stopping criterion = energy tolerance
  Energy initial, next-to-last, final = 
     -1152449.34930487  -1152449.35132253  -1152449.35132253
  Force two-norm initial, final = 0.18743924 2.1068053e-05
  Force max component initial, final = 0.079368768 2.6666981e-06
  Final line search alpha, max atom move = 1.0000000 2.6666981e-06
  Iterations, force evaluations = 241 482

MPI task timing breakdown:
Section |  min time  |  avg time  |  max time  |%varavg| %total
---------------------------------------------------------------
Pair    | 0.73446    | 2.0323     | 2.679      |  38.6 | 71.70
Neigh   | 0          | 0          | 0          |   0.0 |  0.00
Comm    | 0.041332   | 0.45818    | 1.3784     |  56.5 | 16.16
Output  | 0          | 0          | 0          |   0.0 |  0.00
Modify  | 2.9578e-05 | 0.0039942  | 0.0085298  |   3.0 |  0.14
Other   |            | 0.34       |            |       | 11.99

Nlocal:        2776.45 ave        3960 max           0 min
Histogram: 8 4 4 0 4 12 8 2 28 34
Nghost:        3879.03 ave        5429 max         232 min
Histogram: 8 0 8 0 16 0 8 8 16 40
Neighs:        79213.4 ave      115429 max           0 min
Histogram: 8 4 4 0 10 6 8 8 24 32

Total # of neighbors = 8238190
Ave neighs/atom = 28.530429
Neighbor list builds = 0
Dangerous builds = 0
The dot product: -3.59646038829444e-09
The cos of the angle between the force vector and the displacement vector: -0.000968339839622069
The angle: 90.0554817946154
Setting atom values ...
  1 settings made for x
  1 settings made for y
  1 settings made for z
Setting up cg style minimization ...
  Unit style    : metal
  Current step  : 2399
Per MPI rank memory allocation (min/avg/max) = 5.441 | 5.816 | 6.074 Mbytes
Step PotEng KinEng TotEng v_fx v_fy v_fz 
    2399   -1152449.3            0   -1152449.3 0.0022291065 -0.015319802  0.025990179 
    2669   -1152449.3            0   -1152449.3 -4.724201e-07 5.4405399e-07 -8.8887812e-07 
Loop time of 3.15421 on 104 procs for 270 steps with 288751 atoms

99.9% CPU use with 104 MPI tasks x 1 OpenMP threads

Minimization stats:
  Stopping criterion = energy tolerance
  Energy initial, next-to-last, final = 
     -1152449.34658731  -1152449.34856691  -1152449.34856691
  Force two-norm initial, final = 0.18572296 4.5412148e-06
  Force max component initial, final = 0.079013652 8.8887812e-07
  Final line search alpha, max atom move = 1.0000000 8.8887812e-07
  Iterations, force evaluations = 270 540

MPI task timing breakdown:
Section |  min time  |  avg time  |  max time  |%varavg| %total
---------------------------------------------------------------
Pair    | 0.82116    | 2.2651     | 2.9746     |  40.7 | 71.81
Neigh   | 0          | 0          | 0          |   0.0 |  0.00
Comm    | 0.046277   | 0.51156    | 1.5369     |  59.5 | 16.22
Output  | 0          | 0          | 0          |   0.0 |  0.00
Modify  | 3.1381e-05 | 0.0044468  | 0.009487   |   3.2 |  0.14
Other   |            | 0.3731     |            |       | 11.83

Nlocal:        2776.45 ave        3959 max           0 min
Histogram: 8 4 4 0 4 12 8 2 28 34
Nghost:        3879.03 ave        5424 max         232 min
Histogram: 8 0 8 0 16 0 8 8 16 40
Neighs:        79213.4 ave      115406 max           0 min
Histogram: 8 4 4 0 10 6 8 8 24 32

Total # of neighbors = 8238191
Ave neighs/atom = 28.530433
Neighbor list builds = 0
Dangerous builds = 0
The dot product: -2.21038139478165e-09
The cos of the angle between the force vector and the displacement vector: -0.00193175027059319
The angle: 90.1106812064157
Setting atom values ...
  1 settings made for x
  1 settings made for y
  1 settings made for z
Setting up cg style minimization ...
  Unit style    : metal
  Current step  : 2669
Per MPI rank memory allocation (min/avg/max) = 5.441 | 5.816 | 6.074 Mbytes
Step PotEng KinEng TotEng v_fx v_fy v_fz 
    2669   -1152449.3            0   -1152449.3 0.0022287429 -0.013003721  0.022121886 
    2937   -1152449.3            0   -1152449.3 2.0061757e-07 6.4330265e-07 -1.1208425e-06 
Loop time of 3.1539 on 104 procs for 268 steps with 288751 atoms

99.9% CPU use with 104 MPI tasks x 1 OpenMP threads

Minimization stats:
  Stopping criterion = energy tolerance
  Energy initial, next-to-last, final = 
     -1152449.34081926  -1152449.34275395  -1152449.34275395
  Force two-norm initial, final = 0.18373104 5.0075082e-06
  Force max component initial, final = 0.078718075 1.1208425e-06
  Final line search alpha, max atom move = 1.0000000 1.1208425e-06
  Iterations, force evaluations = 268 536

MPI task timing breakdown:
Section |  min time  |  avg time  |  max time  |%varavg| %total
---------------------------------------------------------------
Pair    | 0.82077    | 2.2604     | 2.9676     |  40.7 | 71.67
Neigh   | 0          | 0          | 0          |   0.0 |  0.00
Comm    | 0.046049   | 0.50768    | 1.5321     |  59.7 | 16.10
Output  | 0          | 0          | 0          |   0.0 |  0.00
Modify  | 3.2314e-05 | 0.0044077  | 0.0093845  |   3.1 |  0.14
Other   |            | 0.3814     |            |       | 12.09

Nlocal:        2776.45 ave        3958 max           0 min
Histogram: 8 4 4 0 4 12 8 2 28 34
Nghost:        3879.03 ave        5424 max         232 min
Histogram: 8 0 8 0 16 0 8 8 16 40
Neighs:        79213.4 ave      115362 max           0 min
Histogram: 8 4 4 0 10 6 8 8 24 32

Total # of neighbors = 8238190
Ave neighs/atom = 28.530429
Neighbor list builds = 0
Dangerous builds = 0
The dot product: -1.55657331052813e-09
The cos of the angle between the force vector and the displacement vector: -0.00119021136960163
The angle: 90.0681941043075
Setting atom values ...
  1 settings made for x
  1 settings made for y
  1 settings made for z
Setting up cg style minimization ...
  Unit style    : metal
  Current step  : 2937
Per MPI rank memory allocation (min/avg/max) = 5.441 | 5.816 | 6.074 Mbytes
Step PotEng KinEng TotEng v_fx v_fy v_fz 
    2937   -1152449.3            0   -1152449.3 0.0010094588  -0.01073953  0.018398941 
    3000   -1152449.3            0   -1152449.3 -0.00042391646 -0.00021340375 0.00040273975 
    3270   -1152449.3            0   -1152449.3 2.0954875e-08 4.0479854e-08 -7.1421066e-08 
Loop time of 3.87827 on 104 procs for 333 steps with 288751 atoms

99.9% CPU use with 104 MPI tasks x 1 OpenMP threads

Minimization stats:
  Stopping criterion = energy tolerance
  Energy initial, next-to-last, final = 
     -1152449.33194541  -1152449.33385339  -1152449.33385339
  Force two-norm initial, final = 0.1826915 4.8840494e-07
  Force max component initial, final = 0.078384664 8.3825011e-08
  Final line search alpha, max atom move = 1.0000000 8.3825011e-08
  Iterations, force evaluations = 333 666

MPI task timing breakdown:
Section |  min time  |  avg time  |  max time  |%varavg| %total
---------------------------------------------------------------
Pair    | 1.0141     | 2.7958     | 3.6601     |  45.1 | 72.09
Neigh   | 0          | 0          | 0          |   0.0 |  0.00
Comm    | 0.059022   | 0.62807    | 1.8994     |  66.4 | 16.19
Output  | 0.00012472 | 0.00012799 | 0.0002455  |   0.0 |  0.00
Modify  | 3.79e-05   | 0.0055063  | 0.011719   |   3.5 |  0.14
Other   |            | 0.4488     |            |       | 11.57

Nlocal:        2776.45 ave        3957 max           0 min
Histogram: 8 4 4 0 4 12 8 2 28 34
Nghost:        3879.03 ave        5424 max         232 min
Histogram: 8 0 8 0 16 0 8 8 16 40
Neighs:        79213.4 ave      115325 max           0 min
Histogram: 8 4 4 0 10 6 8 8 24 32

Total # of neighbors = 8238192
Ave neighs/atom = 28.530436
Neighbor list builds = 0
Dangerous builds = 0
The dot product: -7.43301320139797e-11
The cos of the angle between the force vector and the displacement vector: -0.000877287991380712
The angle: 90.0502649057713
OMP_NUM_THREADS environment is not set. Defaulting to 1 thread. (../comm.cpp:94)
  using 1 OpenMP thread(s) per MPI task
Reading data file ...
  orthogonal box = (-122.39241 -121.13707 -37.090501) to (122.39241 121.13707 37.090501)
  13 by 4 by 2 MPI processor grid
  reading atoms ...
  288751 atoms
  read_data CPU = 0.346 seconds
199981 atoms in group inner
88770 atoms in group outer
Setting atom values ...
  1 settings made for x
  1 settings made for y
  1 settings made for z
Neighbor list info ...
  update every 1 steps, delay 0 steps, check yes
  max neighbors/atom: 2000, page size: 100000
  master list distance cutoff = 5.6
  ghost atom cutoff = 5.6
  binsize = 2.8, bins = 88 87 27
  1 neighbor lists, perpetual/occasional/extra = 1 0 0
  (1) pair eam/alloy, perpetual
      attributes: half, newton on
      pair build: half/bin/atomonly/newton
      stencil: half/bin/3d/newton
      bin: standard
Setting up cg style minimization ...
  Unit style    : metal
  Current step  : 0
Per MPI rank memory allocation (min/avg/max) = 5.441 | 5.816 | 6.074 Mbytes
Step Temp E_pair E_mol TotEng Press 
       0            0   -1152447.8            0   -1152447.8   -524.07341 
     154            0   -1152449.5            0   -1152449.5   -526.37364 
Loop time of 1.78838 on 104 procs for 154 steps with 288751 atoms

99.9% CPU use with 104 MPI tasks x 1 OpenMP threads

Minimization stats:
  Stopping criterion = energy tolerance
  Energy initial, next-to-last, final = 
     -1152447.82840346  -1152449.45035285  -1152449.45035285
  Force two-norm initial, final = 9.9350795 0.00015995647
  Force max component initial, final = 5.4692391 4.0947780e-05
  Final line search alpha, max atom move = 1.0000000 4.0947780e-05
  Iterations, force evaluations = 154 307

MPI task timing breakdown:
Section |  min time  |  avg time  |  max time  |%varavg| %total
---------------------------------------------------------------
Pair    | 0.47513    | 1.2926     | 1.6803     |  30.4 | 72.28
Neigh   | 2.0279e-05 | 0.005925   | 0.0085408  |   3.2 |  0.33
Comm    | 0.029424   | 0.289      | 0.86716    |  45.3 | 16.16
Output  | 0          | 0          | 0          |   0.0 |  0.00
Modify  | 1.6846e-05 | 0.0016604  | 0.0042277  |   2.6 |  0.09
Other   |            | 0.1992     |            |       | 11.14

Nlocal:        2776.45 ave        3955 max           0 min
Histogram: 8 4 4 0 4 12 8 0 30 34
Nghost:        3879.07 ave        5424 max         232 min
Histogram: 8 0 8 0 16 0 8 8 16 40
Neighs:        79213.7 ave      115312 max           0 min
Histogram: 8 4 4 0 10 6 8 8 24 32

Total # of neighbors = 8238223
Ave neighs/atom = 28.530544
Neighbor list builds = 2
Dangerous builds = 0
OMP_NUM_THREADS environment is not set. Defaulting to 1 thread. (../comm.cpp:94)
  using 1 OpenMP thread(s) per MPI task
Reading data file ...
  orthogonal box = (-122.39241 -121.13707 -37.090501) to (122.39241 121.13707 37.090501)
  13 by 4 by 2 MPI processor grid
  reading atoms ...
  288751 atoms
  read_data CPU = 0.342 seconds
199981 atoms in group inner
88770 atoms in group outer
Setting atom values ...
  1 settings made for x
  1 settings made for y
  1 settings made for z
Neighbor list info ...
  update every 1 steps, delay 0 steps, check yes
  max neighbors/atom: 2000, page size: 100000
  master list distance cutoff = 5.6
  ghost atom cutoff = 5.6
  binsize = 2.8, bins = 88 87 27
  1 neighbor lists, perpetual/occasional/extra = 1 0 0
  (1) pair eam/alloy, perpetual
      attributes: half, newton on
      pair build: half/bin/atomonly/newton
      stencil: half/bin/3d/newton
      bin: standard
Setting up cg style minimization ...
  Unit style    : metal
  Current step  : 0
Per MPI rank memory allocation (min/avg/max) = 5.441 | 5.816 | 6.074 Mbytes
Step Temp E_pair E_mol TotEng Press 
       0            0   -1152447.8            0   -1152447.8   -524.59927 
     201            0   -1152449.4            0   -1152449.4   -527.14647 
Loop time of 2.36411 on 104 procs for 201 steps with 288751 atoms

99.9% CPU use with 104 MPI tasks x 1 OpenMP threads

Minimization stats:
  Stopping criterion = energy tolerance
  Energy initial, next-to-last, final = 
     -1152447.75146136  -1152449.35157347  -1152449.35157347
  Force two-norm initial, final = 10.323412 1.5682402e-05
  Force max component initial, final = 6.3046431 2.6690179e-06
  Final line search alpha, max atom move = 1.0000000 2.6690179e-06
  Iterations, force evaluations = 201 401

MPI task timing breakdown:
Section |  min time  |  avg time  |  max time  |%varavg| %total
---------------------------------------------------------------
Pair    | 0.62622    | 1.6914     | 2.1929     |  34.7 | 71.54
[...]
  Final line search alpha, max atom move = 1.0000000 1.3028224e-05
  Iterations, force evaluations = 188 376

MPI task timing breakdown:
Section |  min time  |  avg time  |  max time  |%varavg| %total
---------------------------------------------------------------
Pair    | 0.56835    | 1.5805     | 2.0775     |  34.1 | 72.01
Neigh   | 0          | 0          | 0          |   0.0 |  0.00
Comm    | 0.035885   | 0.35686    | 1.064      |  49.8 | 16.26
Output  | 0          | 0          | 0          |   0.0 |  0.00
Modify  | 2.2918e-05 | 0.0031143  | 0.0066113  |   2.7 |  0.14
Other   |            | 0.2545     |            |       | 11.59

Nlocal:        2776.45 ave        3946 max           0 min
Histogram: 8 4 4 0 4 12 8 0 28 36
Nghost:        3878.64 ave        5428 max         232 min
Histogram: 8 0 8 0 16 0 8 8 16 40
Neighs:        79213.4 ave      115042 max           0 min
Histogram: 8 4 4 0 10 6 8 8 24 32

Total # of neighbors = 8238190
Ave neighs/atom = 28.530429
Neighbor list builds = 0
Dangerous builds = 0
The dot product: -2.62753253029528e-08
The cos of the angle between the force vector and the displacement vector: -0.00189685864629078
The angle: 90.10868205994
Setting atom values ...
  1 settings made for x
  1 settings made for y
  1 settings made for z
Setting up cg style minimization ...
  Unit style    : metal
  Current step  : 15277
Per MPI rank memory allocation (min/avg/max) = 5.441 | 5.816 | 6.074 Mbytes
Step PotEng KinEng TotEng v_fx v_fy v_fz 
   15277   -1152449.3            0   -1152449.3 -0.057025924   0.04919871 -0.011669341 
   15504   -1152449.3            0   -1152449.3 -1.6279009e-06 4.2990669e-07 7.9449587e-07 
Loop time of 2.66822 on 104 procs for 227 steps with 288751 atoms

99.9% CPU use with 104 MPI tasks x 1 OpenMP threads

Minimization stats:
  Stopping criterion = energy tolerance
  Energy initial, next-to-last, final = 
     -1152449.33715459   -1152449.3396329   -1152449.3396329
  Force two-norm initial, final = 0.21776192 3.2622604e-05
  Force max component initial, final = 0.10080893 2.5351944e-06
  Final line search alpha, max atom move = 1.0000000 2.5351944e-06
  Iterations, force evaluations = 227 454

MPI task timing breakdown:
Section |  min time  |  avg time  |  max time  |%varavg| %total
---------------------------------------------------------------
Pair    | 0.68738    | 1.9106     | 2.5126     |  37.5 | 71.60
Neigh   | 0          | 0          | 0          |   0.0 |  0.00
Comm    | 0.041438   | 0.43461    | 1.2882     |  54.5 | 16.29
Output  | 0          | 0          | 0          |   0.0 |  0.00
Modify  | 2.7638e-05 | 0.0037611  | 0.0079975  |   2.9 |  0.14
Other   |            | 0.3193     |            |       | 11.97

Nlocal:        2776.45 ave        3947 max           0 min
Histogram: 8 4 4 0 4 12 8 0 28 36
Nghost:        3878.61 ave        5428 max         232 min
Histogram: 8 0 8 0 16 0 8 8 16 40
Neighs:        79213.3 ave      115079 max           0 min
Histogram: 8 4 4 0 10 6 8 8 24 32

Total # of neighbors = 8238188
Ave neighs/atom = 28.530422
Neighbor list builds = 0
Dangerous builds = 0
The dot product: 2.98488963601617e-09
The cos of the angle between the force vector and the displacement vector: 0.0016032728000827
The angle: 89.9081391957927
Setting atom values ...
  1 settings made for x
  1 settings made for y
  1 settings made for z
Setting up cg style minimization ...
  Unit style    : metal
  Current step  : 15504
Per MPI rank memory allocation (min/avg/max) = 5.441 | 5.816 | 6.074 Mbytes
Step PotEng KinEng TotEng v_fx v_fy v_fz 
   15504   -1152449.3            0   -1152449.3 -0.053762227  0.049712304  -0.01510183 
   15696   -1152449.3            0   -1152449.3 1.5990313e-06 1.4360554e-05 -1.7912555e-05 
Loop time of 2.2443 on 104 procs for 192 steps with 288751 atoms

99.9% CPU use with 104 MPI tasks x 1 OpenMP threads

Minimization stats:
  Stopping criterion = energy tolerance
  Energy initial, next-to-last, final = 
     -1152449.33979614  -1152449.34231282  -1152449.34231282
  Force two-norm initial, final = 0.2187823 0.00015223707
  Force max component initial, final = 0.10483176 2.7940282e-05
  Final line search alpha, max atom move = 1.0000000 2.7940282e-05
  Iterations, force evaluations = 192 384

MPI task timing breakdown:
Section |  min time  |  avg time  |  max time  |%varavg| %total
---------------------------------------------------------------
Pair    | 0.57989    | 1.6132     | 2.1132     |  34.4 | 71.88
Neigh   | 0          | 0          | 0          |   0.0 |  0.00
Comm    | 0.032793   | 0.3644     | 1.0906     |  50.4 | 16.24
Output  | 0          | 0          | 0          |   0.0 |  0.00
Modify  | 2.4064e-05 | 0.0031918  | 0.006782   |   2.7 |  0.14
Other   |            | 0.2635     |            |       | 11.74

Nlocal:        2776.45 ave        3947 max           0 min
Histogram: 8 4 4 0 4 12 8 0 28 36
Nghost:        3878.69 ave        5428 max         232 min
Histogram: 8 0 8 0 16 0 8 8 16 40
Neighs:        79213.3 ave      115073 max           0 min
Histogram: 8 4 4 0 10 6 8 8 24 32

Total # of neighbors = 8238188
Ave neighs/atom = 28.530422
Neighbor list builds = 0
Dangerous builds = 0
The dot product: 1.69973516116809e-08
The cos of the angle between the force vector and the displacement vector: 0.000738567239226249
The angle: 89.9576832104583
Setting atom values ...
  1 settings made for x
  1 settings made for y
  1 settings made for z
Setting up cg style minimization ...
  Unit style    : metal
  Current step  : 15696
Per MPI rank memory allocation (min/avg/max) = 5.441 | 5.816 | 6.074 Mbytes
Step PotEng KinEng TotEng v_fx v_fy v_fz 
   15696   -1152449.3            0   -1152449.3 -0.051340073  0.050495366 -0.018163563 
   15877   -1152449.3            0   -1152449.3 -3.0728422e-05 -2.5164243e-05 5.3464446e-05 
Loop time of 2.12474 on 104 procs for 181 steps with 288751 atoms

99.9% CPU use with 104 MPI tasks x 1 OpenMP threads

Minimization stats:
  Stopping criterion = energy tolerance
  Energy initial, next-to-last, final = 
      -1152449.3391572  -1152449.34169775  -1152449.34169775
  Force two-norm initial, final = 0.21968981 0.00021739701
  Force max component initial, final = 0.1086744 5.3464446e-05
  Final line search alpha, max atom move = 1.0000000 5.3464446e-05
  Iterations, force evaluations = 181 362

MPI task timing breakdown:
Section |  min time  |  avg time  |  max time  |%varavg| %total
---------------------------------------------------------------
Pair    | 0.54868    | 1.5283     | 2.0026     |  33.5 | 71.93
Neigh   | 0          | 0          | 0          |   0.0 |  0.00
Comm    | 0.032136   | 0.34777    | 1.0459     |  49.3 | 16.37
Output  | 0          | 0          | 0          |   0.0 |  0.00
Modify  | 2.226e-05  | 0.0030052  | 0.0063872  |   2.6 |  0.14
Other   |            | 0.2457     |            |       | 11.56

Nlocal:        2776.45 ave        3945 max           0 min
Histogram: 8 4 4 0 4 12 8 0 28 36
Nghost:        3878.78 ave        5428 max         232 min
Histogram: 8 0 8 0 16 0 8 8 16 40
Neighs:        79213.4 ave      115031 max           0 min
Histogram: 8 4 4 0 10 6 8 8 24 32

Total # of neighbors = 8238194
Ave neighs/atom = 28.530443
Neighbor list builds = 0
Dangerous builds = 0
The dot product: 3.37085660107066e-09
The cos of the angle between the force vector and the displacement vector: 5.06113970652172e-05
The angle: 89.9971001805517
Setting atom values ...
  1 settings made for x
  1 settings made for y
  1 settings made for z
Setting up cg style minimization ...
  Unit style    : metal
  Current step  : 15877
Per MPI rank memory allocation (min/avg/max) = 5.441 | 5.816 | 6.074 Mbytes
Step PotEng KinEng TotEng v_fx v_fy v_fz 
   15877   -1152449.3            0   -1152449.3 -0.053390667   0.05242131 -0.019031073 
   16000   -1152449.3            0   -1152449.3 -2.6612227e-05 -5.123176e-05 8.0565011e-05 
   16109   -1152449.3            0   -1152449.3 5.430102e-06 -2.0001137e-07 -4.0377062e-06 
Loop time of 2.71885 on 104 procs for 232 steps with 288751 atoms

99.9% CPU use with 104 MPI tasks x 1 OpenMP threads

Minimization stats:
  Stopping criterion = energy tolerance
  Energy initial, next-to-last, final = 
      -1152449.3354708  -1152449.33804299  -1152449.33804299
  Force two-norm initial, final = 0.22113704 2.7496884e-05
  Force max component initial, final = 0.112345 5.7640118e-06
  Final line search alpha, max atom move = 1.0000000 5.7640118e-06
  Iterations, force evaluations = 232 464

MPI task timing breakdown:
Section |  min time  |  avg time  |  max time  |%varavg| %total
---------------------------------------------------------------
Pair    | 0.70479    | 1.949      | 2.5557     |  37.7 | 71.68
Neigh   | 0          | 0          | 0          |   0.0 |  0.00
Comm    | 0.041049   | 0.44213    | 1.3351     |  55.3 | 16.26
Output  | 0.00011326 | 0.00011673 | 0.00033031 |   0.0 |  0.00
Modify  | 2.9698e-05 | 0.00388    | 0.0082229  |   3.0 |  0.14
Other   |            | 0.3238     |            |       | 11.91

Nlocal:        2776.45 ave        3945 max           0 min
Histogram: 8 4 4 0 4 12 8 0 28 36
Nghost:        3878.73 ave        5428 max         232 min
Histogram: 8 0 8 0 16 0 8 8 16 40
Neighs:        79213.4 ave      115032 max           0 min
Histogram: 8 4 4 0 10 6 8 8 24 32

Total # of neighbors = 8238193
Ave neighs/atom = 28.530440
Neighbor list builds = 0
Dangerous builds = 0
The dot product: -8.88912043931825e-09
The cos of the angle between the force vector and the displacement vector: -0.00131307098532547
The angle: 90.0752334472795
Setting atom values ...
  1 settings made for x
  1 settings made for y
  1 settings made for z
Setting up cg style minimization ...
  Unit style    : metal
  Current step  : 16109
Per MPI rank memory allocation (min/avg/max) = 5.441 | 5.816 | 6.074 Mbytes
Step PotEng KinEng TotEng v_fx v_fy v_fz 
   16109   -1152449.3            0   -1152449.3 -0.064529321  0.056792628 -0.015693954 
   16359   -1152449.3            0   -1152449.3 2.6363349e-05 1.359633e-05 -3.6526541e-05 
Loop time of 2.9404 on 104 procs for 250 steps with 288751 atoms

99.9% CPU use with 104 MPI tasks x 1 OpenMP threads

Minimization stats:
  Stopping criterion = energy tolerance
  Energy initial, next-to-last, final = 
     -1152449.32951223  -1152449.34098734  -1152449.34098734
  Force two-norm initial, final = 0.22831825 0.0001613672
  Force max component initial, final = 0.11582394 3.6526541e-05
  Final line search alpha, max atom move = 1.0000000 3.6526541e-05
  Iterations, force evaluations = 250 500

MPI task timing breakdown:
Section |  min time  |  avg time  |  max time  |%varavg| %total
---------------------------------------------------------------
Pair    | 0.75931    | 2.1055     | 2.7689     |  39.4 | 71.61
Neigh   | 1.026e-05  | 0.0029597  | 0.0042827  |   2.2 |  0.10
Comm    | 0.049907   | 0.47911    | 1.4379     |  58.0 | 16.29
Output  | 0          | 0          | 0          |   0.0 |  0.00
Modify  | 3.0724e-05 | 0.0041469  | 0.0087741  |   3.1 |  0.14
Other   |            | 0.3486     |            |       | 11.86

Nlocal:        2776.45 ave        3947 max           0 min
Histogram: 8 4 4 0 4 12 8 0 28 36
Nghost:        3878.72 ave        5428 max         232 min
Histogram: 8 0 8 0 16 0 8 8 16 40
Neighs:        79213.4 ave      115066 max           0 min
Histogram: 8 4 4 0 10 6 8 8 24 32

Total # of neighbors = 8238194
Ave neighs/atom = 28.530443
Neighbor list builds = 1
Dangerous builds = 0
The dot product: -7.90813691815015e-07
The cos of the angle between the force vector and the displacement vector: -0.0168065300403013
The angle: 90.9629885774021
Setting atom values ...
  1 settings made for x
  1 settings made for y
  1 settings made for z
Setting up cg style minimization ...
  Unit style    : metal
  Current step  : 16359
Per MPI rank memory allocation (min/avg/max) = 5.441 | 5.816 | 6.074 Mbytes
Step PotEng KinEng TotEng v_fx v_fy v_fz 
   16359   -1152449.4            0   -1152449.4 -0.036252151  0.049357911 -0.032086267 
   16484   -1152449.4            0   -1152449.4 -2.6468451e-05 -7.1977132e-06 2.7686206e-05 
Loop time of 1.46134 on 104 procs for 125 steps with 288751 atoms

99.9% CPU use with 104 MPI tasks x 1 OpenMP threads

Minimization stats:
  Stopping criterion = energy tolerance
  Energy initial, next-to-last, final = 
     -1152449.35377052  -1152449.35683785  -1152449.35683785
  Force two-norm initial, final = 0.23856064 0.00021225781
  Force max component initial, final = 0.11121586 3.0822206e-05
  Final line search alpha, max atom move = 1.0000000 3.0822206e-05
  Iterations, force evaluations = 125 250

MPI task timing breakdown:
Section |  min time  |  avg time  |  max time  |%varavg| %total
---------------------------------------------------------------
Pair    | 0.37884    | 1.0491     | 1.3734     |  27.7 | 71.79
Neigh   | 0          | 0          | 0          |   0.0 |  0.00
Comm    | 0.021051   | 0.23651    | 0.71463    |  40.6 | 16.18
Output  | 0          | 0          | 0          |   0.0 |  0.00
Modify  | 1.5818e-05 | 0.002077   | 0.0044217  |   2.2 |  0.14
Other   |            | 0.1737     |            |       | 11.88

Nlocal:        2776.45 ave        3945 max           0 min
Histogram: 8 4 4 0 4 12 8 0 28 36
Nghost:        3878.59 ave        5429 max         232 min
Histogram: 8 0 8 0 16 0 8 8 16 40
Neighs:        79213.5 ave      115020 max           0 min
Histogram: 8 4 4 0 10 6 8 8 24 32

Total # of neighbors = 8238207
Ave neighs/atom = 28.530488
Neighbor list builds = 0
Dangerous builds = 0
The dot product: 3.18780318414985e-08
The cos of the angle between the force vector and the displacement vector: 0.000817947066188013
The angle: 89.9531350800165
Setting atom values ...
  1 settings made for x
  1 settings made for y
  1 settings made for z
Setting up cg style minimization ...
  Unit style    : metal
  Current step  : 16484
Per MPI rank memory allocation (min/avg/max) = 5.441 | 5.816 | 6.074 Mbytes
Step PotEng KinEng TotEng v_fx v_fy v_fz 
   16484   -1152449.4            0   -1152449.4 -0.046749295  0.056407823   -0.0331977 
   16699   -1152449.4            0   -1152449.4 -3.0383298e-06 1.9264969e-07 1.9631039e-06 
Loop time of 2.55347 on 104 procs for 215 steps with 288751 atoms

99.9% CPU use with 104 MPI tasks x 1 OpenMP threads

Minimization stats:
  Stopping criterion = energy tolerance
  Energy initial, next-to-last, final = 
     -1152449.36848315  -1152449.37167116  -1152449.37167116
  Force two-norm initial, final = 0.24492087 2.0259373e-05
  Force max component initial, final = 0.11305084 3.0383298e-06
  Final line search alpha, max atom move = 1.0000000 3.0383298e-06
  Iterations, force evaluations = 215 430

MPI task timing breakdown:
Section |  min time  |  avg time  |  max time  |%varavg| %total
---------------------------------------------------------------
Pair    | 0.64943    | 1.8101     | 2.4144     |  36.5 | 70.89
Neigh   | 0          | 0          | 0          |   0.0 |  0.00
Comm    | 0.039183   | 0.41667    | 1.2324     |  53.0 | 16.32
Output  | 0          | 0          | 0          |   0.0 |  0.00
Modify  | 2.619e-05  | 0.003569   | 0.0075851  |   2.9 |  0.14
Other   |            | 0.3232     |            |       | 12.66

Nlocal:        2776.45 ave        3945 max           0 min
Histogram: 8 4 4 0 4 12 8 0 28 36
Nghost:        3878.55 ave        5429 max         232 min
Histogram: 8 0 8 0 16 0 8 8 16 40
Neighs:        79213.5 ave      115021 max           0 min
Histogram: 8 4 4 0 10 6 8 8 24 32

Total # of neighbors = 8238207
Ave neighs/atom = 28.530488
Neighbor list builds = 0
Dangerous builds = 0
The dot product: 1.16631343545133e-08
The cos of the angle between the force vector and the displacement vector: 0.0032196572986912
The angle: 89.8155269065915
Setting atom values ...
  1 settings made for x
  1 settings made for y
  1 settings made for z
Setting up cg style minimization ...
  Unit style    : metal
  Current step  : 16699
Per MPI rank memory allocation (min/avg/max) = 5.441 | 5.816 | 6.074 Mbytes
Step PotEng KinEng TotEng v_fx v_fy v_fz 
   16699   -1152449.4            0   -1152449.4 -0.047935933  0.057432485 -0.034166143 
   16842   -1152449.4            0   -1152449.4 2.2728408e-05 -4.1139608e-06 -1.1350373e-05 
Loop time of 1.67066 on 104 procs for 143 steps with 288751 atoms

99.9% CPU use with 104 MPI tasks x 1 OpenMP threads

Minimization stats:
  Stopping criterion = energy tolerance
  Energy initial, next-to-last, final = 
     -1152449.38259072  -1152449.38621161  -1152449.38621161
  Force two-norm initial, final = 0.25090872 0.0001266636
  Force max component initial, final = 0.11391351 2.6735709e-05
  Final line search alpha, max atom move = 1.0000000 2.6735709e-05
  Iterations, force evaluations = 143 286

MPI task timing breakdown:
Section |  min time  |  avg time  |  max time  |%varavg| %total
---------------------------------------------------------------
Pair    | 0.4326     | 1.2014     | 1.5771     |  29.7 | 71.91
Neigh   | 0          | 0          | 0          |   0.0 |  0.00
Comm    | 0.025748   | 0.27181    | 0.8069     |  43.3 | 16.27
Output  | 0          | 0          | 0          |   0.0 |  0.00
Modify  | 1.788e-05  | 0.0023722  | 0.0050617  |   2.3 |  0.14
Other   |            | 0.195      |            |       | 11.67

Nlocal:        2776.45 ave        3945 max           0 min
Histogram: 8 4 4 0 4 12 8 0 28 36
Nghost:        3878.59 ave        5429 max         232 min
Histogram: 8 0 8 0 16 0 8 8 16 40
Neighs:        79213.5 ave      115021 max           0 min
Histogram: 8 4 4 0 10 6 8 8 24 32

Total # of neighbors = 8238207
Ave neighs/atom = 28.530488
Neighbor list builds = 0
Dangerous builds = 0
The dot product: -1.48197935851101e-07
The cos of the angle between the force vector and the displacement vector: -0.00575841442743015
The angle: 90.3299346667985
Setting atom values ...
  1 settings made for x
  1 settings made for y
  1 settings made for z
Setting up cg style minimization ...
  Unit style    : metal
  Current step  : 16842
Per MPI rank memory allocation (min/avg/max) = 5.441 | 5.816 | 6.074 Mbytes
Step PotEng KinEng TotEng v_fx v_fy v_fz 
   16842   -1152449.4            0   -1152449.4 -0.049843523  0.058315081 -0.034750904 
   16988   -1152449.4            0   -1152449.4 3.0570592e-05 -1.1661034e-05 -7.5803585e-06 
Loop time of 1.71528 on 104 procs for 146 steps with 288751 atoms

99.9% CPU use with 104 MPI tasks x 1 OpenMP threads

Minimization stats:
  Stopping criterion = energy tolerance
  Energy initial, next-to-last, final = 
     -1152449.39791296   -1152449.4020424   -1152449.4020424
  Force two-norm initial, final = 0.25863859 0.00017229572
  Force max component initial, final = 0.11354776 3.0570592e-05
  Final line search alpha, max atom move = 1.0000000 3.0570592e-05
  Iterations, force evaluations = 146 292

MPI task timing breakdown:
Section |  min time  |  avg time  |  max time  |%varavg| %total
---------------------------------------------------------------
Pair    | 0.441      | 1.2288     | 1.6205     |  30.1 | 71.64
Neigh   | 0          | 0          | 0          |   0.0 |  0.00
Comm    | 0.028101   | 0.27817    | 0.8255     |  43.7 | 16.22
Output  | 0          | 0          | 0          |   0.0 |  0.00
Modify  | 1.8026e-05 | 0.0024215  | 0.0051214  |   2.4 |  0.14
Other   |            | 0.2059     |            |       | 12.00

Nlocal:        2776.45 ave        3945 max           0 min
Histogram: 8 4 4 0 4 12 8 0 28 36
Nghost:        3878.59 ave        5429 max         232 min
Histogram: 8 0 8 0 16 0 8 8 16 40
Neighs:        79213.5 ave      115021 max           0 min
Histogram: 8 4 4 0 10 6 8 8 24 32

Total # of neighbors = 8238206
Ave neighs/atom = 28.530485
Neighbor list builds = 0
Dangerous builds = 0
The dot product: -2.19323786197918e-07
The cos of the angle between the force vector and the displacement vector: -0.00653026306056839
The angle: 90.3741591718079
