LAMMPS (29 Oct 2020)
OMP_NUM_THREADS environment is not set. Defaulting to 1 thread. (../comm.cpp:94)
  using 1 OpenMP thread(s) per MPI task
OMP_NUM_THREADS environment is not set. Defaulting to 1 thread. (../comm.cpp:94)
  using 1 OpenMP thread(s) per MPI task
Reading data file ...
  orthogonal box = (-122.39241 -121.13707 -37.090501) to (122.39241 121.13707 37.090501)
  13 by 4 by 2 MPI processor grid
  reading atoms ...
  288751 atoms
  read_data CPU = 0.373 seconds
199981 atoms in group inner
88770 atoms in group outer
1 atoms in group carbon
Neighbor list info ...
  update every 1 steps, delay 0 steps, check yes
  max neighbors/atom: 2000, page size: 100000
  master list distance cutoff = 5.6
  ghost atom cutoff = 5.6
  binsize = 2.8, bins = 88 87 27
  1 neighbor lists, perpetual/occasional/extra = 1 0 0
  (1) pair eam/alloy, perpetual
      attributes: half, newton on
      pair build: half/bin/atomonly/newton
      stencil: half/bin/3d/newton
      bin: standard
Setting up cg style minimization ...
  Unit style    : metal
  Current step  : 0
Per MPI rank memory allocation (min/avg/max) = 5.441 | 5.816 | 6.074 Mbytes
Step v_fx v_fy v_fz PotEng KinEng TotEng 
       0    1.4758208   -1.1120033    2.4871044   -1152447.8            0   -1152447.8 
     205 1.5701323e-06 -2.5965578e-06 4.2397552e-06   -1152449.5            0   -1152449.5 
Loop time of 2.4849 on 104 procs for 205 steps with 288751 atoms

99.8% CPU use with 104 MPI tasks x 1 OpenMP threads

Minimization stats:
  Stopping criterion = energy tolerance
  Energy initial, next-to-last, final = 
     -1152447.78930168  -1152449.45035272  -1152449.45035272
  Force two-norm initial, final = 10.123863 1.5613796e-05
  Force max component initial, final = 4.5268643 4.5576978e-06
  Final line search alpha, max atom move = 1.0000000 4.5576978e-06
  Iterations, force evaluations = 205 409

MPI task timing breakdown:
Section |  min time  |  avg time  |  max time  |%varavg| %total
---------------------------------------------------------------
Pair    | 0.62968    | 1.7296     | 2.2615     |  35.4 | 69.61
Neigh   | 3.3043e-05 | 0.0087384  | 0.012714   |   3.9 |  0.35
Comm    | 0.041879   | 0.40232    | 1.1704     |  50.2 | 16.19
Output  | 0          | 0          | 0          |   0.0 |  0.00
Modify  | 2.4863e-05 | 0.0022121  | 0.0056445  |   2.9 |  0.09
Other   |            | 0.342      |            |       | 13.76

Nlocal:        2776.45 ave        3961 max           0 min
Histogram: 8 4 4 0 6 10 8 2 28 34
Nghost:        3879.01 ave        5424 max         232 min
Histogram: 8 0 8 0 16 0 8 8 16 40
Neighs:        79213.5 ave      115455 max           0 min
Histogram: 8 4 4 0 10 6 8 8 24 32

Total # of neighbors = 8238207
Ave neighs/atom = 28.530488
Neighbor list builds = 3
Dangerous builds = 1
Setting atom values ...
  1 settings made for x
  1 settings made for y
  1 settings made for z
Setting up cg style minimization ...
  Unit style    : metal
  Current step  : 205
Per MPI rank memory allocation (min/avg/max) = 5.441 | 5.816 | 6.074 Mbytes
Step PotEng KinEng TotEng v_fx v_fy v_fz 
     205   -1152449.4            0   -1152449.4  0.019849505  0.010639242 -0.022135009 
     360   -1152449.5            0   -1152449.5 -7.5245053e-06 6.1931019e-06 1.7138926e-05 
Loop time of 1.83615 on 104 procs for 155 steps with 288751 atoms

99.9% CPU use with 104 MPI tasks x 1 OpenMP threads

Minimization stats:
  Stopping criterion = energy tolerance
  Energy initial, next-to-last, final = 
     -1152449.44954618  -1152449.45010984  -1152449.45010984
  Force two-norm initial, final = 0.11489951 0.00016404811
  Force max component initial, final = 0.05117029 2.6443076e-05
  Final line search alpha, max atom move = 1.0000000 2.6443076e-05
  Iterations, force evaluations = 155 310

MPI task timing breakdown:
Section |  min time  |  avg time  |  max time  |%varavg| %total
---------------------------------------------------------------
Pair    | 0.46966    | 1.3129     | 1.7089     |  30.9 | 71.50
Neigh   | 0          | 0          | 0          |   0.0 |  0.00
Comm    | 0.033347   | 0.29923    | 0.88973    |  44.9 | 16.30
Output  | 0          | 0          | 0          |   0.0 |  0.00
Modify  | 1.9916e-05 | 0.0025689  | 0.0054624  |   2.4 |  0.14
Other   |            | 0.2215     |            |       | 12.06

Nlocal:        2776.45 ave        3961 max           0 min
Histogram: 8 4 4 0 6 10 8 2 28 34
Nghost:        3879.01 ave        5424 max         232 min
Histogram: 8 0 8 0 16 0 8 8 16 40
Neighs:        79213.4 ave      115457 max           0 min
Histogram: 8 4 4 0 10 6 8 8 24 32

Total # of neighbors = 8238197
Ave neighs/atom = 28.530454
Neighbor list builds = 0
Dangerous builds = 0
Setting atom values ...
  1 settings made for x
  1 settings made for y
  1 settings made for z
Setting up cg style minimization ...
  Unit style    : metal
  Current step  : 360
Per MPI rank memory allocation (min/avg/max) = 5.441 | 5.816 | 6.074 Mbytes
Step PotEng KinEng TotEng v_fx v_fy v_fz 
     360   -1152449.4            0   -1152449.4  0.032185481  0.026214538 -0.046556707 
     572   -1152449.4            0   -1152449.4 -2.0274338e-06 -5.5927911e-06 -1.371184e-06 
Loop time of 2.50196 on 104 procs for 212 steps with 288751 atoms

99.9% CPU use with 104 MPI tasks x 1 OpenMP threads

Minimization stats:
  Stopping criterion = energy tolerance
  Energy initial, next-to-last, final = 
      -1152449.4467837  -1152449.44853592  -1152449.44853592
  Force two-norm initial, final = 0.20362728 3.8854812e-05
  Force max component initial, final = 0.088246693 5.5927911e-06
  Final line search alpha, max atom move = 1.0000000 5.5927911e-06
  Iterations, force evaluations = 212 424

MPI task timing breakdown:
Section |  min time  |  avg time  |  max time  |%varavg| %total
---------------------------------------------------------------
Pair    | 0.63815    | 1.7821     | 2.3263     |  36.2 | 71.23
Neigh   | 0          | 0          | 0          |   0.0 |  0.00
Comm    | 0.042519   | 0.40702    | 1.2208     |  52.3 | 16.27
Output  | 0          | 0          | 0          |   0.0 |  0.00
Modify  | 2.6335e-05 | 0.0035076  | 0.007469   |   2.8 |  0.14
Other   |            | 0.3094     |            |       | 12.37

Nlocal:        2776.45 ave        3961 max           0 min
Histogram: 8 4 4 0 6 10 8 2 28 34
Nghost:        3879.01 ave        5424 max         232 min
Histogram: 8 0 8 0 16 0 8 8 16 40
Neighs:        79213.5 ave      115457 max           0 min
Histogram: 8 4 4 0 10 6 8 8 24 32

Total # of neighbors = 8238200
Ave neighs/atom = 28.530464
Neighbor list builds = 0
Dangerous builds = 0
The dot product: -3.09957605420636e-09
Setting atom values ...
  1 settings made for x
  1 settings made for y
  1 settings made for z
Setting up cg style minimization ...
  Unit style    : metal
  Current step  : 572
Per MPI rank memory allocation (min/avg/max) = 5.441 | 5.816 | 6.074 Mbytes
Step PotEng KinEng TotEng v_fx v_fy v_fz 
     572   -1152449.4            0   -1152449.4  0.026982925  0.031508147 -0.048553431 
     828   -1152449.4            0   -1152449.4 -2.186638e-08 5.1283739e-08 1.4972867e-07 
Loop time of 2.99468 on 104 procs for 256 steps with 288751 atoms

99.9% CPU use with 104 MPI tasks x 1 OpenMP threads

Minimization stats:
  Stopping criterion = energy tolerance
  Energy initial, next-to-last, final = 
     -1152449.44385223  -1152449.44552426  -1152449.44552426
  Force two-norm initial, final = 0.19831212 5.6735997e-06
  Force max component initial, final = 0.082548431 7.0534861e-07
  Final line search alpha, max atom move = 1.0000000 7.0534861e-07
  Iterations, force evaluations = 256 512

MPI task timing breakdown:
Section |  min time  |  avg time  |  max time  |%varavg| %total
---------------------------------------------------------------
Pair    | 0.77025    | 2.1625     | 2.7962     |  39.8 | 72.21
Neigh   | 0          | 0          | 0          |   0.0 |  0.00
Comm    | 0.045762   | 0.49322    | 1.4966     |  58.4 | 16.47
Output  | 0          | 0          | 0          |   0.0 |  0.00
Modify  | 3.2814e-05 | 0.0042328  | 0.0090223  |   3.1 |  0.14
Other   |            | 0.3347     |            |       | 11.18

Nlocal:        2776.45 ave        3961 max           0 min
Histogram: 8 4 4 0 6 10 8 2 28 34
Nghost:        3879.01 ave        5424 max         232 min
Histogram: 8 0 8 0 16 0 8 8 16 40
Neighs:        79213.5 ave      115457 max           0 min
Histogram: 8 4 4 0 10 6 8 8 24 32

Total # of neighbors = 8238201
Ave neighs/atom = 28.530467
Neighbor list builds = 0
Dangerous builds = 0
The dot product: -5.40935553776713e-10
Setting atom values ...
  1 settings made for x
  1 settings made for y
  1 settings made for z
Setting up cg style minimization ...
  Unit style    : metal
  Current step  : 828
Per MPI rank memory allocation (min/avg/max) = 5.441 | 5.816 | 6.074 Mbytes
Step PotEng KinEng TotEng v_fx v_fy v_fz 
     828   -1152449.4            0   -1152449.4  0.022062955  0.034482274 -0.045855255 
     947   -1152449.4            0   -1152449.4 -2.4241997e-06 8.2667468e-06 2.7850905e-05 
Loop time of 1.39673 on 104 procs for 119 steps with 288751 atoms

99.9% CPU use with 104 MPI tasks x 1 OpenMP threads

Minimization stats:
  Stopping criterion = energy tolerance
  Energy initial, next-to-last, final = 
     -1152449.43942625  -1152449.44103387  -1152449.44103387
  Force two-norm initial, final = 0.1932303 0.00014772309
  Force max component initial, final = 0.077688985 2.7850905e-05
  Final line search alpha, max atom move = 1.0000000 2.7850905e-05
  Iterations, force evaluations = 119 238

MPI task timing breakdown:
Section |  min time  |  avg time  |  max time  |%varavg| %total
---------------------------------------------------------------
Pair    | 0.35836    | 1          | 1.3026     |  27.1 | 71.60
Neigh   | 0          | 0          | 0          |   0.0 |  0.00
Comm    | 0.022374   | 0.22645    | 0.67435    |  39.2 | 16.21
Output  | 0          | 0          | 0          |   0.0 |  0.00
Modify  | 1.5258e-05 | 0.0019681  | 0.0041853  |   2.1 |  0.14
Other   |            | 0.1683     |            |       | 12.05

Nlocal:        2776.45 ave        3961 max           0 min
Histogram: 8 4 4 0 6 10 8 2 28 34
Nghost:        3879.01 ave        5424 max         232 min
Histogram: 8 0 8 0 16 0 8 8 16 40
Neighs:        79213.5 ave      115457 max           0 min
Histogram: 8 4 4 0 10 6 8 8 24 32

Total # of neighbors = 8238202
Ave neighs/atom = 28.530471
Neighbor list builds = 0
Dangerous builds = 0
The dot product: -9.22403584554958e-08
Setting atom values ...
  1 settings made for x
  1 settings made for y
  1 settings made for z
Setting up cg style minimization ...
  Unit style    : metal
  Current step  : 947
Per MPI rank memory allocation (min/avg/max) = 5.441 | 5.816 | 6.074 Mbytes
Step PotEng KinEng TotEng v_fx v_fy v_fz 
     947   -1152449.4            0   -1152449.4  0.018631154  0.036452799 -0.042199295 
    1000   -1152449.4            0   -1152449.4 -0.00011556569 -0.00022642067 0.00026098809 
    1068   -1152449.4            0   -1152449.4 -1.1418547e-05 -2.4709576e-05 2.0015772e-05 
Loop time of 1.41061 on 104 procs for 121 steps with 288751 atoms

99.9% CPU use with 104 MPI tasks x 1 OpenMP threads

Minimization stats:
  Stopping criterion = energy tolerance
  Energy initial, next-to-last, final = 
      -1152449.4334631  -1152449.43502184  -1152449.43502184
  Force two-norm initial, final = 0.18910514 0.00013983763
  Force max component initial, final = 0.073809985 2.5428061e-05
  Final line search alpha, max atom move = 1.0000000 2.5428061e-05
  Iterations, force evaluations = 121 242

MPI task timing breakdown:
Section |  min time  |  avg time  |  max time  |%varavg| %total
---------------------------------------------------------------
Pair    | 0.36522    | 1.0215     | 1.323      |  27.3 | 72.42
Neigh   | 0          | 0          | 0          |   0.0 |  0.00
Comm    | 0.021359   | 0.22986    | 0.69248    |  40.3 | 16.29
Output  | 0.00015761 | 0.00016568 | 0.00026966 |   0.0 |  0.01
Modify  | 1.5112e-05 | 0.0020013  | 0.0042497  |   2.1 |  0.14
Other   |            | 0.1571     |            |       | 11.14

Nlocal:        2776.45 ave        3961 max           0 min
Histogram: 8 4 4 0 6 10 8 2 28 34
Nghost:        3879.01 ave        5424 max         232 min
Histogram: 8 0 8 0 16 0 8 8 16 40
Neighs:        79213.5 ave      115457 max           0 min
Histogram: 8 4 4 0 10 6 8 8 24 32

Total # of neighbors = 8238202
Ave neighs/atom = 28.530471
Neighbor list builds = 0
Dangerous builds = 0
The dot product: -1.16009387708601e-07
Setting atom values ...
  1 settings made for x
  1 settings made for y
  1 settings made for z
Setting up cg style minimization ...
  Unit style    : metal
  Current step  : 1068
Per MPI rank memory allocation (min/avg/max) = 5.441 | 5.816 | 6.074 Mbytes
Step PotEng KinEng TotEng v_fx v_fy v_fz 
    1068   -1152449.4            0   -1152449.4  0.016513326  0.038405549 -0.039351351 
    1214   -1152449.4            0   -1152449.4 -9.7326722e-07 -6.7849023e-06 -1.2065398e-05 
Loop time of 1.69686 on 104 procs for 146 steps with 288751 atoms

99.9% CPU use with 104 MPI tasks x 1 OpenMP threads

Minimization stats:
  Stopping criterion = energy tolerance
  Energy initial, next-to-last, final = 
     -1152449.42593477  -1152449.42745722  -1152449.42745722
  Force two-norm initial, final = 0.18600107 6.4814764e-05
  Force max component initial, final = 0.07069649 1.2065398e-05
  Final line search alpha, max atom move = 1.0000000 1.2065398e-05
  Iterations, force evaluations = 146 292

MPI task timing breakdown:
Section |  min time  |  avg time  |  max time  |%varavg| %total
---------------------------------------------------------------
Pair    | 0.4396     | 1.2254     | 1.5971     |  29.9 | 72.22
Neigh   | 0          | 0          | 0          |   0.0 |  0.00
Comm    | 0.026755   | 0.27577    | 0.8306     |  43.8 | 16.25
Output  | 0          | 0          | 0          |   0.0 |  0.00
Modify  | 1.7792e-05 | 0.0024169  | 0.0051178  |   2.3 |  0.14
Other   |            | 0.1932     |            |       | 11.39

Nlocal:        2776.45 ave        3961 max           0 min
Histogram: 8 4 4 0 6 10 8 2 28 34
Nghost:        3879.01 ave        5424 max         232 min
Histogram: 8 0 8 0 16 0 8 8 16 40
Neighs:        79213.5 ave      115457 max           0 min
Histogram: 8 4 4 0 10 6 8 8 24 32

Total # of neighbors = 8238201
Ave neighs/atom = 28.530467
Neighbor list builds = 0
Dangerous builds = 0
The dot product: 2.08131208962126e-08
Setting atom values ...
  1 settings made for x
  1 settings made for y
  1 settings made for z
Setting up cg style minimization ...
  Unit style    : metal
  Current step  : 1214
Per MPI rank memory allocation (min/avg/max) = 5.441 | 5.816 | 6.074 Mbytes
Step PotEng KinEng TotEng v_fx v_fy v_fz 
    1214   -1152449.4            0   -1152449.4  0.015338371  0.041029615 -0.037995542 
    1349   -1152449.4            0   -1152449.4 5.1242035e-07 6.8428478e-06 2.1100501e-05 
Loop time of 1.57751 on 104 procs for 135 steps with 288751 atoms

99.9% CPU use with 104 MPI tasks x 1 OpenMP threads

Minimization stats:
  Stopping criterion = energy tolerance
  Energy initial, next-to-last, final = 
     -1152449.41682549  -1152449.41832272  -1152449.41832272
  Force two-norm initial, final = 0.18383929 0.00010424691
  Force max component initial, final = 0.06802953 2.1100501e-05
  Final line search alpha, max atom move = 1.0000000 2.1100501e-05
  Iterations, force evaluations = 135 270

MPI task timing breakdown:
Section |  min time  |  avg time  |  max time  |%varavg| %total
---------------------------------------------------------------
Pair    | 0.40669    | 1.1388     | 1.4804     |  28.8 | 72.19
Neigh   | 0          | 0          | 0          |   0.0 |  0.00
Comm    | 0.0253     | 0.25532    | 0.77149    |  42.4 | 16.18
Output  | 0          | 0          | 0          |   0.0 |  0.00
Modify  | 1.6808e-05 | 0.0022324  | 0.004746   |   2.2 |  0.14
Other   |            | 0.1812     |            |       | 11.49

Nlocal:        2776.45 ave        3961 max           0 min
Histogram: 8 4 4 0 6 10 8 2 28 34
Nghost:        3879.01 ave        5424 max         232 min
Histogram: 8 0 8 0 16 0 8 8 16 40
Neighs:        79213.5 ave      115457 max           0 min
Histogram: 8 4 4 0 10 6 8 8 24 32

Total # of neighbors = 8238204
Ave neighs/atom = 28.530478
Neighbor list builds = 0
Dangerous builds = 0
The dot product: -4.03169504561897e-08
Setting atom values ...
  1 settings made for x
  1 settings made for y
  1 settings made for z
Setting up cg style minimization ...
  Unit style    : metal
  Current step  : 1349
Per MPI rank memory allocation (min/avg/max) = 5.441 | 5.816 | 6.074 Mbytes
Step PotEng KinEng TotEng v_fx v_fy v_fz 
    1349   -1152449.4            0   -1152449.4  0.014707954  0.044589314  -0.03825169 
    1471   -1152449.4            0   -1152449.4 -7.0101228e-06 -2.7698259e-05 -1.6443307e-05 
Loop time of 1.43238 on 104 procs for 122 steps with 288751 atoms

99.9% CPU use with 104 MPI tasks x 1 OpenMP threads

Minimization stats:
  Stopping criterion = energy tolerance
  Energy initial, next-to-last, final = 
     -1152449.40613623  -1152449.40761709  -1152449.40761709
  Force two-norm initial, final = 0.18240645 0.00016748094
  Force max component initial, final = 0.065390669 2.9831624e-05
  Final line search alpha, max atom move = 1.0000000 2.9831624e-05
  Iterations, force evaluations = 122 244

MPI task timing breakdown:
Section |  min time  |  avg time  |  max time  |%varavg| %total
---------------------------------------------------------------
Pair    | 0.37012    | 1.0267     | 1.3355     |  27.3 | 71.68
Neigh   | 0          | 0          | 0          |   0.0 |  0.00
Comm    | 0.021608   | 0.23231    | 0.69198    |  39.8 | 16.22
Output  | 0          | 0          | 0          |   0.0 |  0.00
Modify  | 1.4799e-05 | 0.0020192  | 0.0042929  |   2.1 |  0.14
Other   |            | 0.1713     |            |       | 11.96

Nlocal:        2776.45 ave        3961 max           0 min
Histogram: 8 4 4 0 6 10 8 2 28 34
Nghost:        3879.01 ave        5424 max         232 min
Histogram: 8 0 8 0 16 0 8 8 16 40
Neighs:        79213.5 ave      115457 max           0 min
Histogram: 8 4 4 0 10 6 8 8 24 32

Total # of neighbors = 8238200
Ave neighs/atom = 28.530464
Neighbor list builds = 0
Dangerous builds = 0
The dot product: -4.34942866487491e-08
Setting atom values ...
  1 settings made for x
  1 settings made for y
  1 settings made for z
Setting up cg style minimization ...
  Unit style    : metal
  Current step  : 1471
Per MPI rank memory allocation (min/avg/max) = 5.441 | 5.816 | 6.074 Mbytes
Step PotEng KinEng TotEng v_fx v_fy v_fz 
    1471   -1152449.4            0   -1152449.4  0.014348474  0.049479206 -0.040336005 
    1604   -1152449.4            0   -1152449.4 -6.7154828e-06 -2.3779746e-05 1.4045289e-05 
Loop time of 1.55444 on 104 procs for 133 steps with 288751 atoms

99.9% CPU use with 104 MPI tasks x 1 OpenMP threads

Minimization stats:
  Stopping criterion = energy tolerance
  Energy initial, next-to-last, final = 
     -1152449.39388461  -1152449.39536221  -1152449.39536221
  Force two-norm initial, final = 0.18178728 0.000145065
  Force max component initial, final = 0.062523716 2.7709604e-05
  Final line search alpha, max atom move = 1.0000000 2.7709604e-05
  Iterations, force evaluations = 133 266

MPI task timing breakdown:
Section |  min time  |  avg time  |  max time  |%varavg| %total
---------------------------------------------------------------
Pair    | 0.40086    | 1.1242     | 1.4607     |  28.7 | 72.32
Neigh   | 0          | 0          | 0          |   0.0 |  0.00
Comm    | 0.02348    | 0.25521    | 0.77294    |  41.8 | 16.42
Output  | 0          | 0          | 0          |   0.0 |  0.00
Modify  | 1.7096e-05 | 0.002204   | 0.0046662  |   2.2 |  0.14
Other   |            | 0.1728     |            |       | 11.12

Nlocal:        2776.45 ave        3961 max           0 min
Histogram: 8 4 4 0 6 10 8 2 28 34
Nghost:        3879.01 ave        5424 max         232 min
Histogram: 8 0 8 0 16 0 8 8 16 40
Neighs:        79213.4 ave      115457 max           0 min
Histogram: 8 4 4 0 10 6 8 8 24 32

Total # of neighbors = 8238198
Ave neighs/atom = 28.530457
Neighbor list builds = 0
Dangerous builds = 0
The dot product: -1.48339590972087e-07
Setting atom values ...
  1 settings made for x
  1 settings made for y
  1 settings made for z
Setting up cg style minimization ...
  Unit style    : metal
  Current step  : 1604
Per MPI rank memory allocation (min/avg/max) = 5.441 | 5.816 | 6.074 Mbytes
Step PotEng KinEng TotEng v_fx v_fy v_fz 
    1604   -1152449.4            0   -1152449.4  0.014193424  0.057214789 -0.045497069 
    1793   -1152449.4            0   -1152449.4 -2.9778223e-06 -1.2009215e-05 9.457013e-06 
Loop time of 2.21026 on 104 procs for 189 steps with 288751 atoms

99.9% CPU use with 104 MPI tasks x 1 OpenMP threads

Minimization stats:
  Stopping criterion = energy tolerance
  Energy initial, next-to-last, final = 
     -1152449.38012334  -1152449.38163773  -1152449.38163773
  Force two-norm initial, final = 0.18275545 6.9063040e-05
  Force max component initial, final = 0.059363313 1.2183427e-05
  Final line search alpha, max atom move = 1.0000000 1.2183427e-05
  Iterations, force evaluations = 189 378

MPI task timing breakdown:
Section |  min time  |  avg time  |  max time  |%varavg| %total
---------------------------------------------------------------
Pair    | 0.56804    | 1.5895     | 2.0768     |  34.2 | 71.91
Neigh   | 0          | 0          | 0          |   0.0 |  0.00
Comm    | 0.037761   | 0.36106    | 1.0791     |  49.7 | 16.34
Output  | 0          | 0          | 0          |   0.0 |  0.00
Modify  | 2.3372e-05 | 0.0031249  | 0.0066141  |   2.6 |  0.14
Other   |            | 0.2566     |            |       | 11.61

Nlocal:        2776.45 ave        3961 max           0 min
Histogram: 8 4 4 0 6 10 8 2 28 34
Nghost:        3879.01 ave        5424 max         232 min
Histogram: 8 0 8 0 16 0 8 8 16 40
Neighs:        79213.4 ave      115447 max           0 min
Histogram: 8 4 4 0 10 6 8 8 24 32

Total # of neighbors = 8238197
Ave neighs/atom = 28.530454
Neighbor list builds = 0
Dangerous builds = 0
The dot product: -1.26168974695895e-07
Setting atom values ...
  1 settings made for x
  1 settings made for y
  1 settings made for z
Setting up cg style minimization ...
  Unit style    : metal
  Current step  : 1793
Per MPI rank memory allocation (min/avg/max) = 5.441 | 5.816 | 6.074 Mbytes
Step PotEng KinEng TotEng v_fx v_fy v_fz 
    1793   -1152449.4            0   -1152449.4  0.013930159  0.072588467 -0.058936581 
    1931   -1152449.4            0   -1152449.4 2.0836955e-06 1.1330739e-05 -1.7144357e-05 
Loop time of 1.6173 on 104 procs for 138 steps with 288751 atoms

99.9% CPU use with 104 MPI tasks x 1 OpenMP threads

Minimization stats:
  Stopping criterion = energy tolerance
  Energy initial, next-to-last, final = 
     -1152449.36505717  -1152449.36702892  -1152449.36702892
  Force two-norm initial, final = 0.189166 0.00021442616
  Force max component initial, final = 0.072588467 1.7373226e-05
  Final line search alpha, max atom move = 1.0000000 1.7373226e-05
  Iterations, force evaluations = 138 276

MPI task timing breakdown:
Section |  min time  |  avg time  |  max time  |%varavg| %total
---------------------------------------------------------------
Pair    | 0.41549    | 1.1648     | 1.5171     |  29.2 | 72.02
Neigh   | 0          | 0          | 0          |   0.0 |  0.00
Comm    | 0.026699   | 0.26468    | 0.79328    |  42.7 | 16.37
Output  | 0          | 0          | 0          |   0.0 |  0.00
Modify  | 1.7683e-05 | 0.0022853  | 0.0049603  |   2.3 |  0.14
Other   |            | 0.1855     |            |       | 11.47

Nlocal:        2776.45 ave        3961 max           0 min
Histogram: 8 4 4 0 6 10 8 3 27 34
Nghost:        3879.01 ave        5424 max         232 min
Histogram: 8 0 8 0 16 0 8 8 16 40
Neighs:        79213.4 ave      115445 max           0 min
Histogram: 8 4 4 0 10 6 8 8 24 32

Total # of neighbors = 8238193
Ave neighs/atom = 28.530440
Neighbor list builds = 0
Dangerous builds = 0
The dot product: 5.48297538723049e-07
Setting atom values ...
  1 settings made for x
  1 settings made for y
  1 settings made for z
Setting up cg style minimization ...
  Unit style    : metal
  Current step  : 1931
Per MPI rank memory allocation (min/avg/max) = 5.441 | 5.816 | 6.074 Mbytes
Step PotEng KinEng TotEng v_fx v_fy v_fz 
    1931   -1152449.4            0   -1152449.4 0.0025572874   0.13036786  -0.11062775 
    2000   -1152449.4            0   -1152449.4 3.4106416e-05 -0.00033496944 0.00070569696 
    2160   -1152449.4            0   -1152449.4 9.0973508e-07 4.5971136e-06  4.59026e-06 
Loop time of 2.66292 on 104 procs for 229 steps with 288751 atoms

99.9% CPU use with 104 MPI tasks x 1 OpenMP threads

Minimization stats:
  Stopping criterion = energy tolerance
  Energy initial, next-to-last, final = 
     -1152449.35063426  -1152449.35793968  -1152449.35793968
  Force two-norm initial, final = 0.23257043 5.5257828e-05
  Force max component initial, final = 0.13036786 1.1287213e-05
  Final line search alpha, max atom move = 1.0000000 1.1287213e-05
  Iterations, force evaluations = 229 458

MPI task timing breakdown:
Section |  min time  |  avg time  |  max time  |%varavg| %total
---------------------------------------------------------------
Pair    | 0.69131    | 1.9189     | 2.4993     |  37.4 | 72.06
Neigh   | 1.0198e-05 | 0.0029406  | 0.0042585  |   2.2 |  0.11
Comm    | 0.04414    | 0.43271    | 1.2979     |  54.8 | 16.25
Output  | 0.0002621  | 0.0002707  | 0.00039852 |   0.0 |  0.01
Modify  | 2.7374e-05 | 0.0037807  | 0.0080075  |   2.9 |  0.14
Other   |            | 0.3043     |            |       | 11.43

Nlocal:        2776.45 ave        3961 max           0 min
Histogram: 8 4 4 0 6 10 8 3 27 34
Nghost:        3879.01 ave        5424 max         232 min
Histogram: 8 0 8 0 16 0 8 8 16 40
Neighs:        79213.4 ave      115445 max           0 min
Histogram: 8 4 4 0 10 6 8 8 24 32

Total # of neighbors = 8238191
Ave neighs/atom = 28.530433
Neighbor list builds = 1
Dangerous builds = 0
The dot product: 7.20783019345802e-08
Setting atom values ...
  1 settings made for x
  1 settings made for y
  1 settings made for z
Setting up cg style minimization ...
  Unit style    : metal
  Current step  : 2160
Per MPI rank memory allocation (min/avg/max) = 5.441 | 5.816 | 6.074 Mbytes
Step PotEng KinEng TotEng v_fx v_fy v_fz 
    2160   -1152449.3            0   -1152449.3 -0.058473594   0.18305716  -0.11661324 
    2437   -1152449.4            0   -1152449.4 3.9196122e-07 2.1455734e-07 1.5364596e-06 
Loop time of 3.21094 on 104 procs for 277 steps with 288751 atoms

99.9% CPU use with 104 MPI tasks x 1 OpenMP threads

Minimization stats:
  Stopping criterion = energy tolerance
  Energy initial, next-to-last, final = 
     -1152449.34486526  -1152449.35150927  -1152449.35150927
  Force two-norm initial, final = 0.2651123 6.2993154e-06
  Force max component initial, final = 0.18305716 1.5364596e-06
  Final line search alpha, max atom move = 1.0000000 1.5364596e-06
  Iterations, force evaluations = 277 554

MPI task timing breakdown:
Section |  min time  |  avg time  |  max time  |%varavg| %total
---------------------------------------------------------------
Pair    | 0.82983    | 2.3292     | 3.022      |  41.2 | 72.54
Neigh   | 0          | 0          | 0          |   0.0 |  0.00
Comm    | 0.049033   | 0.52388    | 1.5919     |  60.7 | 16.32
Output  | 0          | 0          | 0          |   0.0 |  0.00
Modify  | 3.4265e-05 | 0.0045794  | 0.0096914  |   3.2 |  0.14
Other   |            | 0.3533     |            |       | 11.00

Nlocal:        2776.45 ave        3961 max           0 min
Histogram: 8 4 4 0 6 10 8 4 26 34
Nghost:        3879.01 ave        5426 max         232 min
Histogram: 8 0 8 0 16 0 8 8 16 40
Neighs:        79213.4 ave      115445 max           0 min
Histogram: 8 4 4 0 10 6 8 8 24 32

Total # of neighbors = 8238196
Ave neighs/atom = 28.530450
Neighbor list builds = 0
Dangerous builds = 0
The dot product: -3.53005509619574e-08
Setting atom values ...
  1 settings made for x
  1 settings made for y
  1 settings made for z
Setting up cg style minimization ...
  Unit style    : metal
  Current step  : 2437
Per MPI rank memory allocation (min/avg/max) = 5.441 | 5.816 | 6.074 Mbytes
Step PotEng KinEng TotEng v_fx v_fy v_fz 
    2437   -1152449.3            0   -1152449.3 -0.058430657   0.10641991 -0.056250503 
    2638   -1152449.3            0   -1152449.3 6.5142254e-06 -6.7764582e-06 1.0592202e-05 
Loop time of 2.3476 on 104 procs for 201 steps with 288751 atoms

99.9% CPU use with 104 MPI tasks x 1 OpenMP threads

Minimization stats:
  Stopping criterion = energy tolerance
  Energy initial, next-to-last, final = 
     -1152449.33982324  -1152449.34336611  -1152449.34336611
  Force two-norm initial, final = 0.19161476 4.3704566e-05
  Force max component initial, final = 0.10641991 1.0592202e-05
  Final line search alpha, max atom move = 1.0000000 1.0592202e-05
  Iterations, force evaluations = 201 402

MPI task timing breakdown:
Section |  min time  |  avg time  |  max time  |%varavg| %total
---------------------------------------------------------------
Pair    | 0.60624    | 1.6874     | 2.198      |  35.1 | 71.88
Neigh   | 0          | 0          | 0          |   0.0 |  0.00
Comm    | 0.037203   | 0.38193    | 1.1403     |  51.1 | 16.27
Output  | 0          | 0          | 0          |   0.0 |  0.00
Modify  | 2.4431e-05 | 0.0033223  | 0.0076084  |   2.7 |  0.14
Other   |            | 0.2749     |            |       | 11.71

Nlocal:        2776.45 ave        3961 max           0 min
Histogram: 8 4 4 0 6 10 8 4 26 34
Nghost:        3879.09 ave        5429 max         232 min
Histogram: 8 0 8 0 16 0 8 8 16 40
Neighs:        79213.5 ave      115454 max           0 min
Histogram: 8 4 4 0 10 6 8 8 24 32

Total # of neighbors = 8238202
Ave neighs/atom = 28.530471
Neighbor list builds = 0
Dangerous builds = 0
The dot product: -4.49278699012226e-07
Setting atom values ...
  1 settings made for x
  1 settings made for y
  1 settings made for z
Setting up cg style minimization ...
  Unit style    : metal
  Current step  : 2638
Per MPI rank memory allocation (min/avg/max) = 5.441 | 5.816 | 6.074 Mbytes
Step PotEng KinEng TotEng v_fx v_fy v_fz 
    2638   -1152449.3            0   -1152449.3 -0.036891133  0.041468994  -0.03596827 
    2876   -1152449.3            0   -1152449.3 -2.1259453e-05 3.9852587e-06 -3.906092e-05 
Loop time of 2.77258 on 104 procs for 238 steps with 288751 atoms

99.9% CPU use with 104 MPI tasks x 1 OpenMP threads

Minimization stats:
  Stopping criterion = energy tolerance
  Energy initial, next-to-last, final = 
     -1152449.33424379  -1152449.34567951  -1152449.34567951
  Force two-norm initial, final = 0.15990335 0.00015623189
  Force max component initial, final = 0.062464666 3.9060920e-05
  Final line search alpha, max atom move = 1.0000000 3.9060920e-05
  Iterations, force evaluations = 238 476

MPI task timing breakdown:
Section |  min time  |  avg time  |  max time  |%varavg| %total
---------------------------------------------------------------
Pair    | 0.71851    | 2.0032     | 2.6009     |  38.2 | 72.25
Neigh   | 1.0345e-05 | 0.002939   | 0.0042709  |   2.2 |  0.11
Comm    | 0.041893   | 0.45349    | 1.372      |  56.2 | 16.36
Output  | 0          | 0          | 0          |   0.0 |  0.00
Modify  | 2.9227e-05 | 0.0039268  | 0.0083278  |   2.9 |  0.14
Other   |            | 0.309      |            |       | 11.14

Nlocal:        2776.45 ave        3961 max           0 min
Histogram: 8 4 4 0 6 10 8 4 26 34
Nghost:        3879.11 ave        5428 max         232 min
Histogram: 8 0 8 0 16 0 8 8 16 40
Neighs:        79213.5 ave      115445 max           0 min
Histogram: 8 4 4 0 10 6 8 8 24 32

Total # of neighbors = 8238202
Ave neighs/atom = 28.530471
Neighbor list builds = 1
Dangerous builds = 0
The dot product: 1.74639022587438e-06
Setting atom values ...
  1 settings made for x
  1 settings made for y
  1 settings made for z
Setting up cg style minimization ...
  Unit style    : metal
  Current step  : 2876
Per MPI rank memory allocation (min/avg/max) = 5.441 | 5.816 | 6.074 Mbytes
Step PotEng KinEng TotEng v_fx v_fy v_fz 
    2876   -1152449.3            0   -1152449.3  0.022718038 0.0038483684  0.036394231 
    3000   -1152449.3            0   -1152449.3 -3.9778407e-06 6.3000655e-06 -1.0771469e-06 
    3038   -1152449.3            0   -1152449.3 1.7691245e-06 9.3909347e-07 3.3196411e-06 
Loop time of 1.89295 on 104 procs for 162 steps with 288751 atoms

99.9% CPU use with 104 MPI tasks x 1 OpenMP threads

Minimization stats:
  Stopping criterion = energy tolerance
  Energy initial, next-to-last, final = 
     -1152449.34777816  -1152449.34876246  -1152449.34876246
  Force two-norm initial, final = 0.13139971 3.6073813e-05
  Force max component initial, final = 0.048235969 6.9879849e-06
  Final line search alpha, max atom move = 1.0000000 6.9879849e-06
  Iterations, force evaluations = 162 324

MPI task timing breakdown:
Section |  min time  |  avg time  |  max time  |%varavg| %total
---------------------------------------------------------------
Pair    | 0.48631    | 1.3577     | 1.7708     |  31.5 | 71.72
Neigh   | 0          | 0          | 0          |   0.0 |  0.00
Comm    | 0.033767   | 0.30755    | 0.93136    |  46.0 | 16.25
Output  | 0.00023369 | 0.00023661 | 0.00036823 |   0.0 |  0.01
Modify  | 2.0515e-05 | 0.0026791  | 0.00581    |   2.4 |  0.14
Other   |            | 0.2248     |            |       | 11.87

Nlocal:        2776.45 ave        3961 max           0 min
Histogram: 8 4 4 0 6 10 8 2 28 34
Nghost:        3879.01 ave        5424 max         232 min
Histogram: 8 0 8 0 16 0 8 8 16 40
Neighs:        79213.4 ave      115465 max           0 min
Histogram: 8 4 4 0 10 6 8 8 24 32

Total # of neighbors = 8238191
Ave neighs/atom = 28.530433
Neighbor list builds = 0
Dangerous builds = 0
The dot product: 1.4527341054447e-08
Setting atom values ...
  1 settings made for x
  1 settings made for y
  1 settings made for z
Setting up cg style minimization ...
  Unit style    : metal
  Current step  : 3038
Per MPI rank memory allocation (min/avg/max) = 5.441 | 5.816 | 6.074 Mbytes
Step PotEng KinEng TotEng v_fx v_fy v_fz 
    3038   -1152449.3            0   -1152449.3  0.009105578 0.0064929068  0.018808195 
    3210   -1152449.4            0   -1152449.4 1.9289049e-05 1.8159037e-05 4.3242196e-05 
Loop time of 2.03788 on 104 procs for 172 steps with 288751 atoms

99.9% CPU use with 104 MPI tasks x 1 OpenMP threads

Minimization stats:
  Stopping criterion = energy tolerance
  Energy initial, next-to-last, final = 
      -1152449.3498826  -1152449.35078654  -1152449.35078654
  Force two-norm initial, final = 0.12513403 0.00017593779
  Force max component initial, final = 0.047531015 4.3242196e-05
  Final line search alpha, max atom move = 1.0000000 4.3242196e-05
  Iterations, force evaluations = 172 344

MPI task timing breakdown:
Section |  min time  |  avg time  |  max time  |%varavg| %total
---------------------------------------------------------------
Pair    | 0.516      | 1.4561     | 1.8923     |  32.7 | 71.45
Neigh   | 0          | 0          | 0          |   0.0 |  0.00
Comm    | 0.030592   | 0.33319    | 1.001      |  47.3 | 16.35
Output  | 0          | 0          | 0          |   0.0 |  0.00
Modify  | 2.0884e-05 | 0.0028445  | 0.0060228  |   2.5 |  0.14
Other   |            | 0.2457     |            |       | 12.06

Nlocal:        2776.45 ave        3961 max           0 min
Histogram: 8 4 4 0 6 10 8 2 28 34
Nghost:        3879.01 ave        5424 max         232 min
Histogram: 8 0 8 0 16 0 8 8 16 40
Neighs:        79213.4 ave      115465 max           0 min
Histogram: 8 4 4 0 10 6 8 8 24 32

Total # of neighbors = 8238193
Ave neighs/atom = 28.530440
Neighbor list builds = 0
Dangerous builds = 0
The dot product: 1.02122948818081e-08
Setting atom values ...
  1 settings made for x
  1 settings made for y
  1 settings made for z
Setting up cg style minimization ...
  Unit style    : metal
  Current step  : 3210
Per MPI rank memory allocation (min/avg/max) = 5.441 | 5.816 | 6.074 Mbytes
Step PotEng KinEng TotEng v_fx v_fy v_fz 
    3210   -1152449.4            0   -1152449.4  0.010056157 0.0065243614   0.02029689 
    3446   -1152449.4            0   -1152449.4 1.2613002e-06 -1.7045578e-06 5.9384818e-07 
Loop time of 2.75209 on 104 procs for 236 steps with 288751 atoms

99.9% CPU use with 104 MPI tasks x 1 OpenMP threads

Minimization stats:
  Stopping criterion = energy tolerance
  Energy initial, next-to-last, final = 
     -1152449.35066607  -1152449.35156744  -1152449.35156744
  Force two-norm initial, final = 0.12557325 1.6338503e-05
  Force max component initial, final = 0.046975141 2.9407362e-06
  Final line search alpha, max atom move = 1.0000000 2.9407362e-06
  Iterations, force evaluations = 236 472

MPI task timing breakdown:
Section |  min time  |  avg time  |  max time  |%varavg| %total
---------------------------------------------------------------
Pair    | 0.7025     | 1.979      | 2.5882     |  38.2 | 71.91
Neigh   | 0          | 0          | 0          |   0.0 |  0.00
Comm    | 0.041486   | 0.44854    | 1.3428     |  55.7 | 16.30
Output  | 0          | 0          | 0          |   0.0 |  0.00
Modify  | 2.8834e-05 | 0.003893   | 0.008267   |   2.9 |  0.14
Other   |            | 0.3206     |            |       | 11.65

Nlocal:        2776.45 ave        3961 max           0 min
Histogram: 8 4 4 0 6 10 8 2 28 34
Nghost:        3879.01 ave        5424 max         232 min
Histogram: 8 0 8 0 16 0 8 8 16 40
Neighs:        79213.4 ave      115465 max           0 min
Histogram: 8 4 4 0 10 6 8 8 24 32

Total # of neighbors = 8238189
Ave neighs/atom = 28.530426
Neighbor list builds = 0
Dangerous builds = 0
The dot product: -4.85808522464626e-11
Setting up cg style minimization ...
  Unit style    : metal
  Current step  : 3446
Per MPI rank memory allocation (min/avg/max) = 5.441 | 5.816 | 6.074 Mbytes
Step PotEng KinEng TotEng v_fx v_fy v_fz 
    3446   -1152449.4            0   -1152449.4 0.0048161431 0.0024548955 -0.0031746193 
    3495   -1152449.4            0   -1152449.4 -8.6401478e-06 2.1143331e-05 9.326661e-06 
Loop time of 0.576572 on 104 procs for 49 steps with 288751 atoms

99.9% CPU use with 104 MPI tasks x 1 OpenMP threads

Minimization stats:
  Stopping criterion = energy tolerance
  Energy initial, next-to-last, final = 
     -1152449.35156744   -1152449.3515733   -1152449.3515733
  Force two-norm initial, final = 0.0062689884 0.0001311712
  Force max component initial, final = 0.0048161431 2.1143331e-05
  Final line search alpha, max atom move = 1.0000000 2.1143331e-05
  Iterations, force evaluations = 49 98

MPI task timing breakdown:
Section |  min time  |  avg time  |  max time  |%varavg| %total
---------------------------------------------------------------
Pair    | 0.14948    | 0.41739    | 0.54009    |  17.4 | 72.39
Neigh   | 0          | 0          | 0          |   0.0 |  0.00
Comm    | 0.008932   | 0.094533   | 0.28808    |  25.6 | 16.40
Output  | 0          | 0          | 0          |   0.0 |  0.00
Modify  | 5.6776e-06 | 0.00053271 | 0.0013549  |   0.0 |  0.09
Other   |            | 0.06412    |            |       | 11.12

Nlocal:        2776.45 ave        3961 max           0 min
Histogram: 8 4 4 0 6 10 8 2 28 34
Nghost:        3879.01 ave        5424 max         232 min
Histogram: 8 0 8 0 16 0 8 8 16 40
Neighs:        79213.4 ave      115465 max           0 min
Histogram: 8 4 4 0 10 6 8 8 24 32

Total # of neighbors = 8238191
Ave neighs/atom = 28.530433
Neighbor list builds = 0
Dangerous builds = 0
OMP_NUM_THREADS environment is not set. Defaulting to 1 thread. (../comm.cpp:94)
  using 1 OpenMP thread(s) per MPI task
Reading data file ...
  orthogonal box = (-122.39241 -121.13707 -37.090501) to (122.39241 121.13707 37.090501)
  13 by 4 by 2 MPI processor grid
  reading atoms ...
  288751 atoms
  read_data CPU = 0.348 seconds
199981 atoms in group inner
88770 atoms in group outer
1 atoms in group carbon
Neighbor list info ...
  update every 1 steps, delay 0 steps, check yes
  max neighbors/atom: 2000, page size: 100000
  master list distance cutoff = 5.6
  ghost atom cutoff = 5.6
  binsize = 2.8, bins = 88 87 27
  1 neighbor lists, perpetual/occasional/extra = 1 0 0
  (1) pair eam/alloy, perpetual
      attributes: half, newton on
      pair build: half/bin/atomonly/newton
      stencil: half/bin/3d/newton
      bin: standard
Setting up cg style minimization ...
  Unit style    : metal
  Current step  : 0
Per MPI rank memory allocation (min/avg/max) = 5.441 | 5.816 | 6.074 Mbytes
Step v_fx v_fy v_fz PotEng KinEng TotEng 
       0    1.4758208   -1.1120033    2.4871044   -1152447.8            0   -1152447.8 
     205 1.5701323e-06 -2.5965578e-06 4.2397552e-06   -1152449.5            0   -1152449.5 
Loop time of 2.39635 on 104 procs for 205 steps with 288751 atoms

99.9% CPU use with 104 MPI tasks x 1 OpenMP threads

Minimization stats:
  Stopping criterion = energy tolerance
  Energy initial, next-to-last, final = 
     -1152447.78930168  -1152449.45035272  -1152449.45035272
  Force two-norm initial, final = 10.123863 1.5613796e-05
  Force max component initial, final = 4.5268643 4.5576978e-06
  Final line search alpha, max atom move = 1.0000000 4.5576978e-06
  Iterations, force evaluations = 205 409

MPI task timing breakdown:
Section |  min time  |  avg time  |  max time  |%varavg| %total
---------------------------------------------------------------
Pair    | 0.62595    | 1.7223     | 2.244      |  35.2 | 71.87
Neigh   | 3.2075e-05 | 0.0087775  | 0.012716   |   3.9 |  0.37
Comm    | 0.036797   | 0.39003    | 1.1713     |  52.0 | 16.28
Output  | 0          | 0          | 0          |   0.0 |  0.00
Modify  | 2.3994e-05 | 0.0022052  | 0.005631   |   2.9 |  0.09
Other   |            | 0.2731     |            |       | 11.39

Nlocal:        2776.45 ave        3961 max           0 min
Histogram: 8 4 4 0 6 10 8 2 28 34
Nghost:        3879.01 ave        5424 max         232 min
Histogram: 8 0 8 0 16 0 8 8 16 40
Neighs:        79213.5 ave      115455 max           0 min
Histogram: 8 4 4 0 10 6 8 8 24 32

Total # of neighbors = 8238207
Ave neighs/atom = 28.530488
Neighbor list builds = 3
Dangerous builds = 1
Setting atom values ...
  1 settings made for x
  1 settings made for y
  1 settings made for z
Setting up cg style minimization ...
  Unit style    : metal
  Current step  : 205
Per MPI rank memory allocation (min/avg/max) = 5.441 | 5.816 | 6.074 Mbytes
Step PotEng KinEng TotEng v_fx v_fy v_fz 
     205   -1152449.4            0   -1152449.4 -0.028111071 -0.0030597048 -0.026791463 
     395   -1152449.4            0   -1152449.4 -8.4846831e-06 5.4960357e-06 -1.3784284e-05 
Loop time of 2.2025 on 104 procs for 190 steps with 288751 atoms

99.9% CPU use with 104 MPI tasks x 1 OpenMP threads

Minimization stats:
  Stopping criterion = energy tolerance
  Energy initial, next-to-last, final = 
     -1152449.44484457  -1152449.44843214  -1152449.44843214
  Force two-norm initial, final = 0.27555154 0.00018798582
  Force max component initial, final = 0.15632728 2.5080811e-05
  Final line search alpha, max atom move = 1.0000000 2.5080811e-05
  Iterations, force evaluations = 190 380

MPI task timing breakdown:
Section |  min time  |  avg time  |  max time  |%varavg| %total
---------------------------------------------------------------
Pair    | 0.57116    | 1.5928     | 2.0787     |  34.0 | 72.32
Neigh   | 0          | 0          | 0          |   0.0 |  0.00
Comm    | 0.033887   | 0.35723    | 1.078      |  50.3 | 16.22
Output  | 0          | 0          | 0          |   0.0 |  0.00
Modify  | 2.3238e-05 | 0.0031327  | 0.0066527  |   2.6 |  0.14
Other   |            | 0.2493     |            |       | 11.32

Nlocal:        2776.45 ave        3961 max           0 min
Histogram: 8 4 4 0 6 10 8 2 28 34
Nghost:        3879.01 ave        5424 max         232 min
Histogram: 8 0 8 0 16 0 8 8 16 40
Neighs:        79213.4 ave      115457 max           0 min
Histogram: 8 4 4 0 10 6 8 8 24 32

Total # of neighbors = 8238197
Ave neighs/atom = 28.530454
Neighbor list builds = 0
Dangerous builds = 0
Setting atom values ...
  1 settings made for x
  1 settings made for y
  1 settings made for z
Setting up cg style minimization ...
  Unit style    : metal
  Current step  : 395
Per MPI rank memory allocation (min/avg/max) = 5.441 | 5.816 | 6.074 Mbytes
Step PotEng KinEng TotEng v_fx v_fy v_fz 
     395   -1152449.4            0   -1152449.4   -0.0216129 -0.0039357749 -0.023343678 
     577   -1152449.4            0   -1152449.4 -5.8345676e-06 6.4485929e-06 -1.438881e-05 
Loop time of 2.13218 on 104 procs for 182 steps with 288751 atoms

99.9% CPU use with 104 MPI tasks x 1 OpenMP threads

Minimization stats:
  Stopping criterion = energy tolerance
  Energy initial, next-to-last, final = 
     -1152449.44325029  -1152449.44493283  -1152449.44493283
  Force two-norm initial, final = 0.18809519 0.00013345179
  Force max component initial, final = 0.1054341 1.4388810e-05
  Final line search alpha, max atom move = 1.0000000 1.4388810e-05
  Iterations, force evaluations = 182 364

MPI task timing breakdown:
Section |  min time  |  avg time  |  max time  |%varavg| %total
---------------------------------------------------------------
Pair    | 0.5475     | 1.5342     | 2.0046     |  33.6 | 71.96
Neigh   | 0          | 0          | 0          |   0.0 |  0.00
Comm    | 0.031106   | 0.34888    | 1.0508     |  49.0 | 16.36
Output  | 0          | 0          | 0          |   0.0 |  0.00
Modify  | 2.1961e-05 | 0.0030071  | 0.0064055  |   2.6 |  0.14
Other   |            | 0.246      |            |       | 11.54

Nlocal:        2776.45 ave        3961 max           0 min
Histogram: 8 4 4 0 6 10 8 2 28 34
Nghost:        3879.01 ave        5424 max         232 min
Histogram: 8 0 8 0 16 0 8 8 16 40
Neighs:        79213.4 ave      115465 max           0 min
Histogram: 8 4 4 0 10 6 8 8 24 32

Total # of neighbors = 8238197
Ave neighs/atom = 28.530454
Neighbor list builds = 0
Dangerous builds = 0
The dot product: 6.19590421283368e-08
Setting atom values ...
  1 settings made for x
  1 settings made for y
  1 settings made for z
Setting up cg style minimization ...
  Unit style    : metal
  Current step  : 577
Per MPI rank memory allocation (min/avg/max) = 5.441 | 5.816 | 6.074 Mbytes
Step PotEng KinEng TotEng v_fx v_fy v_fz 
     577   -1152449.4            0   -1152449.4  -0.02504687 -0.0088538952 -0.026840405 
     791   -1152449.4            0   -1152449.4 -2.7659592e-06 3.5327682e-06 -8.7550994e-06 
Loop time of 2.5127 on 104 procs for 214 steps with 288751 atoms

99.9% CPU use with 104 MPI tasks x 1 OpenMP threads

Minimization stats:
  Stopping criterion = energy tolerance
  Energy initial, next-to-last, final = 
     -1152449.43823809  -1152449.43993376  -1152449.43993376
  Force two-norm initial, final = 0.18882422 3.5312845e-05
  Force max component initial, final = 0.10406601 8.7550994e-06
  Final line search alpha, max atom move = 1.0000000 8.7550994e-06
  Iterations, force evaluations = 214 428

MPI task timing breakdown:
Section |  min time  |  avg time  |  max time  |%varavg| %total
---------------------------------------------------------------
Pair    | 0.64765    | 1.8003     | 2.3408     |  36.2 | 71.65
Neigh   | 0          | 0          | 0          |   0.0 |  0.00
Comm    | 0.037125   | 0.40612    | 1.2288     |  53.2 | 16.16
Output  | 0          | 0          | 0          |   0.0 |  0.00
Modify  | 2.781e-05  | 0.0035349  | 0.0074873  |   2.8 |  0.14
Other   |            | 0.3028     |            |       | 12.05

Nlocal:        2776.45 ave        3961 max           0 min
Histogram: 8 4 4 0 6 10 8 2 28 34
Nghost:        3879.01 ave        5424 max         232 min
Histogram: 8 0 8 0 16 0 8 8 16 40
Neighs:        79213.4 ave      115465 max           0 min
Histogram: 8 4 4 0 10 6 8 8 24 32

Total # of neighbors = 8238197
Ave neighs/atom = 28.530454
Neighbor list builds = 0
Dangerous builds = 0
The dot product: 4.93668842204776e-08
Setting atom values ...
  1 settings made for x
  1 settings made for y
  1 settings made for z
Setting up cg style minimization ...
  Unit style    : metal
  Current step  : 791
Per MPI rank memory allocation (min/avg/max) = 5.441 | 5.816 | 6.074 Mbytes
Step PotEng KinEng TotEng v_fx v_fy v_fz 
     791   -1152449.4            0   -1152449.4 -0.025938848 -0.013777264 -0.027603913 
     935   -1152449.4            0   -1152449.4 -3.372416e-06 3.8573011e-06 -1.2249307e-05 
Loop time of 1.70176 on 104 procs for 144 steps with 288751 atoms

99.9% CPU use with 104 MPI tasks x 1 OpenMP threads

Minimization stats:
  Stopping criterion = energy tolerance
  Energy initial, next-to-last, final = 
     -1152449.43199828  -1152449.43369816  -1152449.43369816
  Force two-norm initial, final = 0.18855494 5.0267224e-05
  Force max component initial, final = 0.1013934 1.2249307e-05
  Final line search alpha, max atom move = 1.0000000 1.2249307e-05
  Iterations, force evaluations = 144 288

MPI task timing breakdown:
Section |  min time  |  avg time  |  max time  |%varavg| %total
---------------------------------------------------------------
Pair    | 0.43965    | 1.2157     | 1.5818     |  29.6 | 71.44
Neigh   | 0          | 0          | 0          |   0.0 |  0.00
Comm    | 0.027866   | 0.27686    | 0.83353    |  43.4 | 16.27
Output  | 0          | 0          | 0          |   0.0 |  0.00
Modify  | 1.8409e-05 | 0.0023831  | 0.0050571  |   2.3 |  0.14
Other   |            | 0.2068     |            |       | 12.15

Nlocal:        2776.45 ave        3961 max           0 min
Histogram: 8 4 4 0 6 10 8 2 28 34
Nghost:        3879.03 ave        5424 max         232 min
Histogram: 8 0 8 0 16 0 8 8 16 40
Neighs:        79213.4 ave      115465 max           0 min
Histogram: 8 4 4 0 10 6 8 8 24 32

Total # of neighbors = 8238197
Ave neighs/atom = 28.530454
Neighbor list builds = 0
Dangerous builds = 0
The dot product: 7.24220984826085e-08
Setting atom values ...
  1 settings made for x
  1 settings made for y
  1 settings made for z
Setting up cg style minimization ...
  Unit style    : metal
  Current step  : 935
Per MPI rank memory allocation (min/avg/max) = 5.441 | 5.816 | 6.074 Mbytes
Step PotEng KinEng TotEng v_fx v_fy v_fz 
     935   -1152449.4            0   -1152449.4 -0.023261604 -0.015939293 -0.024662427 
    1000   -1152449.4            0   -1152449.4 5.6714265e-05 -9.3711074e-05 0.00030012044 
    1036   -1152449.4            0   -1152449.4 2.4650386e-06 -4.852919e-06 1.4456206e-05 
Loop time of 1.17235 on 104 procs for 101 steps with 288751 atoms

99.9% CPU use with 104 MPI tasks x 1 OpenMP threads

Minimization stats:
  Stopping criterion = energy tolerance
  Energy initial, next-to-last, final = 
     -1152449.42453169  -1152449.42620152  -1152449.42620152
  Force two-norm initial, final = 0.18676294 0.00023957945
  Force max component initial, final = 0.098309361 1.4456206e-05
  Final line search alpha, max atom move = 1.0000000 1.4456206e-05
  Iterations, force evaluations = 101 202

MPI task timing breakdown:
Section |  min time  |  avg time  |  max time  |%varavg| %total
---------------------------------------------------------------
Pair    | 0.30399    | 0.85046    | 1.1051     |  24.9 | 72.54
Neigh   | 0          | 0          | 0          |   0.0 |  0.00
Comm    | 0.017801   | 0.19125    | 0.58103    |  36.8 | 16.31
Output  | 0.00022054 | 0.00022986 | 0.00034246 |   0.0 |  0.02
Modify  | 1.2712e-05 | 0.0016753  | 0.0035685  |   1.9 |  0.14
Other   |            | 0.1287     |            |       | 10.98

Nlocal:        2776.45 ave        3961 max           0 min
Histogram: 8 4 4 0 6 10 8 2 28 34
Nghost:        3879.03 ave        5424 max         232 min
Histogram: 8 0 8 0 16 0 8 8 16 40
Neighs:        79213.5 ave      115465 max           0 min
Histogram: 8 4 4 0 10 6 8 8 24 32

Total # of neighbors = 8238199
Ave neighs/atom = 28.530461
Neighbor list builds = 0
Dangerous builds = 0
The dot product: -7.68357862372718e-08
Setting atom values ...
  1 settings made for x
  1 settings made for y
  1 settings made for z
Setting up cg style minimization ...
  Unit style    : metal
  Current step  : 1036
Per MPI rank memory allocation (min/avg/max) = 5.441 | 5.816 | 6.074 Mbytes
Step PotEng KinEng TotEng v_fx v_fy v_fz 
    1036   -1152449.4            0   -1152449.4   -0.0188482 -0.015184597 -0.019271673 
    1150   -1152449.4            0   -1152449.4 -1.4217224e-06 -3.5089045e-06 3.5375508e-06 
Loop time of 1.32722 on 104 procs for 114 steps with 288751 atoms

99.9% CPU use with 104 MPI tasks x 1 OpenMP threads

Minimization stats:
  Stopping criterion = energy tolerance
  Energy initial, next-to-last, final = 
     -1152449.41575267  -1152449.41738553  -1152449.41738553
  Force two-norm initial, final = 0.1845585 0.00013513153
  Force max component initial, final = 0.095802812 6.0523868e-06
  Final line search alpha, max atom move = 1.0000000 6.0523868e-06
  Iterations, force evaluations = 114 228

MPI task timing breakdown:
Section |  min time  |  avg time  |  max time  |%varavg| %total
---------------------------------------------------------------
Pair    | 0.34285    | 0.96137    | 1.2491     |  26.5 | 72.44
Neigh   | 0          | 0          | 0          |   0.0 |  0.00
Comm    | 0.019592   | 0.21805    | 0.66165    |  39.1 | 16.43
Output  | 0          | 0          | 0          |   0.0 |  0.00
Modify  | 1.4199e-05 | 0.0018866  | 0.0039848  |   2.0 |  0.14
Other   |            | 0.1459     |            |       | 10.99

Nlocal:        2776.45 ave        3961 max           0 min
Histogram: 8 4 4 0 6 10 8 2 28 34
Nghost:        3879.03 ave        5424 max         232 min
Histogram: 8 0 8 0 16 0 8 8 16 40
Neighs:        79213.5 ave      115465 max           0 min
Histogram: 8 4 4 0 10 6 8 8 24 32

Total # of neighbors = 8238199
Ave neighs/atom = 28.530461
Neighbor list builds = 0
Dangerous builds = 0
The dot product: -1.77874547624251e-08
Setting atom values ...
  1 settings made for x
  1 settings made for y
  1 settings made for z
Setting up cg style minimization ...
  Unit style    : metal
  Current step  : 1150
Per MPI rank memory allocation (min/avg/max) = 5.441 | 5.816 | 6.074 Mbytes
Step PotEng KinEng TotEng v_fx v_fy v_fz 
    1150   -1152449.4            0   -1152449.4 -0.013852402 -0.012215215 -0.013197373 
    1282   -1152449.4            0   -1152449.4 9.6887888e-07 -3.8387247e-06 1.225302e-05 
Loop time of 1.54193 on 104 procs for 132 steps with 288751 atoms

99.9% CPU use with 104 MPI tasks x 1 OpenMP threads

Minimization stats:
  Stopping criterion = energy tolerance
  Energy initial, next-to-last, final = 
     -1152449.40559389   -1152449.4072087   -1152449.4072087
  Force two-norm initial, final = 0.18263847 6.7543543e-05
  Force max component initial, final = 0.094337889 1.4870677e-05
  Final line search alpha, max atom move = 1.0000000 1.4870677e-05
  Iterations, force evaluations = 132 264

MPI task timing breakdown:
Section |  min time  |  avg time  |  max time  |%varavg| %total
---------------------------------------------------------------
Pair    | 0.39648    | 1.1085     | 1.4527     |  28.5 | 71.89
Neigh   | 0          | 0          | 0          |   0.0 |  0.00
Comm    | 0.02446    | 0.25086    | 0.75111    |  41.5 | 16.27
Output  | 0          | 0          | 0          |   0.0 |  0.00
Modify  | 1.6325e-05 | 0.0021819  | 0.0046255  |   2.2 |  0.14
Other   |            | 0.1804     |            |       | 11.70

Nlocal:        2776.45 ave        3961 max           0 min
Histogram: 8 4 4 0 6 10 8 2 28 34
Nghost:        3879.03 ave        5424 max         232 min
Histogram: 8 0 8 0 16 0 8 8 16 40
Neighs:        79213.5 ave      115465 max           0 min
Histogram: 8 4 4 0 10 6 8 8 24 32

Total # of neighbors = 8238200
Ave neighs/atom = 28.530464
Neighbor list builds = 0
Dangerous builds = 0
The dot product: -4.33818795899635e-08
Setting atom values ...
  1 settings made for x
  1 settings made for y
  1 settings made for z
Setting up cg style minimization ...
  Unit style    : metal
  Current step  : 1282
Per MPI rank memory allocation (min/avg/max) = 5.441 | 5.816 | 6.074 Mbytes
Step PotEng KinEng TotEng v_fx v_fy v_fz 
    1282   -1152449.4            0   -1152449.4 -0.0079873268 -0.0071973775 -0.0071140453 
    1432   -1152449.4            0   -1152449.4 2.1336378e-06 -1.5616714e-06 1.1258812e-05 
Loop time of 1.74795 on 104 procs for 150 steps with 288751 atoms

99.9% CPU use with 104 MPI tasks x 1 OpenMP threads

Minimization stats:
  Stopping criterion = energy tolerance
  Energy initial, next-to-last, final = 
     -1152449.39404152  -1152449.39568007  -1152449.39568007
  Force two-norm initial, final = 0.18119368 5.7891907e-05
  Force max component initial, final = 0.093965156 1.1258812e-05
  Final line search alpha, max atom move = 1.0000000 1.1258812e-05
  Iterations, force evaluations = 150 300

MPI task timing breakdown:
Section |  min time  |  avg time  |  max time  |%varavg| %total
---------------------------------------------------------------
Pair    | 0.45098    | 1.2621     | 1.6433     |  30.4 | 72.20
Neigh   | 0          | 0          | 0          |   0.0 |  0.00
Comm    | 0.0255     | 0.28609    | 0.87387    |  45.0 | 16.37
Output  | 0          | 0          | 0          |   0.0 |  0.00
Modify  | 1.8502e-05 | 0.0024801  | 0.0052612  |   2.3 |  0.14
Other   |            | 0.1973     |            |       | 11.29

Nlocal:        2776.45 ave        3961 max           0 min
Histogram: 8 4 4 0 6 10 8 2 28 34
Nghost:        3879.03 ave        5424 max         232 min
Histogram: 8 0 8 0 16 0 8 8 16 40
Neighs:        79213.5 ave      115465 max           0 min
Histogram: 8 4 4 0 10 6 8 8 24 32

Total # of neighbors = 8238207
Ave neighs/atom = 28.530488
Neighbor list builds = 0
Dangerous builds = 0
The dot product: -1.29103105419225e-08
Setting atom values ...
  1 settings made for x
  1 settings made for y
  1 settings made for z
Setting up cg style minimization ...
  Unit style    : metal
  Current step  : 1432
Per MPI rank memory allocation (min/avg/max) = 5.441 | 5.816 | 6.074 Mbytes
Step PotEng KinEng TotEng v_fx v_fy v_fz 
    1432   -1152449.4            0   -1152449.4 0.00020463275 0.00026992295 -9.4602573e-05 
    1571   -1152449.4            0   -1152449.4 -4.1230295e-06 2.8774883e-06 -2.2014532e-05 
Loop time of 1.61661 on 104 procs for 139 steps with 288751 atoms

99.9% CPU use with 104 MPI tasks x 1 OpenMP threads

Minimization stats:
  Stopping criterion = energy tolerance
  Energy initial, next-to-last, final = 
     -1152449.38116733  -1152449.38301312  -1152449.38301312
  Force two-norm initial, final = 0.18030363 0.00010529993
  Force max component initial, final = 0.094731279 2.2014532e-05
  Final line search alpha, max atom move = 1.0000000 2.2014532e-05
  Iterations, force evaluations = 139 278

MPI task timing breakdown:
Section |  min time  |  avg time  |  max time  |%varavg| %total
---------------------------------------------------------------
Pair    | 0.41774    | 1.1673     | 1.5257     |  29.2 | 72.21
Neigh   | 0          | 0          | 0          |   0.0 |  0.00
Comm    | 0.024956   | 0.26237    | 0.79034    |  42.9 | 16.23
Output  | 0          | 0          | 0          |   0.0 |  0.00
Modify  | 1.7049e-05 | 0.0022998  | 0.0048928  |   2.3 |  0.14
Other   |            | 0.1847     |            |       | 11.42

Nlocal:        2776.45 ave        3961 max           0 min
Histogram: 8 4 4 0 6 10 8 2 28 34
Nghost:        3879.03 ave        5424 max         232 min
Histogram: 8 0 8 0 16 0 8 8 16 40
Neighs:        79213.5 ave      115465 max           0 min
Histogram: 8 4 4 0 10 6 8 8 24 32

Total # of neighbors = 8238209
Ave neighs/atom = 28.530495
Neighbor list builds = 0
Dangerous builds = 0
The dot product: -7.55204050718614e-08
Setting atom values ...
  1 settings made for x
  1 settings made for y
  1 settings made for z
Setting up cg style minimization ...
  Unit style    : metal
  Current step  : 1571
Per MPI rank memory allocation (min/avg/max) = 5.441 | 5.816 | 6.074 Mbytes
Step PotEng KinEng TotEng v_fx v_fy v_fz 
    1571   -1152449.4            0   -1152449.4  0.015177014  0.010922641  0.013998679 
    1754   -1152449.4            0   -1152449.4 3.0255049e-07 -1.7236361e-07 1.3830462e-06 
Loop time of 2.14982 on 104 procs for 183 steps with 288751 atoms

99.9% CPU use with 104 MPI tasks x 1 OpenMP threads

Minimization stats:
  Stopping criterion = energy tolerance
  Energy initial, next-to-last, final = 
     -1152449.36740988  -1152449.36942346  -1152449.36942346
  Force two-norm initial, final = 0.18079759 0.00012430154
  Force max component initial, final = 0.097106208 9.0406347e-06
  Final line search alpha, max atom move = 1.0000000 9.0406347e-06
  Iterations, force evaluations = 183 366

MPI task timing breakdown:
Section |  min time  |  avg time  |  max time  |%varavg| %total
---------------------------------------------------------------
Pair    | 0.54907    | 1.5403     | 2.018      |  33.7 | 71.65
Neigh   | 0          | 0          | 0          |   0.0 |  0.00
Comm    | 0.033572   | 0.35139    | 1.0538     |  49.0 | 16.35
Output  | 0          | 0          | 0          |   0.0 |  0.00
Modify  | 2.2471e-05 | 0.0030246  | 0.0064205  |   2.6 |  0.14
Other   |            | 0.2551     |            |       | 11.86

Nlocal:        2776.45 ave        3961 max           0 min
Histogram: 8 4 4 0 6 10 8 2 28 34
Nghost:        3879.03 ave        5424 max         232 min
Histogram: 8 0 8 0 16 0 8 8 16 40
Neighs:        79213.6 ave      115465 max           0 min
Histogram: 8 4 4 0 10 6 8 8 24 32

Total # of neighbors = 8238211
Ave neighs/atom = 28.530502
Neighbor list builds = 0
Dangerous builds = 0
The dot product: 1.0778130908012e-08
Setting atom values ...
  1 settings made for x
  1 settings made for y
  1 settings made for z
Setting up cg style minimization ...
  Unit style    : metal
  Current step  : 1754
Per MPI rank memory allocation (min/avg/max) = 5.441 | 5.816 | 6.074 Mbytes
Step PotEng KinEng TotEng v_fx v_fy v_fz 
    1754   -1152449.4            0   -1152449.4  0.027512018  0.016375329  0.023950185 
    1935   -1152449.4            0   -1152449.4 3.4010292e-06 -1.1136197e-05 3.7656385e-05 
Loop time of 2.12035 on 104 procs for 181 steps with 288751 atoms

99.9% CPU use with 104 MPI tasks x 1 OpenMP threads

Minimization stats:
  Stopping criterion = energy tolerance
  Energy initial, next-to-last, final = 
     -1152449.35281549  -1152449.35497797  -1152449.35497797
  Force two-norm initial, final = 0.18285286 0.00016728475
  Force max component initial, final = 0.10100807 4.8871257e-05
  Final line search alpha, max atom move = 1.0000000 4.8871257e-05
  Iterations, force evaluations = 181 362

MPI task timing breakdown:
Section |  min time  |  avg time  |  max time  |%varavg| %total
---------------------------------------------------------------
Pair    | 0.54432    | 1.5197     | 1.9776     |  33.3 | 71.67
Neigh   | 0          | 0          | 0          |   0.0 |  0.00
Comm    | 0.032289   | 0.34411    | 1.0381     |  48.7 | 16.23
Output  | 0          | 0          | 0          |   0.0 |  0.00
Modify  | 2.2381e-05 | 0.0029933  | 0.0063344  |   2.6 |  0.14
Other   |            | 0.2535     |            |       | 11.96

Nlocal:        2776.45 ave        3961 max           0 min
Histogram: 8 4 4 0 6 10 8 2 28 34
Nghost:        3879.03 ave        5424 max         232 min
Histogram: 8 0 8 0 16 0 8 8 16 40
Neighs:        79213.6 ave      115465 max           0 min
Histogram: 8 4 4 0 10 6 8 8 24 32

Total # of neighbors = 8238210
Ave neighs/atom = 28.530499
Neighbor list builds = 0
Dangerous builds = 0
The dot product: 2.57355178359962e-07
Setting atom values ...
  1 settings made for x
  1 settings made for y
  1 settings made for z
Setting up cg style minimization ...
  Unit style    : metal
  Current step  : 1935
Per MPI rank memory allocation (min/avg/max) = 5.441 | 5.816 | 6.074 Mbytes
Step PotEng KinEng TotEng v_fx v_fy v_fz 
    1935   -1152449.3            0   -1152449.3  0.034294574  0.017469999  0.025815003 
    2000   -1152449.3            0   -1152449.3 2.5879445e-06 1.3607028e-05 -2.8054103e-05 
    2161   -1152449.3            0   -1152449.3 -1.3336785e-06 3.5028213e-08 -2.7481261e-06 
Loop time of 2.63722 on 104 procs for 226 steps with 288751 atoms

99.9% CPU use with 104 MPI tasks x 1 OpenMP threads

Minimization stats:
  Stopping criterion = energy tolerance
  Energy initial, next-to-last, final = 
     -1152449.33729632  -1152449.33941888  -1152449.33941888
  Force two-norm initial, final = 0.1836865 3.4506956e-05
  Force max component initial, final = 0.10537746 8.9188266e-06
  Final line search alpha, max atom move = 1.0000000 8.9188266e-06
  Iterations, force evaluations = 226 452

MPI task timing breakdown:
Section |  min time  |  avg time  |  max time  |%varavg| %total
---------------------------------------------------------------
Pair    | 0.67804    | 1.8999     | 2.4908     |  37.3 | 72.04
Neigh   | 0          | 0          | 0          |   0.0 |  0.00
Comm    | 0.041245   | 0.431      | 1.2946     |  54.6 | 16.34
Output  | 0.00014598 | 0.00015178 | 0.00025917 |   0.0 |  0.01
Modify  | 2.7288e-05 | 0.0037324  | 0.0078966  |   2.9 |  0.14
Other   |            | 0.3025     |            |       | 11.47

Nlocal:        2776.45 ave        3961 max           0 min
Histogram: 8 4 4 0 6 10 8 3 27 34
Nghost:        3879.05 ave        5424 max         232 min
Histogram: 8 0 8 0 16 0 8 8 16 40
Neighs:        79213.5 ave      115469 max           0 min
Histogram: 8 4 4 0 10 6 8 8 24 32

Total # of neighbors = 8238209
Ave neighs/atom = 28.530495
Neighbor list builds = 0
Dangerous builds = 0
The dot product: -3.69084258785794e-08
Setting atom values ...
  1 settings made for x
  1 settings made for y
  1 settings made for z
Setting up cg style minimization ...
  Unit style    : metal
  Current step  : 2161
Per MPI rank memory allocation (min/avg/max) = 5.441 | 5.816 | 6.074 Mbytes
Step PotEng KinEng TotEng v_fx v_fy v_fz 
    2161   -1152449.3            0   -1152449.3  0.036129926  0.016470727  0.022608819 
    2368   -1152449.3            0   -1152449.3 1.3641815e-06 -4.3026761e-07 3.2642253e-06 
Loop time of 2.39916 on 104 procs for 207 steps with 288751 atoms

99.9% CPU use with 104 MPI tasks x 1 OpenMP threads

Minimization stats:
  Stopping criterion = energy tolerance
  Energy initial, next-to-last, final = 
     -1152449.32055847  -1152449.32261123  -1152449.32261123
  Force two-norm initial, final = 0.18292042 8.0101170e-05
  Force max component initial, final = 0.10934026 7.3548431e-06
  Final line search alpha, max atom move = 1.0000000 7.3548431e-06
  Iterations, force evaluations = 207 414

MPI task timing breakdown:
Section |  min time  |  avg time  |  max time  |%varavg| %total
---------------------------------------------------------------
Pair    | 0.62481    | 1.74       | 2.2554     |  35.5 | 72.53
Neigh   | 0          | 0          | 0          |   0.0 |  0.00
Comm    | 0.035955   | 0.3914     | 1.1858     |  52.3 | 16.31
Output  | 0          | 0          | 0          |   0.0 |  0.00
Modify  | 2.4505e-05 | 0.0034204  | 0.0072627  |   2.7 |  0.14
Other   |            | 0.2643     |            |       | 11.02

Nlocal:        2776.45 ave        3961 max           0 min
Histogram: 8 4 4 0 6 10 8 3 27 34
Nghost:        3879.09 ave        5424 max         232 min
Histogram: 8 0 8 0 16 0 8 8 16 40
Neighs:        79213.6 ave      115469 max           0 min
Histogram: 8 4 4 0 10 6 8 8 24 32

Total # of neighbors = 8238212
Ave neighs/atom = 28.530506
Neighbor list builds = 0
Dangerous builds = 0
The dot product: 3.68911136497928e-08
Setting atom values ...
  1 settings made for x
  1 settings made for y
  1 settings made for z
Setting up cg style minimization ...
  Unit style    : metal
  Current step  : 2368
Per MPI rank memory allocation (min/avg/max) = 5.441 | 5.816 | 6.074 Mbytes
Step PotEng KinEng TotEng v_fx v_fy v_fz 
    2368   -1152449.3            0   -1152449.3  0.034782584  0.014158124   0.01903964 
    2648   -1152449.3            0   -1152449.3 7.8594939e-08 1.2686416e-07 -1.6298728e-07 
Loop time of 3.25388 on 104 procs for 280 steps with 288751 atoms

99.9% CPU use with 104 MPI tasks x 1 OpenMP threads

Minimization stats:
  Stopping criterion = energy tolerance
  Energy initial, next-to-last, final = 
     -1152449.30253698  -1152449.30452033  -1152449.30452033
  Force two-norm initial, final = 0.18136324 4.8828814e-06
  Force max component initial, final = 0.11266111 1.1979290e-06
  Final line search alpha, max atom move = 1.0000000 1.1979290e-06
  Iterations, force evaluations = 280 560

MPI task timing breakdown:
Section |  min time  |  avg time  |  max time  |%varavg| %total
---------------------------------------------------------------
Pair    | 0.84324    | 2.3547     | 3.0586     |  41.6 | 72.37
Neigh   | 0          | 0          | 0          |   0.0 |  0.00
Comm    | 0.047784   | 0.53844    | 1.6402     |  61.1 | 16.55
Output  | 0          | 0          | 0          |   0.0 |  0.00
Modify  | 3.4739e-05 | 0.0046145  | 0.0097903  |   3.2 |  0.14
Other   |            | 0.3561     |            |       | 10.94

Nlocal:        2776.45 ave        3960 max           0 min
Histogram: 8 4 4 0 4 12 8 4 26 34
Nghost:        3879.14 ave        5424 max         232 min
Histogram: 8 0 8 0 16 0 8 8 16 40
Neighs:        79213.6 ave      115438 max           0 min
Histogram: 8 4 4 0 10 6 8 8 24 32

Total # of neighbors = 8238213
Ave neighs/atom = 28.530509
Neighbor list builds = 0
Dangerous builds = 0
The dot product: 6.30056630979695e-11
Setting up cg style minimization ...
  Unit style    : metal
  Current step  : 2648
Per MPI rank memory allocation (min/avg/max) = 5.441 | 5.816 | 6.074 Mbytes
Step PotEng KinEng TotEng v_fx v_fy v_fz 
    2648   -1152449.3            0   -1152449.3   0.48779211  -0.74005096  -0.34081188 
    2954   -1152449.5            0   -1152449.5 1.4196774e-06 -2.3126966e-06 2.2184018e-06 
Loop time of 3.56832 on 104 procs for 306 steps with 288751 atoms

99.9% CPU use with 104 MPI tasks x 1 OpenMP threads

Minimization stats:
  Stopping criterion = energy tolerance
  Energy initial, next-to-last, final = 
     -1152449.30452033  -1152449.45035272  -1152449.45035272
  Force two-norm initial, final = 0.94961534 2.9009580e-05
  Force max component initial, final = 0.74005096 3.8410510e-06
  Final line search alpha, max atom move = 1.0000000 3.8410510e-06
  Iterations, force evaluations = 306 612

MPI task timing breakdown:
Section |  min time  |  avg time  |  max time  |%varavg| %total
---------------------------------------------------------------
Pair    | 0.9311     | 2.5683     | 3.3545     |  43.1 | 71.98
Neigh   | 3.0291e-05 | 0.0088056  | 0.012841   |   3.9 |  0.25
Comm    | 0.056868   | 0.57887    | 1.738      |  63.4 | 16.22
Output  | 0          | 0          | 0          |   0.0 |  0.00
Modify  | 3.3986e-05 | 0.0032984  | 0.008377   |   3.6 |  0.09
Other   |            | 0.409      |            |       | 11.46

Nlocal:        2776.45 ave        3961 max           0 min
Histogram: 8 4 4 0 6 10 8 4 26 34
Nghost:        3879.14 ave        5424 max         232 min
Histogram: 8 0 8 0 16 0 8 8 16 40
Neighs:        79213.5 ave      115469 max           0 min
Histogram: 8 4 4 0 10 6 8 8 24 32

Total # of neighbors = 8238205
Ave neighs/atom = 28.530481
Neighbor list builds = 3
Dangerous builds = 0
OMP_NUM_THREADS environment is not set. Defaulting to 1 thread. (../comm.cpp:94)
  using 1 OpenMP thread(s) per MPI task
Reading data file ...
  orthogonal box = (-122.39241 -121.13707 -37.090501) to (122.39241 121.13707 37.090501)
  13 by 4 by 2 MPI processor grid
  reading atoms ...
  288751 atoms
  read_data CPU = 0.347 seconds
199981 atoms in group inner
88770 atoms in group outer
1 atoms in group carbon
Neighbor list info ...
  update every 1 steps, delay 0 steps, check yes
  max neighbors/atom: 2000, page size: 100000
  master list distance cutoff = 5.6
  ghost atom cutoff = 5.6
  binsize = 2.8, bins = 88 87 27
  1 neighbor lists, perpetual/occasional/extra = 1 0 0
  (1) pair eam/alloy, perpetual
      attributes: half, newton on
      pair build: half/bin/atomonly/newton
      stencil: half/bin/3d/newton
      bin: standard
Setting up cg style minimization ...
  Unit style    : metal
  Current step  : 0
Per MPI rank memory allocation (min/avg/max) = 5.441 | 5.816 | 6.074 Mbytes
Step v_fx v_fy v_fz PotEng KinEng TotEng 
       0    1.4758208   -1.1120033    2.4871044   -1152447.8            0   -1152447.8 
     205 1.5701323e-06 -2.5965578e-06 4.2397552e-06   -1152449.5            0   -1152449.5 
Loop time of 2.40982 on 104 procs for 205 steps with 288751 atoms

99.9% CPU use with 104 MPI tasks x 1 OpenMP threads

Minimization stats:
  Stopping criterion = energy tolerance
  Energy initial, next-to-last, final = 
     -1152447.78930168  -1152449.45035272  -1152449.45035272
  Force two-norm initial, final = 10.123863 1.5613796e-05
  Force max component initial, final = 4.5268643 4.5576978e-06
  Final line search alpha, max atom move = 1.0000000 4.5576978e-06
  Iterations, force evaluations = 205 409

MPI task timing breakdown:
Section |  min time  |  avg time  |  max time  |%varavg| %total
---------------------------------------------------------------
Pair    | 0.62858    | 1.7343     | 2.2489     |  35.2 | 71.97
Neigh   | 3.2367e-05 | 0.0088046  | 0.012797   |   3.9 |  0.37
Comm    | 0.036037   | 0.39486    | 1.1939     |  51.8 | 16.39
Output  | 0          | 0          | 0          |   0.0 |  0.00
Modify  | 2.4362e-05 | 0.0022027  | 0.0056911  |   2.9 |  0.09
Other   |            | 0.2696     |            |       | 11.19

Nlocal:        2776.45 ave        3961 max           0 min
Histogram: 8 4 4 0 6 10 8 2 28 34
Nghost:        3879.01 ave        5424 max         232 min
Histogram: 8 0 8 0 16 0 8 8 16 40
Neighs:        79213.5 ave      115455 max           0 min
Histogram: 8 4 4 0 10 6 8 8 24 32

Total # of neighbors = 8238207
Ave neighs/atom = 28.530488
Neighbor list builds = 3
Dangerous builds = 1
Setting atom values ...
  1 settings made for x
  1 settings made for y
  1 settings made for z
Setting up cg style minimization ...
  Unit style    : metal
  Current step  : 205
Per MPI rank memory allocation (min/avg/max) = 5.441 | 5.816 | 6.074 Mbytes
Step PotEng KinEng TotEng v_fx v_fy v_fz 
     205   -1152449.4            0   -1152449.4  0.019823562  0.019892145  0.014187339 
     384   -1152449.4            0   -1152449.4 1.7121825e-06 -6.4813788e-06 -4.3133181e-06 
Loop time of 2.08683 on 104 procs for 179 steps with 288751 atoms

99.9% CPU use with 104 MPI tasks x 1 OpenMP threads

Minimization stats:
  Stopping criterion = energy tolerance
  Energy initial, next-to-last, final = 
     -1152449.44743254   -1152449.4493909   -1152449.4493909
  Force two-norm initial, final = 0.20426265 0.00016502441
  Force max component initial, final = 0.085901741 2.3620891e-05
  Final line search alpha, max atom move = 1.0000000 2.3620891e-05
  Iterations, force evaluations = 179 358

MPI task timing breakdown:
Section |  min time  |  avg time  |  max time  |%varavg| %total
---------------------------------------------------------------
Pair    | 0.5413     | 1.5088     | 1.9575     |  33.1 | 72.30
Neigh   | 0          | 0          | 0          |   0.0 |  0.00
Comm    | 0.031395   | 0.34203    | 1.0415     |  48.6 | 16.39
Output  | 0          | 0          | 0          |   0.0 |  0.00
Modify  | 2.1882e-05 | 0.0029555  | 0.0063282  |   2.6 |  0.14
Other   |            | 0.233      |            |       | 11.17

Nlocal:        2776.45 ave        3961 max           0 min
Histogram: 8 4 4 0 6 10 8 2 28 34
Nghost:        3879.01 ave        5424 max         232 min
Histogram: 8 0 8 0 16 0 8 8 16 40
Neighs:        79213.4 ave      115457 max           0 min
Histogram: 8 4 4 0 10 6 8 8 24 32

Total # of neighbors = 8238197
Ave neighs/atom = 28.530454
Neighbor list builds = 0
Dangerous builds = 0
Setting atom values ...
  1 settings made for x
  1 settings made for y
  1 settings made for z
Setting up cg style minimization ...
  Unit style    : metal
  Current step  : 384
Per MPI rank memory allocation (min/avg/max) = 5.441 | 5.816 | 6.074 Mbytes
Step PotEng KinEng TotEng v_fx v_fy v_fz 
     384   -1152449.4            0   -1152449.4  0.014763345  0.032374942  0.025642716 
     582   -1152449.4            0   -1152449.4 -8.1161684e-06 1.6725394e-05 1.3497212e-05 
Loop time of 2.32025 on 104 procs for 198 steps with 288751 atoms

99.9% CPU use with 104 MPI tasks x 1 OpenMP threads

Minimization stats:
  Stopping criterion = energy tolerance
  Energy initial, next-to-last, final = 
     -1152449.44431474  -1152449.44643316  -1152449.44643316
  Force two-norm initial, final = 0.21403533 9.3915230e-05
  Force max component initial, final = 0.094184419 1.9877781e-05
  Final line search alpha, max atom move = 1.0000000 1.9877781e-05
  Iterations, force evaluations = 198 396

MPI task timing breakdown:
Section |  min time  |  avg time  |  max time  |%varavg| %total
---------------------------------------------------------------
Pair    | 0.59994    | 1.6741     | 2.1708     |  34.9 | 72.15
Neigh   | 0          | 0          | 0          |   0.0 |  0.00
Comm    | 0.034252   | 0.37899    | 1.1447     |  51.2 | 16.33
Output  | 0          | 0          | 0          |   0.0 |  0.00
Modify  | 2.4701e-05 | 0.0032647  | 0.0069749  |   2.7 |  0.14
Other   |            | 0.2639     |            |       | 11.37

Nlocal:        2776.45 ave        3961 max           0 min
Histogram: 8 4 4 0 6 10 8 2 28 34
Nghost:        3879.05 ave        5428 max         232 min
Histogram: 8 0 8 0 16 0 8 8 16 40
Neighs:        79213.5 ave      115445 max           0 min
Histogram: 8 4 4 0 10 6 8 8 24 32

Total # of neighbors = 8238199
Ave neighs/atom = 28.530461
Neighbor list builds = 0
Dangerous builds = 0
The dot product: 1.05740187582341e-07
Setting atom values ...
  1 settings made for x
  1 settings made for y
  1 settings made for z
Setting up cg style minimization ...
  Unit style    : metal
  Current step  : 582
Per MPI rank memory allocation (min/avg/max) = 5.441 | 5.816 | 6.074 Mbytes
Step PotEng KinEng TotEng v_fx v_fy v_fz 
     582   -1152449.4            0   -1152449.4  0.011610338  0.046007558  0.044696195 
     770   -1152449.4            0   -1152449.4 -1.6824748e-06 9.9367878e-06 9.9989507e-06 
Loop time of 2.19875 on 104 procs for 188 steps with 288751 atoms

99.9% CPU use with 104 MPI tasks x 1 OpenMP threads

Minimization stats:
  Stopping criterion = energy tolerance
  Energy initial, next-to-last, final = 
     -1152449.43955427  -1152449.44173907  -1152449.44173907
  Force two-norm initial, final = 0.21851547 0.00011123534
  Force max component initial, final = 0.098953688 1.7539481e-05
  Final line search alpha, max atom move = 1.0000000 1.7539481e-05
  Iterations, force evaluations = 188 376

MPI task timing breakdown:
Section |  min time  |  avg time  |  max time  |%varavg| %total
---------------------------------------------------------------
Pair    | 0.56721    | 1.5818     | 2.0611     |  33.9 | 71.94
Neigh   | 0          | 0          | 0          |   0.0 |  0.00
Comm    | 0.032911   | 0.35617    | 1.0781     |  49.8 | 16.20
Output  | 0          | 0          | 0          |   0.0 |  0.00
Modify  | 2.3592e-05 | 0.0031013  | 0.0066359  |   2.6 |  0.14
Other   |            | 0.2577     |            |       | 11.72

Nlocal:        2776.45 ave        3961 max           0 min
[...]

Nlocal:        2776.45 ave        3961 max           0 min
Histogram: 8 4 4 0 6 10 8 4 26 34
Nghost:        3879.01 ave        5429 max         232 min
Histogram: 8 0 8 0 16 0 8 8 16 40
Neighs:        79213.5 ave      115445 max           0 min
Histogram: 8 4 4 0 10 6 8 8 24 32

Total # of neighbors = 8238200
Ave neighs/atom = 28.530464
Neighbor list builds = 0
Dangerous builds = 0
The dot product: -5.20899335575302e-09
Setting atom values ...
  1 settings made for x
  1 settings made for y
  1 settings made for z
Setting up cg style minimization ...
  Unit style    : metal
  Current step  : 1588
Per MPI rank memory allocation (min/avg/max) = 5.441 | 5.816 | 6.074 Mbytes
Step PotEng KinEng TotEng v_fx v_fy v_fz 
    1588   -1152449.4            0   -1152449.4 -0.0032075804  0.055235448 -0.042016236 
    1699   -1152449.4            0   -1152449.4 1.7189845e-06 -2.3487596e-05 2.1763052e-05 
Loop time of 1.29784 on 104 procs for 111 steps with 288751 atoms

99.9% CPU use with 104 MPI tasks x 1 OpenMP threads

Minimization stats:
  Stopping criterion = energy tolerance
  Energy initial, next-to-last, final = 
     -1152449.38453086   -1152449.3862749   -1152449.3862749
  Force two-norm initial, final = 0.16728289 0.00012200406
  Force max component initial, final = 0.070008058 2.5197600e-05
  Final line search alpha, max atom move = 1.0000000 2.5197600e-05
  Iterations, force evaluations = 111 222

MPI task timing breakdown:
Section |  min time  |  avg time  |  max time  |%varavg| %total
---------------------------------------------------------------
Pair    | 0.33507    | 0.93392    | 1.2179     |  26.1 | 71.96
Neigh   | 0          | 0          | 0          |   0.0 |  0.00
Comm    | 0.020433   | 0.21059    | 0.63103    |  38.3 | 16.23
Output  | 0          | 0          | 0          |   0.0 |  0.00
Modify  | 1.3752e-05 | 0.0018412  | 0.0039152  |   2.0 |  0.14
Other   |            | 0.1515     |            |       | 11.67

Nlocal:        2776.45 ave        3961 max           0 min
Histogram: 8 4 4 0 6 10 8 4 26 34
Nghost:        3879.01 ave        5427 max         232 min
Histogram: 8 0 8 0 16 0 8 8 16 40
Neighs:        79213.4 ave      115445 max           0 min
Histogram: 8 4 4 0 10 6 8 8 24 32

Total # of neighbors = 8238195
Ave neighs/atom = 28.530447
Neighbor list builds = 0
Dangerous builds = 0
The dot product: -7.69149926953158e-07
Setting atom values ...
  1 settings made for x
  1 settings made for y
  1 settings made for z
Setting up cg style minimization ...
  Unit style    : metal
  Current step  : 1699
Per MPI rank memory allocation (min/avg/max) = 5.441 | 5.816 | 6.074 Mbytes
Step PotEng KinEng TotEng v_fx v_fy v_fz 
    1699   -1152449.4            0   -1152449.4 -0.024218519   0.10726708 -0.084647864 
    1943   -1152449.4            0   -1152449.4 -3.190481e-07 -4.0090968e-06 -4.0084334e-06 
Loop time of 2.86296 on 104 procs for 244 steps with 288751 atoms

99.9% CPU use with 104 MPI tasks x 1 OpenMP threads

Minimization stats:
  Stopping criterion = energy tolerance
  Energy initial, next-to-last, final = 
      -1152449.3732309   -1152449.3773785   -1152449.3773785
  Force two-norm initial, final = 0.20295873 2.1099471e-05
  Force max component initial, final = 0.10726708 4.5834482e-06
  Final line search alpha, max atom move = 1.0000000 4.5834482e-06
  Iterations, force evaluations = 244 488

MPI task timing breakdown:
Section |  min time  |  avg time  |  max time  |%varavg| %total
---------------------------------------------------------------
Pair    | 0.73365    | 2.0546     | 2.7014     |  38.9 | 71.77
Neigh   | 0          | 0          | 0          |   0.0 |  0.00
Comm    | 0.042427   | 0.46774    | 1.3969     |  56.7 | 16.34
Output  | 0          | 0          | 0          |   0.0 |  0.00
Modify  | 2.9473e-05 | 0.0040331  | 0.0085879  |   3.0 |  0.14
Other   |            | 0.3366     |            |       | 11.76

Nlocal:        2776.45 ave        3961 max           0 min
Histogram: 8 4 4 0 6 10 8 4 26 34
Nghost:        3879.01 ave        5426 max         232 min
Histogram: 8 0 8 0 16 0 8 8 16 40
Neighs:        79213.5 ave      115445 max           0 min
Histogram: 8 4 4 0 10 6 8 8 24 32

Total # of neighbors = 8238199
Ave neighs/atom = 28.530461
Neighbor list builds = 0
Dangerous builds = 0
The dot product: -3.1970459380058e-08
Setting atom values ...
  1 settings made for x
  1 settings made for y
  1 settings made for z
Setting up cg style minimization ...
  Unit style    : metal
  Current step  : 1943
Per MPI rank memory allocation (min/avg/max) = 5.441 | 5.816 | 6.074 Mbytes
Step PotEng KinEng TotEng v_fx v_fy v_fz 
    1943   -1152449.4            0   -1152449.4 -0.048262808   0.10361113 -0.070547831 
    2000   -1152449.4            0   -1152449.4 0.00017669644 2.4965006e-05 0.00060952866 
    2161   -1152449.4            0   -1152449.4 -5.0437441e-06 3.0992868e-06 -1.4087124e-05 
Loop time of 2.53712 on 104 procs for 218 steps with 288751 atoms

99.9% CPU use with 104 MPI tasks x 1 OpenMP threads

Minimization stats:
  Stopping criterion = energy tolerance
  Energy initial, next-to-last, final = 
     -1152449.36620967  -1152449.36920722  -1152449.36920722
  Force two-norm initial, final = 0.19323126 5.9229239e-05
  Force max component initial, final = 0.10361113 1.8196818e-05
  Final line search alpha, max atom move = 1.0000000 1.8196818e-05
  Iterations, force evaluations = 218 436

MPI task timing breakdown:
Section |  min time  |  avg time  |  max time  |%varavg| %total
---------------------------------------------------------------
Pair    | 0.65415    | 1.8304     | 2.3858     |  36.7 | 72.14
Neigh   | 0          | 0          | 0          |   0.0 |  0.00
Comm    | 0.039993   | 0.41357    | 1.2398     |  53.8 | 16.30
Output  | 0.00014999 | 0.00015402 | 0.00028891 |   0.0 |  0.01
Modify  | 2.6662e-05 | 0.0036064  | 0.0076839  |   2.8 |  0.14
Other   |            | 0.2894     |            |       | 11.41

Nlocal:        2776.45 ave        3961 max           0 min
Histogram: 8 4 4 0 6 10 8 4 26 34
Nghost:        3879.01 ave        5429 max         232 min
Histogram: 8 0 8 0 16 0 8 8 16 40
Neighs:        79213.5 ave      115445 max           0 min
Histogram: 8 4 4 0 10 6 8 8 24 32

Total # of neighbors = 8238203
Ave neighs/atom = 28.530474
Neighbor list builds = 0
Dangerous builds = 0
The dot product: 3.40627874323478e-07
Setting atom values ...
  1 settings made for x
  1 settings made for y
  1 settings made for z
Setting up cg style minimization ...
  Unit style    : metal
  Current step  : 2161
Per MPI rank memory allocation (min/avg/max) = 5.441 | 5.816 | 6.074 Mbytes
Step PotEng KinEng TotEng v_fx v_fy v_fz 
    2161   -1152449.4            0   -1152449.4 -0.036260357  0.060028554 -0.033408761 
    2364   -1152449.4            0   -1152449.4 4.9282739e-06 -3.7014799e-06 8.9623866e-06 
Loop time of 2.42466 on 104 procs for 203 steps with 288751 atoms

99.9% CPU use with 104 MPI tasks x 1 OpenMP threads

Minimization stats:
  Stopping criterion = linesearch alpha is zero
  Energy initial, next-to-last, final = 
      -1152449.3583665   -1152449.3600847   -1152449.3600847
  Force two-norm initial, final = 0.15661964 6.8847279e-05
  Force max component initial, final = 0.069906907 8.9623866e-06
  Final line search alpha, max atom move = 0.5 4.4811933e-06
  Iterations, force evaluations = 203 407

MPI task timing breakdown:
Section |  min time  |  avg time  |  max time  |%varavg| %total
---------------------------------------------------------------
Pair    | 0.61062    | 1.7164     | 2.2614     |  35.7 | 70.79
Neigh   | 0          | 0          | 0          |   0.0 |  0.00
Comm    | 0.037892   | 0.39636    | 1.1709     |  51.0 | 16.35
Output  | 0          | 0          | 0          |   0.0 |  0.00
Modify  | 2.4624e-05 | 0.0033732  | 0.0071915  |   2.7 |  0.14
Other   |            | 0.3086     |            |       | 12.73

Nlocal:        2776.45 ave        3961 max           0 min
Histogram: 8 4 4 0 6 10 8 4 26 34
Nghost:        3879.09 ave        5429 max         232 min
Histogram: 8 0 8 0 16 0 8 8 16 40
Neighs:        79213.5 ave      115445 max           0 min
Histogram: 8 4 4 0 10 6 8 8 24 32

Total # of neighbors = 8238202
Ave neighs/atom = 28.530471
Neighbor list builds = 0
Dangerous builds = 0
The dot product: -1.56792782020408e-07
Setting atom values ...
  1 settings made for x
  1 settings made for y
  1 settings made for z
Setting up cg style minimization ...
  Unit style    : metal
  Current step  : 2364
Per MPI rank memory allocation (min/avg/max) = 5.441 | 5.816 | 6.074 Mbytes
Step PotEng KinEng TotEng v_fx v_fy v_fz 
    2364   -1152449.3            0   -1152449.3 -0.021281402  0.030483847 -0.016565368 
    2463   -1152449.4            0   -1152449.4 1.5251441e-05 4.4361624e-06 3.9131689e-05 
Loop time of 1.15238 on 104 procs for 99 steps with 288751 atoms

99.9% CPU use with 104 MPI tasks x 1 OpenMP threads

Minimization stats:
  Stopping criterion = energy tolerance
  Energy initial, next-to-last, final = 
     -1152449.34908317  -1152449.35046978  -1152449.35046978
  Force two-norm initial, final = 0.14195073 0.00022579471
  Force max component initial, final = 0.068273516 4.1091014e-05
  Final line search alpha, max atom move = 1.0000000 4.1091014e-05
  Iterations, force evaluations = 99 198

MPI task timing breakdown:
Section |  min time  |  avg time  |  max time  |%varavg| %total
---------------------------------------------------------------
Pair    | 0.29901    | 0.83345    | 1.0862     |  24.7 | 72.32
Neigh   | 0          | 0          | 0          |   0.0 |  0.00
Comm    | 0.01914    | 0.18764    | 0.5633     |  36.3 | 16.28
Output  | 0          | 0          | 0          |   0.0 |  0.00
Modify  | 1.2489e-05 | 0.0016414  | 0.003486   |   1.9 |  0.14
Other   |            | 0.1296     |            |       | 11.25

Nlocal:        2776.45 ave        3960 max           0 min
Histogram: 8 4 4 0 4 12 8 4 26 34
Nghost:        3879.12 ave        5426 max         232 min
Histogram: 8 0 8 0 16 0 8 8 16 40
Neighs:        79213.5 ave      115431 max           0 min
Histogram: 8 4 4 0 10 6 8 8 24 32

Total # of neighbors = 8238200
Ave neighs/atom = 28.530464
Neighbor list builds = 0
Dangerous builds = 0
The dot product: -2.99983581979517e-07
Setting atom values ...
  1 settings made for x
  1 settings made for y
  1 settings made for z
Setting up cg style minimization ...
  Unit style    : metal
  Current step  : 2463
Per MPI rank memory allocation (min/avg/max) = 5.441 | 5.816 | 6.074 Mbytes
Step PotEng KinEng TotEng v_fx v_fy v_fz 
    2463   -1152449.3            0   -1152449.3 -0.015092405  0.013778527 -0.017272465 
    2856   -1152449.3            0   -1152449.3 3.6850632e-09 1.6639873e-06 1.7230672e-06 
Loop time of 4.57481 on 104 procs for 393 steps with 288751 atoms

99.9% CPU use with 104 MPI tasks x 1 OpenMP threads

Minimization stats:
  Stopping criterion = energy tolerance
  Energy initial, next-to-last, final = 
     -1152449.33982215  -1152449.34312077  -1152449.34312077
  Force two-norm initial, final = 0.14258845 1.8248222e-05
  Force max component initial, final = 0.066093235 2.7581496e-06
  Final line search alpha, max atom move = 1.0000000 2.7581496e-06
  Iterations, force evaluations = 393 786

MPI task timing breakdown:
Section |  min time  |  avg time  |  max time  |%varavg| %total
---------------------------------------------------------------
Pair    | 1.1928     | 3.3123     | 4.2964     |  49.2 | 72.40
Neigh   | 1.1375e-05 | 0.0029331  | 0.0042471  |   2.2 |  0.06
Comm    | 0.075999   | 0.75089    | 2.2646     |  72.5 | 16.41
Output  | 0          | 0          | 0          |   0.0 |  0.00
Modify  | 4.7697e-05 | 0.0064976  | 0.013884   |   3.8 |  0.14
Other   |            | 0.5022     |            |       | 10.98

Nlocal:        2776.45 ave        3960 max           0 min
Histogram: 8 4 4 0 4 12 8 4 26 34
Nghost:        3879.05 ave        5424 max         232 min
Histogram: 8 0 8 0 16 0 8 8 16 40
Neighs:        79213.4 ave      115434 max           0 min
Histogram: 8 4 4 0 10 6 8 8 24 32

Total # of neighbors = 8238194
Ave neighs/atom = 28.530443
Neighbor list builds = 1
Dangerous builds = 0
The dot product: -6.99439590047834e-08
Setting atom values ...
  1 settings made for x
  1 settings made for y
  1 settings made for z
Setting up cg style minimization ...
  Unit style    : metal
  Current step  : 2856
Per MPI rank memory allocation (min/avg/max) = 5.441 | 5.816 | 6.074 Mbytes
Step PotEng KinEng TotEng v_fx v_fy v_fz 
    2856   -1152449.3            0   -1152449.3  0.017032888 0.0083904176  0.031617963 
    3000   -1152449.3            0   -1152449.3 -2.9640166e-05 1.5055472e-05 -3.2509323e-05 
    3002   -1152449.3            0   -1152449.3 -5.2049632e-06 5.3447608e-06 -3.658576e-06 
Loop time of 1.70174 on 104 procs for 146 steps with 288751 atoms

99.9% CPU use with 104 MPI tasks x 1 OpenMP threads

Minimization stats:
  Stopping criterion = energy tolerance
  Energy initial, next-to-last, final = 
     -1152449.34527452  -1152449.34652914  -1152449.34652914
  Force two-norm initial, final = 0.13622163 0.00010460644
  Force max component initial, final = 0.048683272 5.3447608e-06
  Final line search alpha, max atom move = 1.0000000 5.3447608e-06
  Iterations, force evaluations = 146 292

MPI task timing breakdown:
Section |  min time  |  avg time  |  max time  |%varavg| %total
---------------------------------------------------------------
Pair    | 0.43896    | 1.2266     | 1.6037     |  30.0 | 72.08
Neigh   | 0          | 0          | 0          |   0.0 |  0.00
Comm    | 0.025547   | 0.27674    | 0.83158    |  44.0 | 16.26
Output  | 0.00024108 | 0.00024491 | 0.0004784  |   0.0 |  0.01
Modify  | 1.7935e-05 | 0.0024177  | 0.0051925  |   2.3 |  0.14
Other   |            | 0.1958     |            |       | 11.51

Nlocal:        2776.45 ave        3961 max           0 min
Histogram: 8 4 4 0 6 10 8 2 28 34
Nghost:        3879.01 ave        5424 max         232 min
Histogram: 8 0 8 0 16 0 8 8 16 40
Neighs:        79213.4 ave      115465 max           0 min
Histogram: 8 4 4 0 10 6 8 8 24 32

Total # of neighbors = 8238190
Ave neighs/atom = 28.530429
Neighbor list builds = 0
Dangerous builds = 0
The dot product: -1.61250320510558e-08
Setting atom values ...
  1 settings made for x
  1 settings made for y
  1 settings made for z
Setting up cg style minimization ...
  Unit style    : metal
  Current step  : 3002
Per MPI rank memory allocation (min/avg/max) = 5.441 | 5.816 | 6.074 Mbytes
Step PotEng KinEng TotEng v_fx v_fy v_fz 
    3002   -1152449.3            0   -1152449.3 0.0083318106 0.0059220969  0.017187622 
    3141   -1152449.3            0   -1152449.3 6.125125e-05 -2.8546757e-05 7.0732417e-05 
Loop time of 1.62445 on 104 procs for 139 steps with 288751 atoms

99.9% CPU use with 104 MPI tasks x 1 OpenMP threads

Minimization stats:
  Stopping criterion = energy tolerance
  Energy initial, next-to-last, final = 
     -1152449.34844032  -1152449.34935959  -1152449.34935959
  Force two-norm initial, final = 0.1250304 0.00025785545
  Force max component initial, final = 0.047918202 7.0732417e-05
  Final line search alpha, max atom move = 1.0000000 7.0732417e-05
  Iterations, force evaluations = 139 278

MPI task timing breakdown:
Section |  min time  |  avg time  |  max time  |%varavg| %total
---------------------------------------------------------------
Pair    | 0.41999    | 1.171      | 1.5258     |  29.3 | 72.09
Neigh   | 0          | 0          | 0          |   0.0 |  0.00
Comm    | 0.024982   | 0.26484    | 0.78913    |  43.0 | 16.30
Output  | 0          | 0          | 0          |   0.0 |  0.00
Modify  | 1.76e-05   | 0.0023092  | 0.0049357  |   2.3 |  0.14
Other   |            | 0.1863     |            |       | 11.47

Nlocal:        2776.45 ave        3960 max           0 min
Histogram: 8 4 4 0 4 12 8 2 28 34
Nghost:        3879.01 ave        5424 max         232 min
Histogram: 8 0 8 0 16 0 8 8 16 40
Neighs:        79213.4 ave      115434 max           0 min
Histogram: 8 4 4 0 10 6 8 8 24 32

Total # of neighbors = 8238191
Ave neighs/atom = 28.530433
Neighbor list builds = 0
Dangerous builds = 0
The dot product: -1.04008147904254e-08
Setting atom values ...
  1 settings made for x
  1 settings made for y
  1 settings made for z
Setting up cg style minimization ...
  Unit style    : metal
  Current step  : 3141
Per MPI rank memory allocation (min/avg/max) = 5.441 | 5.816 | 6.074 Mbytes
Step PotEng KinEng TotEng v_fx v_fy v_fz 
    3141   -1152449.4            0   -1152449.4  0.010262781 0.0063618627  0.020440125 
    3492   -1152449.4            0   -1152449.4 -4.0992846e-09 2.5912138e-08 1.3788716e-08 
Loop time of 4.10134 on 104 procs for 351 steps with 288751 atoms

99.9% CPU use with 104 MPI tasks x 1 OpenMP threads

Minimization stats:
  Stopping criterion = energy tolerance
  Energy initial, next-to-last, final = 
     -1152449.35019077   -1152449.3510949   -1152449.3510949
  Force two-norm initial, final = 0.12555909 2.0103650e-07
  Force max component initial, final = 0.047408928 3.7431934e-08
  Final line search alpha, max atom move = 1.0000000 3.7431934e-08
  Iterations, force evaluations = 351 702

MPI task timing breakdown:
Section |  min time  |  avg time  |  max time  |%varavg| %total
---------------------------------------------------------------
Pair    | 1.0554     | 2.9453     | 3.8523     |  46.5 | 71.81
Neigh   | 0          | 0          | 0          |   0.0 |  0.00
Comm    | 0.062817   | 0.66399    | 1.9893     |  67.9 | 16.19
Output  | 0          | 0          | 0          |   0.0 |  0.00
Modify  | 4.1889e-05 | 0.0057991  | 0.01241    |   3.6 |  0.14
Other   |            | 0.4862     |            |       | 11.86

Nlocal:        2776.45 ave        3961 max           0 min
Histogram: 8 4 4 0 6 10 8 2 28 34
Nghost:        3879.01 ave        5424 max         232 min
Histogram: 8 0 8 0 16 0 8 8 16 40
Neighs:        79213.4 ave      115465 max           0 min
Histogram: 8 4 4 0 10 6 8 8 24 32

Total # of neighbors = 8238192
Ave neighs/atom = 28.530436
Neighbor list builds = 0
Dangerous builds = 0
The dot product: 1.05816291946791e-11
Setting up cg style minimization ...
  Unit style    : metal
  Current step  : 3492
Per MPI rank memory allocation (min/avg/max) = 5.441 | 5.816 | 6.074 Mbytes
Step PotEng KinEng TotEng v_fx v_fy v_fz 
    3492   -1152449.4            0   -1152449.4  0.042851231  0.021846251 -0.028314662 
    3649   -1152449.4            0   -1152449.4 2.2747758e-05 -1.0510489e-05 4.5960883e-05 
Loop time of 1.85559 on 104 procs for 157 steps with 288751 atoms

99.9% CPU use with 104 MPI tasks x 1 OpenMP threads

Minimization stats:
  Stopping criterion = energy tolerance
  Energy initial, next-to-last, final = 
      -1152449.3510949  -1152449.35157328  -1152449.35157328
  Force two-norm initial, final = 0.055814037 0.00021304512
  Force max component initial, final = 0.042851231 4.5960883e-05
  Final line search alpha, max atom move = 1.0000000 4.5960883e-05
  Iterations, force evaluations = 157 314

MPI task timing breakdown:
Section |  min time  |  avg time  |  max time  |%varavg| %total
---------------------------------------------------------------
Pair    | 0.47112    | 1.3247     | 1.7432     |  31.2 | 71.39
Neigh   | 0          | 0          | 0          |   0.0 |  0.00
Comm    | 0.027595   | 0.30461    | 0.90312    |  45.3 | 16.42
Output  | 0          | 0          | 0          |   0.0 |  0.00
Modify  | 1.8041e-05 | 0.0016945  | 0.0043703  |   2.6 |  0.09
Other   |            | 0.2245     |            |       | 12.10

Nlocal:        2776.45 ave        3961 max           0 min
Histogram: 8 4 4 0 6 10 8 2 28 34
Nghost:        3879.01 ave        5424 max         232 min
Histogram: 8 0 8 0 16 0 8 8 16 40
Neighs:        79213.4 ave      115465 max           0 min
Histogram: 8 4 4 0 10 6 8 8 24 32

Total # of neighbors = 8238194
Ave neighs/atom = 28.530443
Neighbor list builds = 0
Dangerous builds = 0
