LAMMPS (29 Oct 2020)
OMP_NUM_THREADS environment is not set. Defaulting to 1 thread. (../comm.cpp:94)
  using 1 OpenMP thread(s) per MPI task
OMP_NUM_THREADS environment is not set. Defaulting to 1 thread. (../comm.cpp:94)
  using 1 OpenMP thread(s) per MPI task
Reading data file ...
  orthogonal box = (-122.39241 -121.13707 -37.090501) to (122.39241 121.13707 37.090501)
  13 by 4 by 2 MPI processor grid
  reading atoms ...
  288751 atoms
  read_data CPU = 0.386 seconds
199981 atoms in group inner
88770 atoms in group outer
1 atoms in group carbon
Neighbor list info ...
  update every 1 steps, delay 0 steps, check yes
  max neighbors/atom: 2000, page size: 100000
  master list distance cutoff = 5.6
  ghost atom cutoff = 5.6
  binsize = 2.8, bins = 88 87 27
  1 neighbor lists, perpetual/occasional/extra = 1 0 0
  (1) pair eam/alloy, perpetual
      attributes: half, newton on
      pair build: half/bin/atomonly/newton
      stencil: half/bin/3d/newton
      bin: standard
Setting up cg style minimization ...
  Unit style    : metal
  Current step  : 0
Per MPI rank memory allocation (min/avg/max) = 5.441 | 5.816 | 6.074 Mbytes
Step v_fx v_fy v_fz PotEng KinEng TotEng 
       0   -1.6953118  -0.76007476    2.5400395   -1152447.8            0   -1152447.8 
     233 4.3384491e-07 -4.9016301e-08 9.8125441e-07   -1152449.5            0   -1152449.5 
Loop time of 2.72826 on 104 procs for 233 steps with 288751 atoms

99.8% CPU use with 104 MPI tasks x 1 OpenMP threads

Minimization stats:
  Stopping criterion = energy tolerance
  Energy initial, next-to-last, final = 
     -1152447.78249504  -1152449.45035287  -1152449.45035287
  Force two-norm initial, final = 10.160288 5.9840451e-06
  Force max component initial, final = 6.1821165 1.1723207e-06
  Final line search alpha, max atom move = 1.0000000 1.1723207e-06
  Iterations, force evaluations = 233 465

MPI task timing breakdown:
Section |  min time  |  avg time  |  max time  |%varavg| %total
---------------------------------------------------------------
Pair    | 0.72404    | 1.9526     | 2.5535     |  37.3 | 71.57
Neigh   | 3.1289e-05 | 0.008838   | 0.012862   |   3.9 |  0.32
Comm    | 0.044295   | 0.44177    | 1.3255     |  55.6 | 16.19
Output  | 0          | 0          | 0          |   0.0 |  0.00
Modify  | 2.628e-05  | 0.0025043  | 0.0064511  |   3.1 |  0.09
Other   |            | 0.3225     |            |       | 11.82

Nlocal:        2776.45 ave        3961 max           0 min
Histogram: 8 4 4 0 6 10 8 2 28 34
Nghost:        3879.01 ave        5424 max         232 min
Histogram: 8 0 8 0 16 0 8 8 16 40
Neighs:        79213.5 ave      115455 max           0 min
Histogram: 8 4 4 0 10 6 8 8 24 32

Total # of neighbors = 8238207
Ave neighs/atom = 28.530488
Neighbor list builds = 3
Dangerous builds = 0
Setting atom values ...
  1 settings made for x
  1 settings made for y
  1 settings made for z
Setting up cg style minimization ...
  Unit style    : metal
  Current step  : 233
Per MPI rank memory allocation (min/avg/max) = 5.441 | 5.816 | 6.074 Mbytes
Step PotEng KinEng TotEng v_fx v_fy v_fz 
     233   -1152449.4            0   -1152449.4  0.010898121  -0.01483156 -0.020181045 
     417   -1152449.5            0   -1152449.5 6.0037343e-06 -4.4591701e-06 7.3219222e-07 
Loop time of 2.18776 on 104 procs for 184 steps with 288751 atoms

99.9% CPU use with 104 MPI tasks x 1 OpenMP threads

Minimization stats:
  Stopping criterion = energy tolerance
  Energy initial, next-to-last, final = 
     -1152449.44955105  -1152449.45008157  -1152449.45008157
  Force two-norm initial, final = 0.10851099 4.5682720e-05
  Force max component initial, final = 0.048241399 6.0037343e-06
  Final line search alpha, max atom move = 1.0000000 6.0037343e-06
  Iterations, force evaluations = 184 368

MPI task timing breakdown:
Section |  min time  |  avg time  |  max time  |%varavg| %total
---------------------------------------------------------------
Pair    | 0.56099    | 1.5515     | 2.0621     |  33.6 | 70.91
Neigh   | 0          | 0          | 0          |   0.0 |  0.00
Comm    | 0.037024   | 0.35509    | 1.0811     |  49.2 | 16.23
Output  | 0          | 0          | 0          |   0.0 |  0.00
Modify  | 2.4014e-05 | 0.0030286  | 0.0064747  |   2.6 |  0.14
Other   |            | 0.2782     |            |       | 12.72

Nlocal:        2776.45 ave        3961 max           0 min
Histogram: 8 4 4 0 6 10 8 2 28 34
Nghost:        3879.01 ave        5424 max         232 min
Histogram: 8 0 8 0 16 0 8 8 16 40
Neighs:        79213.4 ave      115455 max           0 min
Histogram: 8 4 4 0 10 6 8 8 24 32

Total # of neighbors = 8238198
Ave neighs/atom = 28.530457
Neighbor list builds = 0
Dangerous builds = 0
Setting atom values ...
  1 settings made for x
  1 settings made for y
  1 settings made for z
Setting up cg style minimization ...
  Unit style    : metal
  Current step  : 417
Per MPI rank memory allocation (min/avg/max) = 5.441 | 5.816 | 6.074 Mbytes
Step PotEng KinEng TotEng v_fx v_fy v_fz 
     417   -1152449.4            0   -1152449.4  0.018336602 -0.022554022 -0.032561901 
     570   -1152449.4            0   -1152449.4 -1.1336208e-05 1.3084236e-05 1.6508522e-05 
Loop time of 1.79735 on 104 procs for 153 steps with 288751 atoms

99.9% CPU use with 104 MPI tasks x 1 OpenMP threads

Minimization stats:
  Stopping criterion = energy tolerance
  Energy initial, next-to-last, final = 
     -1152449.44705453  -1152449.44849453  -1152449.44849453
  Force two-norm initial, final = 0.17825338 0.0001221383
  Force max component initial, final = 0.077720692 3.2872033e-05
  Final line search alpha, max atom move = 1.0000000 3.2872033e-05
  Iterations, force evaluations = 153 306

MPI task timing breakdown:
Section |  min time  |  avg time  |  max time  |%varavg| %total
---------------------------------------------------------------
Pair    | 0.46873    | 1.2848     | 1.6845     |  30.5 | 71.48
Neigh   | 0          | 0          | 0          |   0.0 |  0.00
Comm    | 0.028086   | 0.29021    | 0.87654    |  45.1 | 16.15
Output  | 0          | 0          | 0          |   0.0 |  0.00
Modify  | 1.8543e-05 | 0.0025204  | 0.0054297  |   2.4 |  0.14
Other   |            | 0.2198     |            |       | 12.23

Nlocal:        2776.45 ave        3961 max           0 min
Histogram: 8 4 4 0 6 10 8 2 28 34
Nghost:        3879.01 ave        5424 max         232 min
Histogram: 8 0 8 0 16 0 8 8 16 40
Neighs:        79213.5 ave      115455 max           0 min
Histogram: 8 4 4 0 10 6 8 8 24 32

Total # of neighbors = 8238200
Ave neighs/atom = 28.530464
Neighbor list builds = 0
Dangerous builds = 0
The dot product: -1.55706644295962e-08
Setting atom values ...
  1 settings made for x
  1 settings made for y
  1 settings made for z
Setting up cg style minimization ...
  Unit style    : metal
  Current step  : 570
Per MPI rank memory allocation (min/avg/max) = 5.441 | 5.816 | 6.074 Mbytes
Step PotEng KinEng TotEng v_fx v_fy v_fz 
     570   -1152449.4            0   -1152449.4  0.018701179 -0.021363159 -0.031887415 
     749   -1152449.4            0   -1152449.4 -1.1440439e-05 1.2827059e-05 1.8152957e-05 
Loop time of 2.07424 on 104 procs for 179 steps with 288751 atoms

99.9% CPU use with 104 MPI tasks x 1 OpenMP threads

Minimization stats:
  Stopping criterion = energy tolerance
  Energy initial, next-to-last, final = 
     -1152449.44403711  -1152449.44546598  -1152449.44546598
  Force two-norm initial, final = 0.17699118 8.7819941e-05
  Force max component initial, final = 0.075522653 1.8577554e-05
  Final line search alpha, max atom move = 1.0000000 1.8577554e-05
  Iterations, force evaluations = 179 358

MPI task timing breakdown:
Section |  min time  |  avg time  |  max time  |%varavg| %total
---------------------------------------------------------------
Pair    | 0.5456     | 1.5086     | 1.9648     |  33.1 | 72.73
Neigh   | 0          | 0          | 0          |   0.0 |  0.00
Comm    | 0.03129    | 0.3382     | 1.0245     |  49.1 | 16.30
Output  | 0          | 0          | 0          |   0.0 |  0.00
Modify  | 2.1118e-05 | 0.0029501  | 0.006304   |   2.6 |  0.14
Other   |            | 0.2245     |            |       | 10.82

Nlocal:        2776.45 ave        3961 max           0 min
Histogram: 8 4 4 0 6 10 8 2 28 34
Nghost:        3879.01 ave        5424 max         232 min
Histogram: 8 0 8 0 16 0 8 8 16 40
Neighs:        79213.5 ave      115455 max           0 min
Histogram: 8 4 4 0 10 6 8 8 24 32

Total # of neighbors = 8238201
Ave neighs/atom = 28.530467
Neighbor list builds = 0
Dangerous builds = 0
The dot product: -1.92377301128217e-08
Setting atom values ...
  1 settings made for x
  1 settings made for y
  1 settings made for z
Setting up cg style minimization ...
  Unit style    : metal
  Current step  : 749
Per MPI rank memory allocation (min/avg/max) = 5.441 | 5.816 | 6.074 Mbytes
Step PotEng KinEng TotEng v_fx v_fy v_fz 
     749   -1152449.4            0   -1152449.4  0.019602977 -0.021120553 -0.030957974 
     872   -1152449.4            0   -1152449.4 -1.9286403e-06 5.7472144e-06 2.9729506e-05 
Loop time of 1.43181 on 104 procs for 123 steps with 288751 atoms

99.9% CPU use with 104 MPI tasks x 1 OpenMP threads

Minimization stats:
  Stopping criterion = energy tolerance
  Energy initial, next-to-last, final = 
     -1152449.43953285   -1152449.4409534   -1152449.4409534
  Force two-norm initial, final = 0.17610718 0.00012689674
  Force max component initial, final = 0.073379933 2.9729506e-05
  Final line search alpha, max atom move = 1.0000000 2.9729506e-05
  Iterations, force evaluations = 123 246

MPI task timing breakdown:
Section |  min time  |  avg time  |  max time  |%varavg| %total
---------------------------------------------------------------
Pair    | 0.37555    | 1.0314     | 1.3507     |  27.3 | 72.04
Neigh   | 0          | 0          | 0          |   0.0 |  0.00
Comm    | 0.022629   | 0.23218    | 0.7005     |  40.5 | 16.22
Output  | 0          | 0          | 0          |   0.0 |  0.00
Modify  | 1.4694e-05 | 0.0020318  | 0.0043449  |   2.1 |  0.14
Other   |            | 0.1662     |            |       | 11.61

Nlocal:        2776.45 ave        3961 max           0 min
Histogram: 8 4 4 0 6 10 8 2 28 34
Nghost:        3879.01 ave        5424 max         232 min
Histogram: 8 0 8 0 16 0 8 8 16 40
Neighs:        79213.5 ave      115455 max           0 min
Histogram: 8 4 4 0 10 6 8 8 24 32

Total # of neighbors = 8238201
Ave neighs/atom = 28.530467
Neighbor list builds = 0
Dangerous builds = 0
The dot product: -4.70779325298696e-08
Setting atom values ...
  1 settings made for x
  1 settings made for y
  1 settings made for z
Setting up cg style minimization ...
  Unit style    : metal
  Current step  : 872
Per MPI rank memory allocation (min/avg/max) = 5.441 | 5.816 | 6.074 Mbytes
Step PotEng KinEng TotEng v_fx v_fy v_fz 
     872   -1152449.4            0   -1152449.4  0.021022443 -0.021680602 -0.030629825 
    1000   -1152449.4            0   -1152449.4 1.3255261e-05 -1.3058422e-05 -1.3611504e-05 
    1003   -1152449.4            0   -1152449.4 9.2587856e-06 -5.2167227e-06 2.6878317e-05 
Loop time of 1.53776 on 104 procs for 131 steps with 288751 atoms

99.9% CPU use with 104 MPI tasks x 1 OpenMP threads

Minimization stats:
  Stopping criterion = energy tolerance
  Energy initial, next-to-last, final = 
     -1152449.43350967  -1152449.43492209  -1152449.43492209
  Force two-norm initial, final = 0.17547894 8.7914543e-05
  Force max component initial, final = 0.072618939 2.6878317e-05
  Final line search alpha, max atom move = 1.0000000 2.6878317e-05
  Iterations, force evaluations = 131 262

MPI task timing breakdown:
Section |  min time  |  avg time  |  max time  |%varavg| %total
---------------------------------------------------------------
Pair    | 0.39988    | 1.1065     | 1.4492     |  28.3 | 71.95
Neigh   | 0          | 0          | 0          |   0.0 |  0.00
Comm    | 0.022769   | 0.24963    | 0.75621    |  41.9 | 16.23
Output  | 0.00015463 | 0.00016305 | 0.00029295 |   0.0 |  0.01
Modify  | 1.5953e-05 | 0.0021561  | 0.0046199  |   2.2 |  0.14
Other   |            | 0.1793     |            |       | 11.66

Nlocal:        2776.45 ave        3961 max           0 min
Histogram: 8 4 4 0 6 10 8 2 28 34
Nghost:        3879.01 ave        5424 max         232 min
Histogram: 8 0 8 0 16 0 8 8 16 40
Neighs:        79213.5 ave      115455 max           0 min
Histogram: 8 4 4 0 10 6 8 8 24 32

Total # of neighbors = 8238201
Ave neighs/atom = 28.530467
Neighbor list builds = 0
Dangerous builds = 0
The dot product: -4.79780540773348e-08
Setting atom values ...
  1 settings made for x
  1 settings made for y
  1 settings made for z
Setting up cg style minimization ...
  Unit style    : metal
  Current step  : 1003
Per MPI rank memory allocation (min/avg/max) = 5.441 | 5.816 | 6.074 Mbytes
Step PotEng KinEng TotEng v_fx v_fy v_fz 
    1003   -1152449.4            0   -1152449.4  0.023007278 -0.022898822 -0.031123268 
    1151   -1152449.4            0   -1152449.4 5.2810715e-06 -5.2153543e-06 -6.6570491e-06 
Loop time of 1.70236 on 104 procs for 148 steps with 288751 atoms

99.9% CPU use with 104 MPI tasks x 1 OpenMP threads

Minimization stats:
  Stopping criterion = energy tolerance
  Energy initial, next-to-last, final = 
     -1152449.42594409  -1152449.42734724  -1152449.42734724
  Force two-norm initial, final = 0.17504338 3.5172805e-05
  Force max component initial, final = 0.073070718 7.0030213e-06
  Final line search alpha, max atom move = 1.0000000 7.0030213e-06
  Iterations, force evaluations = 148 296

MPI task timing breakdown:
Section |  min time  |  avg time  |  max time  |%varavg| %total
---------------------------------------------------------------
Pair    | 0.45055    | 1.2395     | 1.6093     |  30.0 | 72.81
Neigh   | 0          | 0          | 0          |   0.0 |  0.00
Comm    | 0.026392   | 0.276      | 0.8381     |  44.9 | 16.21
Output  | 0          | 0          | 0          |   0.0 |  0.00
Modify  | 1.8075e-05 | 0.0024429  | 0.0052072  |   2.3 |  0.14
Other   |            | 0.1844     |            |       | 10.83

Nlocal:        2776.45 ave        3961 max           0 min
Histogram: 8 4 4 0 6 10 8 2 28 34
Nghost:        3879.01 ave        5424 max         232 min
Histogram: 8 0 8 0 16 0 8 8 16 40
Neighs:        79213.5 ave      115455 max           0 min
Histogram: 8 4 4 0 10 6 8 8 24 32

Total # of neighbors = 8238203
Ave neighs/atom = 28.530474
Neighbor list builds = 0
Dangerous builds = 0
The dot product: 1.15791279909509e-08
Setting atom values ...
  1 settings made for x
  1 settings made for y
  1 settings made for z
Setting up cg style minimization ...
  Unit style    : metal
  Current step  : 1151
Per MPI rank memory allocation (min/avg/max) = 5.441 | 5.816 | 6.074 Mbytes
Step PotEng KinEng TotEng v_fx v_fy v_fz 
    1151   -1152449.4            0   -1152449.4  0.025741258 -0.024763205 -0.032657842 
    1294   -1152449.4            0   -1152449.4 1.6538791e-06 -1.1432906e-06 4.9145206e-06 
Loop time of 1.68261 on 104 procs for 143 steps with 288751 atoms

99.9% CPU use with 104 MPI tasks x 1 OpenMP threads

Minimization stats:
  Stopping criterion = energy tolerance
  Energy initial, next-to-last, final = 
     -1152449.41682179  -1152449.41821646  -1152449.41821646
  Force two-norm initial, final = 0.17483463 4.9427434e-05
  Force max component initial, final = 0.073811378 5.3674321e-06
  Final line search alpha, max atom move = 1.0000000 5.3674321e-06
  Iterations, force evaluations = 143 286

MPI task timing breakdown:
Section |  min time  |  avg time  |  max time  |%varavg| %total
---------------------------------------------------------------
Pair    | 0.4347     | 1.204      | 1.5799     |  29.5 | 71.55
Neigh   | 0          | 0          | 0          |   0.0 |  0.00
Comm    | 0.026673   | 0.26911    | 0.82147    |  43.9 | 15.99
Output  | 0          | 0          | 0          |   0.0 |  0.00
Modify  | 1.7106e-05 | 0.0023528  | 0.0050561  |   2.3 |  0.14
Other   |            | 0.2072     |            |       | 12.31

Nlocal:        2776.45 ave        3961 max           0 min
Histogram: 8 4 4 0 6 10 8 2 28 34
Nghost:        3879.01 ave        5424 max         232 min
Histogram: 8 0 8 0 16 0 8 8 16 40
Neighs:        79213.5 ave      115455 max           0 min
Histogram: 8 4 4 0 10 6 8 8 24 32

Total # of neighbors = 8238203
Ave neighs/atom = 28.530474
Neighbor list builds = 0
Dangerous builds = 0
The dot product: -7.80812163490414e-09
Setting atom values ...
  1 settings made for x
  1 settings made for y
  1 settings made for z
Setting up cg style minimization ...
  Unit style    : metal
  Current step  : 1294
Per MPI rank memory allocation (min/avg/max) = 5.441 | 5.816 | 6.074 Mbytes
Step PotEng KinEng TotEng v_fx v_fy v_fz 
    1294   -1152449.4            0   -1152449.4  0.029416029 -0.027231684 -0.035305281 
    1453   -1152449.4            0   -1152449.4 4.8895487e-06 -3.9023374e-06 8.0501241e-06 
Loop time of 1.8361 on 104 procs for 159 steps with 288751 atoms

99.9% CPU use with 104 MPI tasks x 1 OpenMP threads

Minimization stats:
  Stopping criterion = energy tolerance
  Energy initial, next-to-last, final = 
     -1152449.40614449  -1152449.40753395  -1152449.40753395
  Force two-norm initial, final = 0.17491617 5.5827443e-05
  Force max component initial, final = 0.074796169 1.1319417e-05
  Final line search alpha, max atom move = 1.0000000 1.1319417e-05
  Iterations, force evaluations = 159 318

MPI task timing breakdown:
Section |  min time  |  avg time  |  max time  |%varavg| %total
---------------------------------------------------------------
Pair    | 0.48312    | 1.3322     | 1.742      |  31.1 | 72.56
Neigh   | 0          | 0          | 0          |   0.0 |  0.00
Comm    | 0.027132   | 0.299      | 0.90806    |  46.5 | 16.28
Output  | 0          | 0          | 0          |   0.0 |  0.00
Modify  | 1.8875e-05 | 0.0026218  | 0.0056232  |   2.4 |  0.14
Other   |            | 0.2023     |            |       | 11.02

Nlocal:        2776.45 ave        3960 max           0 min
Histogram: 8 4 4 0 4 12 8 2 28 34
Nghost:        3879.01 ave        5424 max         232 min
Histogram: 8 0 8 0 16 0 8 8 16 40
Neighs:        79213.5 ave      115412 max           0 min
Histogram: 8 4 4 0 10 6 8 8 24 32

Total # of neighbors = 8238201
Ave neighs/atom = 28.530467
Neighbor list builds = 0
Dangerous builds = 0
The dot product: -8.51918664396992e-09
Setting atom values ...
  1 settings made for x
  1 settings made for y
  1 settings made for z
Setting up cg style minimization ...
  Unit style    : metal
  Current step  : 1453
Per MPI rank memory allocation (min/avg/max) = 5.441 | 5.816 | 6.074 Mbytes
Step PotEng KinEng TotEng v_fx v_fy v_fz 
    1453   -1152449.4            0   -1152449.4  0.034471952 -0.030405688 -0.039508899 
    1573   -1152449.4            0   -1152449.4 2.5629178e-05 -2.3040032e-05 -4.696717e-05 
Loop time of 1.40086 on 104 procs for 120 steps with 288751 atoms

99.9% CPU use with 104 MPI tasks x 1 OpenMP threads

Minimization stats:
  Stopping criterion = energy tolerance
  Energy initial, next-to-last, final = 
      -1152449.3939365  -1152449.39533257  -1152449.39533257
  Force two-norm initial, final = 0.1755907 0.00018061847
  Force max component initial, final = 0.076055372 4.6967170e-05
  Final line search alpha, max atom move = 1.0000000 4.6967170e-05
  Iterations, force evaluations = 120 240

MPI task timing breakdown:
Section |  min time  |  avg time  |  max time  |%varavg| %total
---------------------------------------------------------------
Pair    | 0.36892    | 1.0142     | 1.3213     |  27.0 | 72.40
Neigh   | 0          | 0          | 0          |   0.0 |  0.00
Comm    | 0.023415   | 0.22598    | 0.68255    |  40.2 | 16.13
Output  | 0          | 0          | 0          |   0.0 |  0.00
Modify  | 1.4738e-05 | 0.0019852  | 0.0042607  |   2.1 |  0.14
Other   |            | 0.1587     |            |       | 11.33

Nlocal:        2776.45 ave        3958 max           0 min
Histogram: 8 4 4 0 4 12 8 2 28 34
Nghost:        3879.01 ave        5424 max         232 min
Histogram: 8 0 8 0 16 0 8 8 16 40
Neighs:        79213.4 ave      115366 max           0 min
Histogram: 8 4 4 0 10 6 8 8 24 32

Total # of neighbors = 8238197
Ave neighs/atom = 28.530454
Neighbor list builds = 0
Dangerous builds = 0
The dot product: 2.5056846563224e-07
Setting atom values ...
  1 settings made for x
  1 settings made for y
  1 settings made for z
Setting up cg style minimization ...
  Unit style    : metal
  Current step  : 1573
Per MPI rank memory allocation (min/avg/max) = 5.441 | 5.816 | 6.074 Mbytes
Step PotEng KinEng TotEng v_fx v_fy v_fz 
    1573   -1152449.4            0   -1152449.4  0.043181297  -0.03562182 -0.048512603 
    1753   -1152449.4            0   -1152449.4 1.059205e-06 -8.8942784e-07 -2.2825507e-05 
Loop time of 2.10079 on 104 procs for 180 steps with 288751 atoms

99.9% CPU use with 104 MPI tasks x 1 OpenMP threads

Minimization stats:
  Stopping criterion = energy tolerance
  Energy initial, next-to-last, final = 
      -1152449.3802881  -1152449.38176594  -1152449.38176594
  Force two-norm initial, final = 0.17870605 0.00010566922
  Force max component initial, final = 0.077656479 2.2825507e-05
  Final line search alpha, max atom move = 1.0000000 2.2825507e-05
  Iterations, force evaluations = 180 360

MPI task timing breakdown:
Section |  min time  |  avg time  |  max time  |%varavg| %total
---------------------------------------------------------------
Pair    | 0.54852    | 1.5174     | 1.9867     |  33.4 | 72.23
Neigh   | 0          | 0          | 0          |   0.0 |  0.00
Comm    | 0.030971   | 0.34239    | 1.026      |  49.1 | 16.30
Output  | 0          | 0          | 0          |   0.0 |  0.00
Modify  | 2.2256e-05 | 0.0029638  | 0.0063819  |   2.6 |  0.14
Other   |            | 0.238      |            |       | 11.33

Nlocal:        2776.45 ave        3953 max           0 min
Histogram: 8 4 4 0 4 12 8 2 28 34
Nghost:        3879.01 ave        5424 max         232 min
Histogram: 8 0 8 0 16 0 8 8 16 40
Neighs:        79213.4 ave      115215 max           0 min
Histogram: 8 4 4 0 10 6 8 8 24 32

Total # of neighbors = 8238198
Ave neighs/atom = 28.530457
Neighbor list builds = 0
Dangerous builds = 0
The dot product: 1.50230999298568e-07
Setting atom values ...
  1 settings made for x
  1 settings made for y
  1 settings made for z
Setting up cg style minimization ...
  Unit style    : metal
  Current step  : 1753
Per MPI rank memory allocation (min/avg/max) = 5.441 | 5.816 | 6.074 Mbytes
Step PotEng KinEng TotEng v_fx v_fy v_fz 
    1753   -1152449.4            0   -1152449.4  0.061449344 -0.044501294 -0.067989661 
    1921   -1152449.4            0   -1152449.4 -2.9229967e-05 2.3526658e-05 -2.6890416e-05 
Loop time of 1.97944 on 104 procs for 168 steps with 288751 atoms

99.9% CPU use with 104 MPI tasks x 1 OpenMP threads

Minimization stats:
  Stopping criterion = energy tolerance
  Energy initial, next-to-last, final = 
     -1152449.36558954  -1152449.36854819  -1152449.36854819
  Force two-norm initial, final = 0.1896699 0.00023759329
  Force max component initial, final = 0.079729422 3.8945936e-05
  Final line search alpha, max atom move = 1.0000000 3.8945936e-05
  Iterations, force evaluations = 168 336

MPI task timing breakdown:
Section |  min time  |  avg time  |  max time  |%varavg| %total
---------------------------------------------------------------
Pair    | 0.51232    | 1.4144     | 1.8689     |  32.0 | 71.46
Neigh   | 0          | 0          | 0          |   0.0 |  0.00
Comm    | 0.031711   | 0.32279    | 0.98285    |  47.3 | 16.31
Output  | 0          | 0          | 0          |   0.0 |  0.00
Modify  | 2.0386e-05 | 0.0027631  | 0.005893   |   2.5 |  0.14
Other   |            | 0.2395     |            |       | 12.10

Nlocal:        2776.45 ave        3947 max           0 min
Histogram: 8 4 4 0 4 12 8 2 26 36
Nghost:        3879.01 ave        5424 max         232 min
Histogram: 8 0 8 0 16 0 8 8 16 40
Neighs:        79213.4 ave      115023 max           0 min
Histogram: 8 4 4 0 10 6 8 8 24 32

Total # of neighbors = 8238194
Ave neighs/atom = 28.530443
Neighbor list builds = 0
Dangerous builds = 0
The dot product: -5.60129161928793e-07
Setting atom values ...
  1 settings made for x
  1 settings made for y
  1 settings made for z
Setting up cg style minimization ...
  Unit style    : metal
  Current step  : 1921
Per MPI rank memory allocation (min/avg/max) = 5.441 | 5.816 | 6.074 Mbytes
Step PotEng KinEng TotEng v_fx v_fy v_fz 
    1921   -1152449.4            0   -1152449.4   0.15857157 -0.054485516  -0.12928168 
    2000   -1152449.4            0   -1152449.4 0.00038033138 -0.00013259754 -0.00030087645 
    2122   -1152449.4            0   -1152449.4 3.3480124e-05 -1.8849089e-05 8.0075051e-06 
Loop time of 2.33791 on 104 procs for 201 steps with 288751 atoms

99.9% CPU use with 104 MPI tasks x 1 OpenMP threads

Minimization stats:
  Stopping criterion = energy tolerance
  Energy initial, next-to-last, final = 
     -1152449.35469706  -1152449.36172628  -1152449.36172628
  Force two-norm initial, final = 0.25798216 0.00018673274
  Force max component initial, final = 0.15857157 3.4359695e-05
  Final line search alpha, max atom move = 1.0000000 3.4359695e-05
  Iterations, force evaluations = 201 402

MPI task timing breakdown:
Section |  min time  |  avg time  |  max time  |%varavg| %total
---------------------------------------------------------------
Pair    | 0.61358    | 1.6943     | 2.2068     |  35.2 | 72.47
Neigh   | 1.0171e-05 | 0.0029693  | 0.004312   |   2.2 |  0.13
Comm    | 0.035426   | 0.37808    | 1.127      |  51.7 | 16.17
Output  | 9.3311e-05 | 9.7291e-05 | 0.00022216 |   0.0 |  0.00
Modify  | 2.4236e-05 | 0.0033065  | 0.0070642  |   2.7 |  0.14
Other   |            | 0.2591     |            |       | 11.08

Nlocal:        2776.45 ave        3952 max           0 min
Histogram: 8 4 4 0 4 12 8 2 28 34
Nghost:        3879.01 ave        5424 max         232 min
Histogram: 8 0 8 0 16 0 8 8 16 40
Neighs:        79213.4 ave      115179 max           0 min
Histogram: 8 4 4 0 10 6 8 8 24 32

Total # of neighbors = 8238197
Ave neighs/atom = 28.530454
Neighbor list builds = 1
Dangerous builds = 0
The dot product: 1.57765263845101e-06
Setting atom values ...
  1 settings made for x
  1 settings made for y
  1 settings made for z
Setting up cg style minimization ...
  Unit style    : metal
  Current step  : 2122
Per MPI rank memory allocation (min/avg/max) = 5.441 | 5.816 | 6.074 Mbytes
Step PotEng KinEng TotEng v_fx v_fy v_fz 
    2122   -1152449.3            0   -1152449.3   0.14258408 -0.013187043 -0.076819045 
    2338   -1152449.4            0   -1152449.4 7.5862229e-06 -2.9077001e-06 2.4796263e-06 
Loop time of 2.49026 on 104 procs for 216 steps with 288751 atoms

99.9% CPU use with 104 MPI tasks x 1 OpenMP threads

Minimization stats:
  Stopping criterion = energy tolerance
  Energy initial, next-to-last, final = 
     -1152449.34986182  -1152449.35366636  -1152449.35366636
  Force two-norm initial, final = 0.21257628 7.1494086e-05
  Force max component initial, final = 0.14258408 1.2744300e-05
  Final line search alpha, max atom move = 1.0000000 1.2744300e-05
  Iterations, force evaluations = 216 432

MPI task timing breakdown:
Section |  min time  |  avg time  |  max time  |%varavg| %total
---------------------------------------------------------------
Pair    | 0.65631    | 1.815      | 2.3638     |  36.2 | 72.88
Neigh   | 0          | 0          | 0          |   0.0 |  0.00
Comm    | 0.037099   | 0.40331    | 1.2274     |  54.3 | 16.20
Output  | 0          | 0          | 0          |   0.0 |  0.00
Modify  | 2.4709e-05 | 0.0035606  | 0.0076444  |   2.8 |  0.14
Other   |            | 0.2684     |            |       | 10.78

Nlocal:        2776.45 ave        3954 max           0 min
Histogram: 8 4 4 0 4 12 8 2 28 34
Nghost:        3879.01 ave        5424 max         232 min
Histogram: 8 0 8 0 16 0 8 8 16 40
Neighs:        79213.5 ave      115233 max           0 min
Histogram: 8 4 4 0 10 6 8 8 24 32

Total # of neighbors = 8238202
Ave neighs/atom = 28.530471
Neighbor list builds = 0
Dangerous builds = 0
The dot product: 2.05411709694799e-07
Setting atom values ...
  1 settings made for x
  1 settings made for y
  1 settings made for z
Setting up cg style minimization ...
  Unit style    : metal
  Current step  : 2338
Per MPI rank memory allocation (min/avg/max) = 5.441 | 5.816 | 6.074 Mbytes
Step PotEng KinEng TotEng v_fx v_fy v_fz 
    2338   -1152449.3            0   -1152449.3  0.079158212 0.0034404794  -0.03697427 
    2475   -1152449.3            0   -1152449.3 3.3097768e-06 -4.3040586e-06 9.5954354e-06 
Loop time of 1.58235 on 104 procs for 137 steps with 288751 atoms

99.9% CPU use with 104 MPI tasks x 1 OpenMP threads

Minimization stats:
  Stopping criterion = energy tolerance
  Energy initial, next-to-last, final = 
     -1152449.34238916  -1152449.34472558  -1152449.34472558
  Force two-norm initial, final = 0.16273397 9.7648794e-05
  Force max component initial, final = 0.079413063 1.7093356e-05
  Final line search alpha, max atom move = 1.0000000 1.7093356e-05
  Iterations, force evaluations = 137 274

MPI task timing breakdown:
Section |  min time  |  avg time  |  max time  |%varavg| %total
---------------------------------------------------------------
Pair    | 0.41673    | 1.1481     | 1.5008     |  28.9 | 72.55
Neigh   | 0          | 0          | 0          |   0.0 |  0.00
Comm    | 0.023113   | 0.25686    | 0.78188    |  43.3 | 16.23
Output  | 0          | 0          | 0          |   0.0 |  0.00
Modify  | 1.6836e-05 | 0.0022592  | 0.0048405  |   2.2 |  0.14
Other   |            | 0.1752     |            |       | 11.07

Nlocal:        2776.45 ave        3954 max           0 min
Histogram: 8 4 4 0 4 12 8 0 30 34
Nghost:        3879.05 ave        5424 max         232 min
Histogram: 8 0 8 0 16 0 8 8 16 40
Neighs:        79213.5 ave      115233 max           0 min
Histogram: 8 4 4 0 10 6 8 8 24 32

Total # of neighbors = 8238203
Ave neighs/atom = 28.530474
Neighbor list builds = 0
Dangerous builds = 0
The dot product: -7.30498473291287e-08
Setting atom values ...
  1 settings made for x
  1 settings made for y
  1 settings made for z
Setting up cg style minimization ...
  Unit style    : metal
  Current step  : 2475
Per MPI rank memory allocation (min/avg/max) = 5.441 | 5.816 | 6.074 Mbytes
Step PotEng KinEng TotEng v_fx v_fy v_fz 
    2475   -1152449.3            0   -1152449.3  0.036231766  0.010080108 -0.028648852 
    2709   -1152449.3            0   -1152449.3 5.3753546e-06 -1.3259284e-05 2.849345e-05 
Loop time of 2.72467 on 104 procs for 234 steps with 288751 atoms

99.9% CPU use with 104 MPI tasks x 1 OpenMP threads

Minimization stats:
  Stopping criterion = energy tolerance
  Energy initial, next-to-last, final = 
     -1152449.33518085  -1152449.34516547  -1152449.34516547
  Force two-norm initial, final = 0.15179653 0.00018410733
  Force max component initial, final = 0.074122095 3.2781157e-05
  Final line search alpha, max atom move = 1.0000000 3.2781157e-05
  Iterations, force evaluations = 234 468

MPI task timing breakdown:
Section |  min time  |  avg time  |  max time  |%varavg| %total
---------------------------------------------------------------
Pair    | 0.72735    | 1.9741     | 2.5625     |  37.4 | 72.45
Neigh   | 1.0122e-05 | 0.0029684  | 0.0043343  |   2.2 |  0.11
Comm    | 0.043125   | 0.44121    | 1.3241     |  55.8 | 16.19
Output  | 0          | 0          | 0          |   0.0 |  0.00
Modify  | 2.8172e-05 | 0.0038435  | 0.0082245  |   2.9 |  0.14
Other   |            | 0.3025     |            |       | 11.10

Nlocal:        2776.45 ave        3959 max           0 min
Histogram: 8 4 4 0 4 12 8 2 28 34
Nghost:        3879.05 ave        5424 max         232 min
Histogram: 8 0 8 0 16 0 8 8 16 40
Neighs:        79213.5 ave      115379 max           0 min
Histogram: 8 4 4 0 10 6 8 8 24 32

Total # of neighbors = 8238202
Ave neighs/atom = 28.530471
Neighbor list builds = 1
Dangerous builds = 0
The dot product: -1.1260473958758e-06
Setting atom values ...
  1 settings made for x
  1 settings made for y
  1 settings made for z
Setting up cg style minimization ...
  Unit style    : metal
  Current step  : 2709
Per MPI rank memory allocation (min/avg/max) = 5.441 | 5.816 | 6.074 Mbytes
Step PotEng KinEng TotEng v_fx v_fy v_fz 
    2709   -1152449.3            0   -1152449.3 -0.0049748106 -0.021844619   0.03653942 
    2818   -1152449.3            0   -1152449.3 -9.2872063e-06 -1.5288513e-05 2.604894e-05 
Loop time of 1.26111 on 104 procs for 109 steps with 288751 atoms

99.9% CPU use with 104 MPI tasks x 1 OpenMP threads

Minimization stats:
  Stopping criterion = energy tolerance
  Energy initial, next-to-last, final = 
     -1152449.34736084  -1152449.34836188  -1152449.34836188
  Force two-norm initial, final = 0.13184221 0.00012447506
  Force max component initial, final = 0.05243736 2.6048940e-05
  Final line search alpha, max atom move = 1.0000000 2.6048940e-05
  Iterations, force evaluations = 109 218

MPI task timing breakdown:
Section |  min time  |  avg time  |  max time  |%varavg| %total
---------------------------------------------------------------
Pair    | 0.33139    | 0.91377    | 1.1954     |  25.7 | 72.46
Neigh   | 0          | 0          | 0          |   0.0 |  0.00
Comm    | 0.019657   | 0.20393    | 0.61825    |  38.5 | 16.17
Output  | 0          | 0          | 0          |   0.0 |  0.00
Modify  | 1.3146e-05 | 0.0017994  | 0.0038429  |   2.0 |  0.14
Other   |            | 0.1416     |            |       | 11.23

Nlocal:        2776.45 ave        3961 max           0 min
Histogram: 8 4 4 0 6 10 8 2 28 34
Nghost:        3879.01 ave        5424 max         232 min
Histogram: 8 0 8 0 16 0 8 8 16 40
Neighs:        79213.4 ave      115455 max           0 min
Histogram: 8 4 4 0 10 6 8 8 24 32

Total # of neighbors = 8238191
Ave neighs/atom = 28.530433
Neighbor list builds = 0
Dangerous builds = 0
The dot product: 1.23645044806432e-07
Setting atom values ...
  1 settings made for x
  1 settings made for y
  1 settings made for z
Setting up cg style minimization ...
  Unit style    : metal
  Current step  : 2818
Per MPI rank memory allocation (min/avg/max) = 5.441 | 5.816 | 6.074 Mbytes
Step PotEng KinEng TotEng v_fx v_fy v_fz 
    2818   -1152449.3            0   -1152449.3 0.00085777917  -0.01095817  0.018529518 
    2996   -1152449.4            0   -1152449.4 -9.951523e-06 1.6414963e-05 -2.6984717e-05 
Loop time of 2.09088 on 104 procs for 178 steps with 288751 atoms

99.9% CPU use with 104 MPI tasks x 1 OpenMP threads

Minimization stats:
  Stopping criterion = energy tolerance
  Energy initial, next-to-last, final = 
      -1152449.3496541   -1152449.3505588   -1152449.3505588
  Force two-norm initial, final = 0.12506092 0.00013442568
  Force max component initial, final = 0.052966268 3.0506488e-05
  Final line search alpha, max atom move = 1.0000000 3.0506488e-05
  Iterations, force evaluations = 178 356

MPI task timing breakdown:
Section |  min time  |  avg time  |  max time  |%varavg| %total
---------------------------------------------------------------
Pair    | 0.54426    | 1.5019     | 1.9776     |  32.9 | 71.83
Neigh   | 0          | 0          | 0          |   0.0 |  0.00
Comm    | 0.035315   | 0.336      | 1.0232     |  48.8 | 16.07
Output  | 0          | 0          | 0          |   0.0 |  0.00
Modify  | 2.1226e-05 | 0.0029274  | 0.0062395  |   2.6 |  0.14
Other   |            | 0.2501     |            |       | 11.96

Nlocal:        2776.45 ave        3961 max           0 min
Histogram: 8 4 4 0 6 10 8 2 28 34
Nghost:        3879.01 ave        5424 max         232 min
Histogram: 8 0 8 0 16 0 8 8 16 40
Neighs:        79213.4 ave      115455 max           0 min
Histogram: 8 4 4 0 10 6 8 8 24 32

Total # of neighbors = 8238193
Ave neighs/atom = 28.530440
Neighbor list builds = 0
Dangerous builds = 0
The dot product: -5.38058100686833e-09
Setting atom values ...
  1 settings made for x
  1 settings made for y
  1 settings made for z
Setting up cg style minimization ...
  Unit style    : metal
  Current step  : 2996
Per MPI rank memory allocation (min/avg/max) = 5.441 | 5.816 | 6.074 Mbytes
Step PotEng KinEng TotEng v_fx v_fy v_fz 
    2996   -1152449.4            0   -1152449.4 0.00056316876 -0.011980721  0.020308641 
    3000   -1152449.4            0   -1152449.4 -0.002429087 0.0003382726 -0.00036042535 
    3185   -1152449.4            0   -1152449.4 -3.6396023e-06 -8.119866e-06 1.4118979e-05 
Loop time of 2.1818 on 104 procs for 189 steps with 288751 atoms

99.9% CPU use with 104 MPI tasks x 1 OpenMP threads

Minimization stats:
  Stopping criterion = energy tolerance
  Energy initial, next-to-last, final = 
     -1152449.35063187  -1152449.35153375  -1152449.35153375
  Force two-norm initial, final = 0.12557101 9.6737647e-05
  Force max component initial, final = 0.052616341 2.1301299e-05
  Final line search alpha, max atom move = 1.0000000 2.1301299e-05
  Iterations, force evaluations = 189 378

MPI task timing breakdown:
Section |  min time  |  avg time  |  max time  |%varavg| %total
---------------------------------------------------------------
Pair    | 0.57413    | 1.5853     | 2.066      |  34.0 | 72.66
Neigh   | 0          | 0          | 0          |   0.0 |  0.00
Comm    | 0.034209   | 0.35381    | 1.0691     |  50.6 | 16.22
Output  | 9.5165e-05 | 0.0001051  | 0.00016255 |   0.0 |  0.00
Modify  | 2.2856e-05 | 0.0031033  | 0.0066319  |   2.6 |  0.14
Other   |            | 0.2395     |            |       | 10.98

Nlocal:        2776.45 ave        3961 max           0 min
Histogram: 8 4 4 0 6 10 8 2 28 34
Nghost:        3879.01 ave        5427 max         232 min
Histogram: 8 0 8 0 16 0 8 8 16 40
Neighs:        79213.4 ave      115455 max           0 min
Histogram: 8 4 4 0 10 6 8 8 24 32

Total # of neighbors = 8238189
Ave neighs/atom = 28.530426
Neighbor list builds = 0
Dangerous builds = 0
The dot product: 7.84159864413644e-09
Setting atom values ...
  1 settings made for x
  1 settings made for y
  1 settings made for z
Setting up cg style minimization ...
  Unit style    : metal
  Current step  : 3185
Per MPI rank memory allocation (min/avg/max) = 5.441 | 5.816 | 6.074 Mbytes
Step PotEng KinEng TotEng v_fx v_fy v_fz 
    3185   -1152449.4            0   -1152449.4 0.00096353931 -0.011456703  0.019446059 
    3356   -1152449.4            0   -1152449.4 -3.9888737e-05 3.769702e-06 -2.9333145e-06 
Loop time of 2.00046 on 104 procs for 171 steps with 288751 atoms

99.9% CPU use with 104 MPI tasks x 1 OpenMP threads

Minimization stats:
  Stopping criterion = energy tolerance
  Energy initial, next-to-last, final = 
     -1152449.35029562  -1152449.35119039  -1152449.35119039
  Force two-norm initial, final = 0.12512441 0.00020653127
  Force max component initial, final = 0.052421528 4.7741739e-05
  Final line search alpha, max atom move = 1.0000000 4.7741739e-05
  Iterations, force evaluations = 171 342

MPI task timing breakdown:
Section |  min time  |  avg time  |  max time  |%varavg| %total
---------------------------------------------------------------
Pair    | 0.52119    | 1.4425     | 1.899      |  32.3 | 72.11
Neigh   | 0          | 0          | 0          |   0.0 |  0.00
Comm    | 0.030845   | 0.32394    | 0.97555    |  47.7 | 16.19
Output  | 0          | 0          | 0          |   0.0 |  0.00
Modify  | 2.0632e-05 | 0.0028131  | 0.0059965  |   2.5 |  0.14
Other   |            | 0.2312     |            |       | 11.56

Nlocal:        2776.45 ave        3961 max           0 min
Histogram: 8 4 4 0 6 10 8 2 28 34
Nghost:        3879.01 ave        5424 max         232 min
Histogram: 8 0 8 0 16 0 8 8 16 40
Neighs:        79213.4 ave      115455 max           0 min
Histogram: 8 4 4 0 10 6 8 8 24 32

Total # of neighbors = 8238191
Ave neighs/atom = 28.530433
Neighbor list builds = 0
Dangerous builds = 0
The dot product: -1.1633543003133e-08
Setting atom values ...
  1 settings made for x
  1 settings made for y
  1 settings made for z
Setting up cg style minimization ...
  Unit style    : metal
  Current step  : 3356
Per MPI rank memory allocation (min/avg/max) = 5.441 | 5.816 | 6.074 Mbytes
Step PotEng KinEng TotEng v_fx v_fy v_fz 
    3356   -1152449.3            0   -1152449.3  0.001285024 -0.010581787  0.017983977 
    3665   -1152449.3            0   -1152449.3 -1.4473776e-07 2.5523958e-08 -3.1113825e-08 
Loop time of 3.61065 on 104 procs for 309 steps with 288751 atoms

99.9% CPU use with 104 MPI tasks x 1 OpenMP threads

Minimization stats:
  Stopping criterion = energy tolerance
  Energy initial, next-to-last, final = 
     -1152449.34861486  -1152449.34949755  -1152449.34949755
  Force two-norm initial, final = 0.12420928 8.5854072e-07
  Force max component initial, final = 0.052290331 1.4473776e-07
  Final line search alpha, max atom move = 1.0000000 1.4473776e-07
  Iterations, force evaluations = 309 618

MPI task timing breakdown:
Section |  min time  |  avg time  |  max time  |%varavg| %total
---------------------------------------------------------------
Pair    | 0.94238    | 2.5996     | 3.4222     |  43.5 | 72.00
Neigh   | 0          | 0          | 0          |   0.0 |  0.00
Comm    | 0.053894   | 0.58756    | 1.7798     |  64.5 | 16.27
Output  | 0          | 0          | 0          |   0.0 |  0.00
Modify  | 3.6765e-05 | 0.0050872  | 0.010867   |   3.4 |  0.14
Other   |            | 0.4184     |            |       | 11.59

Nlocal:        2776.45 ave        3961 max           0 min
Histogram: 8 4 4 0 6 10 8 2 28 34
Nghost:        3879.01 ave        5424 max         232 min
Histogram: 8 0 8 0 16 0 8 8 16 40
Neighs:        79213.4 ave      115455 max           0 min
Histogram: 8 4 4 0 10 6 8 8 24 32

Total # of neighbors = 8238191
Ave neighs/atom = 28.530433
Neighbor list builds = 0
Dangerous builds = 0
The dot product: -5.70937527616254e-11
Setting up cg style minimization ...
  Unit style    : metal
  Current step  : 3665
Per MPI rank memory allocation (min/avg/max) = 5.441 | 5.816 | 6.074 Mbytes
Step PotEng KinEng TotEng v_fx v_fy v_fz 
    3665   -1152449.3            0   -1152449.3 0.0051762331   0.10222456  0.059779101 
    3862   -1152449.4            0   -1152449.4 1.586947e-05 8.7355106e-06 -3.2640935e-05 
Loop time of 2.29836 on 104 procs for 197 steps with 288751 atoms

99.9% CPU use with 104 MPI tasks x 1 OpenMP threads

Minimization stats:
  Stopping criterion = energy tolerance
  Energy initial, next-to-last, final = 
     -1152449.34949755  -1152449.35157345  -1152449.35157345
  Force two-norm initial, final = 0.11853352 0.00015355912
  Force max component initial, final = 0.10222456 3.3321720e-05
  Final line search alpha, max atom move = 1.0000000 3.3321720e-05
  Iterations, force evaluations = 197 394

MPI task timing breakdown:
Section |  min time  |  avg time  |  max time  |%varavg| %total
---------------------------------------------------------------
Pair    | 0.59995    | 1.6544     | 2.1711     |  34.5 | 71.98
Neigh   | 0          | 0          | 0          |   0.0 |  0.00
Comm    | 0.037432   | 0.36907    | 1.1227     |  51.4 | 16.06
Output  | 0          | 0          | 0          |   0.0 |  0.00
Modify  | 2.2327e-05 | 0.0021117  | 0.005445   |   2.9 |  0.09
Other   |            | 0.2728     |            |       | 11.87

Nlocal:        2776.45 ave        3961 max           0 min
Histogram: 8 4 4 0 6 10 8 2 28 34
Nghost:        3879.01 ave        5424 max         232 min
Histogram: 8 0 8 0 16 0 8 8 16 40
Neighs:        79213.4 ave      115445 max           0 min
Histogram: 8 4 4 0 10 6 8 8 24 32

Total # of neighbors = 8238190
Ave neighs/atom = 28.530429
Neighbor list builds = 0
Dangerous builds = 0
OMP_NUM_THREADS environment is not set. Defaulting to 1 thread. (../comm.cpp:94)
  using 1 OpenMP thread(s) per MPI task
Reading data file ...
  orthogonal box = (-122.39241 -121.13707 -37.090501) to (122.39241 121.13707 37.090501)
  13 by 4 by 2 MPI processor grid
  reading atoms ...
  288751 atoms
  read_data CPU = 0.343 seconds
199981 atoms in group inner
88770 atoms in group outer
1 atoms in group carbon
Neighbor list info ...
  update every 1 steps, delay 0 steps, check yes
  max neighbors/atom: 2000, page size: 100000
  master list distance cutoff = 5.6
  ghost atom cutoff = 5.6
  binsize = 2.8, bins = 88 87 27
  1 neighbor lists, perpetual/occasional/extra = 1 0 0
  (1) pair eam/alloy, perpetual
      attributes: half, newton on
      pair build: half/bin/atomonly/newton
      stencil: half/bin/3d/newton
      bin: standard
Setting up cg style minimization ...
  Unit style    : metal
  Current step  : 0
Per MPI rank memory allocation (min/avg/max) = 5.441 | 5.816 | 6.074 Mbytes
Step v_fx v_fy v_fz PotEng KinEng TotEng 
       0   -1.6953118  -0.76007476    2.5400395   -1152447.8            0   -1152447.8 
     233 4.3384491e-07 -4.9016301e-08 9.8125441e-07   -1152449.5            0   -1152449.5 
Loop time of 2.70133 on 104 procs for 233 steps with 288751 atoms

99.9% CPU use with 104 MPI tasks x 1 OpenMP threads

Minimization stats:
  Stopping criterion = energy tolerance
  Energy initial, next-to-last, final = 
     -1152447.78249504  -1152449.45035287  -1152449.45035287
  Force two-norm initial, final = 10.160288 5.9840451e-06
  Force max component initial, final = 6.1821165 1.1723207e-06
  Final line search alpha, max atom move = 1.0000000 1.1723207e-06
  Iterations, force evaluations = 233 465

MPI task timing breakdown:
Section |  min time  |  avg time  |  max time  |%varavg| %total
---------------------------------------------------------------
Pair    | 0.71548    | 1.9533     | 2.5506     |  37.4 | 72.31
Neigh   | 3.0223e-05 | 0.0089009  | 0.012884   |   3.9 |  0.33
Comm    | 0.041993   | 0.43994    | 1.3264     |  55.9 | 16.29
Output  | 0          | 0          | 0          |   0.0 |  0.00
Modify  | 2.7026e-05 | 0.0024957  | 0.0064063  |   3.1 |  0.09
Other   |            | 0.2967     |            |       | 10.98

Nlocal:        2776.45 ave        3961 max           0 min
Histogram: 8 4 4 0 6 10 8 2 28 34
Nghost:        3879.01 ave        5424 max         232 min
Histogram: 8 0 8 0 16 0 8 8 16 40
Neighs:        79213.5 ave      115455 max           0 min
Histogram: 8 4 4 0 10 6 8 8 24 32

Total # of neighbors = 8238207
Ave neighs/atom = 28.530488
Neighbor list builds = 3
Dangerous builds = 0
Setting atom values ...
  1 settings made for x
  1 settings made for y
  1 settings made for z
Setting up cg style minimization ...
  Unit style    : metal
  Current step  : 233
Per MPI rank memory allocation (min/avg/max) = 5.441 | 5.816 | 6.074 Mbytes
Step PotEng KinEng TotEng v_fx v_fy v_fz 
     233   -1152449.4            0   -1152449.4 -0.021457488 -0.022521506  0.018305052 
     398   -1152449.4            0   -1152449.4 1.5657956e-06 1.6382582e-06 -1.9187026e-06 
Loop time of 1.91932 on 104 procs for 165 steps with 288751 atoms

99.9% CPU use with 104 MPI tasks x 1 OpenMP threads

Minimization stats:
  Stopping criterion = energy tolerance
  Energy initial, next-to-last, final = 
     -1152449.44758655  -1152449.44932394  -1152449.44932394
  Force two-norm initial, final = 0.19159137 1.6499089e-05
  Force max component initial, final = 0.076668301 2.7590744e-06
  Final line search alpha, max atom move = 1.0000000 2.7590744e-06
  Iterations, force evaluations = 165 330

MPI task timing breakdown:
Section |  min time  |  avg time  |  max time  |%varavg| %total
---------------------------------------------------------------
Pair    | 0.50112    | 1.3851     | 1.8152     |  31.7 | 72.16
Neigh   | 0          | 0          | 0          |   0.0 |  0.00
Comm    | 0.028885   | 0.31099    | 0.93459    |  46.8 | 16.20
Output  | 0          | 0          | 0          |   0.0 |  0.00
Modify  | 2.0401e-05 | 0.0027218  | 0.0058101  |   2.5 |  0.14
Other   |            | 0.2206     |            |       | 11.49

Nlocal:        2776.45 ave        3961 max           0 min
Histogram: 8 4 4 0 6 10 8 2 28 34
Nghost:        3879.01 ave        5424 max         232 min
Histogram: 8 0 8 0 16 0 8 8 16 40
Neighs:        79213.4 ave      115455 max           0 min
Histogram: 8 4 4 0 10 6 8 8 24 32

Total # of neighbors = 8238197
Ave neighs/atom = 28.530454
Neighbor list builds = 0
Dangerous builds = 0
Setting atom values ...
  1 settings made for x
  1 settings made for y
  1 settings made for z
Setting up cg style minimization ...
  Unit style    : metal
  Current step  : 398
Per MPI rank memory allocation (min/avg/max) = 5.441 | 5.816 | 6.074 Mbytes
Step PotEng KinEng TotEng v_fx v_fy v_fz 
     398   -1152449.4            0   -1152449.4 -0.019102913 -0.019429122  0.014974795 
     503   -1152449.4            0   -1152449.4 1.7703406e-05 1.9758577e-05 1.1970655e-05 
Loop time of 1.23369 on 104 procs for 105 steps with 288751 atoms

99.9% CPU use with 104 MPI tasks x 1 OpenMP threads

Minimization stats:
  Stopping criterion = energy tolerance
  Energy initial, next-to-last, final = 
     -1152449.44525107  -1152449.44669192  -1152449.44669192
  Force two-norm initial, final = 0.17607389 0.00023730225
  Force max component initial, final = 0.069450344 3.0908790e-05
  Final line search alpha, max atom move = 1.0000000 3.0908790e-05
  Iterations, force evaluations = 105 210

MPI task timing breakdown:
Section |  min time  |  avg time  |  max time  |%varavg| %total
---------------------------------------------------------------
Pair    | 0.31939    | 0.88729    | 1.1707     |  25.5 | 71.92
Neigh   | 0          | 0          | 0          |   0.0 |  0.00
Comm    | 0.018699   | 0.20038    | 0.59699    |  37.2 | 16.24
Output  | 0          | 0          | 0          |   0.0 |  0.00
Modify  | 1.3244e-05 | 0.0017363  | 0.0037512  |   2.0 |  0.14
Other   |            | 0.1443     |            |       | 11.70

Nlocal:        2776.45 ave        3961 max           0 min
Histogram: 8 4 4 0 6 10 8 2 28 34
Nghost:        3879.01 ave        5424 max         232 min
Histogram: 8 0 8 0 16 0 8 8 16 40
Neighs:        79213.4 ave      115455 max           0 min
Histogram: 8 4 4 0 10 6 8 8 24 32

Total # of neighbors = 8238197
Ave neighs/atom = 28.530454
Neighbor list builds = 0
Dangerous builds = 0
The dot product: 2.55808924874846e-08
Setting atom values ...
  1 settings made for x
  1 settings made for y
  1 settings made for z
Setting up cg style minimization ...
  Unit style    : metal
  Current step  : 503
Per MPI rank memory allocation (min/avg/max) = 5.441 | 5.816 | 6.074 Mbytes
Step PotEng KinEng TotEng v_fx v_fy v_fz 
     503   -1152449.4            0   -1152449.4 -0.018204734 -0.018584814  0.011439394 
     638   -1152449.4            0   -1152449.4 -3.520394e-06 -5.9534444e-06 -1.8774537e-05 
Loop time of 1.57552 on 104 procs for 135 steps with 288751 atoms

99.9% CPU use with 104 MPI tasks x 1 OpenMP threads

Minimization stats:
  Stopping criterion = energy tolerance
  Energy initial, next-to-last, final = 
     -1152449.44126126  -1152449.44269833  -1152449.44269833
  Force two-norm initial, final = 0.17580541 0.0001593015
  Force max component initial, final = 0.067623236 3.7025341e-05
  Final line search alpha, max atom move = 1.0000000 3.7025341e-05
  Iterations, force evaluations = 135 270

MPI task timing breakdown:
Section |  min time  |  avg time  |  max time  |%varavg| %total
---------------------------------------------------------------
Pair    | 0.41081    | 1.133      | 1.4873     |  28.7 | 71.91
Neigh   | 0          | 0          | 0          |   0.0 |  0.00
Comm    | 0.024711   | 0.25351    | 0.76686    |  42.4 | 16.09
Output  | 0          | 0          | 0          |   0.0 |  0.00
Modify  | 1.6733e-05 | 0.0022312  | 0.0047705  |   2.2 |  0.14
Other   |            | 0.1868     |            |       | 11.86

Nlocal:        2776.45 ave        3961 max           0 min
Histogram: 8 4 4 0 6 10 8 2 28 34
Nghost:        3879.01 ave        5424 max         232 min
Histogram: 8 0 8 0 16 0 8 8 16 40
Neighs:        79213.4 ave      115455 max           0 min
Histogram: 8 4 4 0 10 6 8 8 24 32

Total # of neighbors = 8238195
Ave neighs/atom = 28.530447
Neighbor list builds = 0
Dangerous builds = 0
The dot product: -2.69900081711157e-08
Setting atom values ...
  1 settings made for x
  1 settings made for y
  1 settings made for z
Setting up cg style minimization ...
  Unit style    : metal
  Current step  : 638
Per MPI rank memory allocation (min/avg/max) = 5.441 | 5.816 | 6.074 Mbytes
Step PotEng KinEng TotEng v_fx v_fy v_fz 
     638   -1152449.4            0   -1152449.4 -0.017678345 -0.018500666 0.0086934345 
     758   -1152449.4            0   -1152449.4 -1.0202988e-05 -5.0237851e-06 4.461296e-05 
Loop time of 1.39524 on 104 procs for 120 steps with 288751 atoms

99.9% CPU use with 104 MPI tasks x 1 OpenMP threads

Minimization stats:
  Stopping criterion = energy tolerance
  Energy initial, next-to-last, final = 
     -1152449.43593067   -1152449.4373659   -1152449.4373659
  Force two-norm initial, final = 0.1753296 0.00021587012
  Force max component initial, final = 0.065676257 5.6586052e-05
  Final line search alpha, max atom move = 1.0000000 5.6586052e-05
  Iterations, force evaluations = 120 240

MPI task timing breakdown:
Section |  min time  |  avg time  |  max time  |%varavg| %total
---------------------------------------------------------------
Pair    | 0.36408    | 1.009      | 1.3214     |  27.2 | 72.32
Neigh   | 0          | 0          | 0          |   0.0 |  0.00
Comm    | 0.02383    | 0.22944    | 0.69314    |  40.0 | 16.44
Output  | 0          | 0          | 0          |   0.0 |  0.00
Modify  | 1.5472e-05 | 0.0019825  | 0.0042324  |   2.1 |  0.14
Other   |            | 0.1548     |            |       | 11.10

Nlocal:        2776.45 ave        3961 max           0 min
Histogram: 8 4 4 0 6 10 8 2 28 34
Nghost:        3879.01 ave        5424 max         232 min
Histogram: 8 0 8 0 16 0 8 8 16 40
Neighs:        79213.4 ave      115455 max           0 min
Histogram: 8 4 4 0 10 6 8 8 24 32

Total # of neighbors = 8238196
Ave neighs/atom = 28.530450
Neighbor list builds = 0
Dangerous builds = 0
The dot product: 3.72414614112856e-08
Setting atom values ...
  1 settings made for x
  1 settings made for y
  1 settings made for z
Setting up cg style minimization ...
  Unit style    : metal
  Current step  : 758
Per MPI rank memory allocation (min/avg/max) = 5.441 | 5.816 | 6.074 Mbytes
Step PotEng KinEng TotEng v_fx v_fy v_fz 
     758   -1152449.4            0   -1152449.4 -0.017544593 -0.018930004 0.0065482552 
     868   -1152449.4            0   -1152449.4 1.8232688e-05 2.8209867e-05 4.5345444e-05 
Loop time of 1.28043 on 104 procs for 110 steps with 288751 atoms

99.9% CPU use with 104 MPI tasks x 1 OpenMP threads

Minimization stats:
  Stopping criterion = energy tolerance
  Energy initial, next-to-last, final = 
     -1152449.42921393  -1152449.43064902  -1152449.43064902
  Force two-norm initial, final = 0.17503711 0.00028752425
  Force max component initial, final = 0.063862615 6.3035418e-05
  Final line search alpha, max atom move = 1.0000000 6.3035418e-05
  Iterations, force evaluations = 110 220

MPI task timing breakdown:
Section |  min time  |  avg time  |  max time  |%varavg| %total
---------------------------------------------------------------
Pair    | 0.33445    | 0.9238     | 1.2092     |  25.9 | 72.15
Neigh   | 0          | 0          | 0          |   0.0 |  0.00
Comm    | 0.019325   | 0.208      | 0.63446    |  38.4 | 16.24
Output  | 0          | 0          | 0          |   0.0 |  0.00
Modify  | 1.3761e-05 | 0.0018188  | 0.0038737  |   2.0 |  0.14
Other   |            | 0.1468     |            |       | 11.47

Nlocal:        2776.45 ave        3961 max           0 min
Histogram: 8 4 4 0 6 10 8 2 28 34
Nghost:        3879.01 ave        5424 max         232 min
Histogram: 8 0 8 0 16 0 8 8 16 40
Neighs:        79213.4 ave      115455 max           0 min
Histogram: 8 4 4 0 10 6 8 8 24 32

Total # of neighbors = 8238198
Ave neighs/atom = 28.530457
Neighbor list builds = 0
Dangerous builds = 0
The dot product: 6.92872570456276e-08
Setting atom values ...
  1 settings made for x
  1 settings made for y
  1 settings made for z
Setting up cg style minimization ...
  Unit style    : metal
  Current step  : 868
Per MPI rank memory allocation (min/avg/max) = 5.441 | 5.816 | 6.074 Mbytes
Step PotEng KinEng TotEng v_fx v_fy v_fz 
     868   -1152449.4            0   -1152449.4 -0.017694562 -0.019634319 0.0049164851 
    1000   -1152449.4            0   -1152449.4 2.8436904e-06 1.0579334e-05 4.0662177e-05 
    1025   -1152449.4            0   -1152449.4 -1.5932059e-05 -2.2332133e-05 -2.1556803e-05 
Loop time of 1.82061 on 104 procs for 157 steps with 288751 atoms

99.9% CPU use with 104 MPI tasks x 1 OpenMP threads

Minimization stats:
  Stopping criterion = energy tolerance
  Energy initial, next-to-last, final = 
     -1152449.42107546   -1152449.4225105   -1152449.4225105
  Force two-norm initial, final = 0.17474598 0.00021650782
  Force max component initial, final = 0.063438304 2.7989014e-05
  Final line search alpha, max atom move = 1.0000000 2.7989014e-05
  Iterations, force evaluations = 157 314

MPI task timing breakdown:
Section |  min time  |  avg time  |  max time  |%varavg| %total
---------------------------------------------------------------
Pair    | 0.47884    | 1.3194     | 1.7261     |  31.0 | 72.47
Neigh   | 0          | 0          | 0          |   0.0 |  0.00
Comm    | 0.030095   | 0.29987    | 0.90326    |  45.7 | 16.47
Output  | 0.00014067 | 0.00014368 | 0.00028045 |   0.0 |  0.01
Modify  | 1.9073e-05 | 0.002594   | 0.0055445  |   2.4 |  0.14
Other   |            | 0.1986     |            |       | 10.91

Nlocal:        2776.45 ave        3961 max           0 min
Histogram: 8 4 4 0 6 10 8 2 28 34
Nghost:        3879.01 ave        5424 max         232 min
Histogram: 8 0 8 0 16 0 8 8 16 40
Neighs:        79213.4 ave      115455 max           0 min
Histogram: 8 4 4 0 10 6 8 8 24 32

Total # of neighbors = 8238198
Ave neighs/atom = 28.530457
Neighbor list builds = 0
Dangerous builds = 0
The dot product: -4.10981908083947e-08
Setting atom values ...
  1 settings made for x
  1 settings made for y
  1 settings made for z
Setting up cg style minimization ...
  Unit style    : metal
  Current step  : 1025
Per MPI rank memory allocation (min/avg/max) = 5.441 | 5.816 | 6.074 Mbytes
Step PotEng KinEng TotEng v_fx v_fy v_fz 
    1025   -1152449.4            0   -1152449.4 -0.017812004 -0.020185623 0.0038488645 
    1205   -1152449.4            0   -1152449.4 -3.3204596e-06 -8.1623739e-07 1.6058578e-05 
Loop time of 2.11062 on 104 procs for 180 steps with 288751 atoms

99.9% CPU use with 104 MPI tasks x 1 OpenMP threads

Minimization stats:
  Stopping criterion = energy tolerance
  Energy initial, next-to-last, final = 
     -1152449.41148395  -1152449.41291874  -1152449.41291874
  Force two-norm initial, final = 0.17448391 0.00010174023
  Force max component initial, final = 0.064595429 2.3106355e-05
  Final line search alpha, max atom move = 1.0000000 2.3106355e-05
  Iterations, force evaluations = 180 360

MPI task timing breakdown:
Section |  min time  |  avg time  |  max time  |%varavg| %total
---------------------------------------------------------------
Pair    | 0.54848    | 1.5137     | 1.9784     |  33.2 | 71.72
Neigh   | 0          | 0          | 0          |   0.0 |  0.00
Comm    | 0.033607   | 0.34398    | 1.0242     |  48.6 | 16.30
Output  | 0          | 0          | 0          |   0.0 |  0.00
Modify  | 2.2268e-05 | 0.0029719  | 0.0063625  |   2.6 |  0.14
Other   |            | 0.25       |            |       | 11.84

Nlocal:        2776.45 ave        3961 max           0 min
Histogram: 8 4 4 0 6 10 8 2 28 34
Nghost:        3879.01 ave        5424 max         232 min
Histogram: 8 0 8 0 16 0 8 8 16 40
Neighs:        79213.5 ave      115455 max           0 min
Histogram: 8 4 4 0 10 6 8 8 24 32

Total # of neighbors = 8238201
Ave neighs/atom = 28.530467
Neighbor list builds = 0
Dangerous builds = 0
The dot product: 1.35601998560637e-08
Setting atom values ...
  1 settings made for x
  1 settings made for y
  1 settings made for z
Setting up cg style minimization ...
  Unit style    : metal
  Current step  : 1205
Per MPI rank memory allocation (min/avg/max) = 5.441 | 5.816 | 6.074 Mbytes
Step PotEng KinEng TotEng v_fx v_fy v_fz 
    1205   -1152449.4            0   -1152449.4 -0.017570233 -0.020204201 0.0032472731 
    1330   -1152449.4            0   -1152449.4 6.4156406e-07 1.5036006e-06 3.6343821e-06 
Loop time of 1.46224 on 104 procs for 125 steps with 288751 atoms

99.9% CPU use with 104 MPI tasks x 1 OpenMP threads

Minimization stats:
  Stopping criterion = energy tolerance
  Energy initial, next-to-last, final = 
     -1152449.40041462  -1152449.40185128  -1152449.40185128
  Force two-norm initial, final = 0.17405241 0.00018426008
  Force max component initial, final = 0.065685185 3.1407044e-05
  Final line search alpha, max atom move = 1.0000000 3.1407044e-05
  Iterations, force evaluations = 125 250

MPI task timing breakdown:
Section |  min time  |  avg time  |  max time  |%varavg| %total
---------------------------------------------------------------
Pair    | 0.37752    | 1.0533     | 1.3723     |  27.8 | 72.03
Neigh   | 0          | 0          | 0          |   0.0 |  0.00
Comm    | 0.030118   | 0.24158    | 0.72122    |  40.8 | 16.52
Output  | 0          | 0          | 0          |   0.0 |  0.00
Modify  | 1.5505e-05 | 0.0020654  | 0.0044046  |   2.2 |  0.14
Other   |            | 0.1653     |            |       | 11.30

Nlocal:        2776.45 ave        3960 max           0 min
Histogram: 8 4 4 0 4 12 8 2 28 34
Nghost:        3879.01 ave        5424 max         232 min
Histogram: 8 0 8 0 16 0 8 8 16 40
Neighs:        79213.5 ave      115412 max           0 min
Histogram: 8 4 4 0 10 6 8 8 24 32

Total # of neighbors = 8238202
Ave neighs/atom = 28.530471
Neighbor list builds = 0
Dangerous builds = 0
The dot product: 5.33227985613252e-09
Setting atom values ...
  1 settings made for x
  1 settings made for y
  1 settings made for z
Setting up cg style minimization ...
  Unit style    : metal
  Current step  : 1330
Per MPI rank memory allocation (min/avg/max) = 5.441 | 5.816 | 6.074 Mbytes
Step PotEng KinEng TotEng v_fx v_fy v_fz 
    1330   -1152449.4            0   -1152449.4 -0.016754531 -0.019470088 0.0029716959 
    1548   -1152449.4            0   -1152449.4 7.9719193e-07 -5.5528983e-07 -6.9972869e-06 
Loop time of 2.52281 on 104 procs for 218 steps with 288751 atoms

99.9% CPU use with 104 MPI tasks x 1 OpenMP threads

Minimization stats:
  Stopping criterion = energy tolerance
  Energy initial, next-to-last, final = 
     -1152449.38785379  -1152449.38929634  -1152449.38929634
  Force two-norm initial, final = 0.17348888 2.9391298e-05
  Force max component initial, final = 0.066767109 6.9972869e-06
  Final line search alpha, max atom move = 1.0000000 6.9972869e-06
  Iterations, force evaluations = 218 436

MPI task timing breakdown:
Section |  min time  |  avg time  |  max time  |%varavg| %total
---------------------------------------------------------------
Pair    | 0.66592    | 1.8275     | 2.3856     |  36.2 | 72.44
Neigh   | 0          | 0          | 0          |   0.0 |  0.00
Comm    | 0.037756   | 0.40936    | 1.2373     |  54.0 | 16.23
Output  | 0          | 0          | 0          |   0.0 |  0.00
Modify  | 2.6904e-05 | 0.0035982  | 0.007777   |   2.8 |  0.14
Other   |            | 0.2824     |            |       | 11.19

Nlocal:        2776.45 ave        3959 max           0 min
Histogram: 8 4 4 0 4 12 8 3 27 34
Nghost:        3879.01 ave        5429 max         232 min
Histogram: 8 0 8 0 16 0 8 8 16 40
Neighs:        79213.5 ave      115383 max           0 min
Histogram: 8 4 4 0 10 6 8 8 24 32

Total # of neighbors = 8238203
Ave neighs/atom = 28.530474
Neighbor list builds = 0
Dangerous builds = 0
The dot product: -1.00870369914953e-08
Setting atom values ...
  1 settings made for x
  1 settings made for y
  1 settings made for z
Setting up cg style minimization ...
  Unit style    : metal
  Current step  : 1548
Per MPI rank memory allocation (min/avg/max) = 5.441 | 5.816 | 6.074 Mbytes
Step PotEng KinEng TotEng v_fx v_fy v_fz 
    1548   -1152449.4            0   -1152449.4 -0.015124109 -0.017567835 0.0036514839 
    1675   -1152449.4            0   -1152449.4 6.0570857e-07 -2.7360336e-06 -1.5057741e-05 
Loop time of 1.49511 on 104 procs for 127 steps with 288751 atoms

99.9% CPU use with 104 MPI tasks x 1 OpenMP threads

Minimization stats:
  Stopping criterion = energy tolerance
  Energy initial, next-to-last, final = 
     -1152449.37379657  -1152449.37525407  -1152449.37525407
  Force two-norm initial, final = 0.17280836 0.00020331651
  Force max component initial, final = 0.067994205 3.1455221e-05
  Final line search alpha, max atom move = 1.0000000 3.1455221e-05
  Iterations, force evaluations = 127 254

MPI task timing breakdown:
Section |  min time  |  avg time  |  max time  |%varavg| %total
---------------------------------------------------------------
Pair    | 0.38614    | 1.0689     | 1.3954     |  27.9 | 71.49
Neigh   | 0          | 0          | 0          |   0.0 |  0.00
Comm    | 0.022007   | 0.24282    | 0.72851    |  41.1 | 16.24
Output  | 0          | 0          | 0          |   0.0 |  0.00
Modify  | 1.5823e-05 | 0.0020985  | 0.0045142  |   2.2 |  0.14
Other   |            | 0.1813     |            |       | 12.13

Nlocal:        2776.45 ave        3956 max           0 min
Histogram: 8 4 4 0 4 12 8 0 30 34
Nghost:        3879.01 ave        5429 max         232 min
Histogram: 8 0 8 0 16 0 8 8 16 40
Neighs:        79213.5 ave      115312 max           0 min
Histogram: 8 4 4 0 10 6 8 8 24 32

Total # of neighbors = 8238204
Ave neighs/atom = 28.530478
Neighbor list builds = 0
Dangerous builds = 0
The dot product: -3.47473341540483e-08
Setting atom values ...
  1 settings made for x
  1 settings made for y
  1 settings made for z
Setting up cg style minimization ...
  Unit style    : metal
  Current step  : 1675
Per MPI rank memory allocation (min/avg/max) = 5.441 | 5.816 | 6.074 Mbytes
Step PotEng KinEng TotEng v_fx v_fy v_fz 
    1675   -1152449.4            0   -1152449.4 -0.011692336 -0.013171732 0.0055670265 
    1847   -1152449.4            0   -1152449.4 6.5240369e-06 5.2033869e-06 -1.1680285e-05 
Loop time of 1.98368 on 104 procs for 172 steps with 288751 atoms

99.9% CPU use with 104 MPI tasks x 1 OpenMP threads

Minimization stats:
  Stopping criterion = energy tolerance
  Energy initial, next-to-last, final = 
     -1152449.35825161  -1152449.35976738  -1152449.35976738
  Force two-norm initial, final = 0.17205192 0.0002021681
  Force max component initial, final = 0.069682983 4.5589264e-05
  Final line search alpha, max atom move = 1.0000000 4.5589264e-05
  Iterations, force evaluations = 172 344

MPI task timing breakdown:
Section |  min time  |  avg time  |  max time  |%varavg| %total
---------------------------------------------------------------
Pair    | 0.52247    | 1.4412     | 1.8812     |  32.2 | 72.65
Neigh   | 0          | 0          | 0          |   0.0 |  0.00
Comm    | 0.033315   | 0.32064    | 0.98032    |  48.1 | 16.16
Output  | 0          | 0          | 0          |   0.0 |  0.00
Modify  | 2.1412e-05 | 0.0028319  | 0.0060572  |   2.5 |  0.14
Other   |            | 0.219      |            |       | 11.04

Nlocal:        2776.45 ave        3954 max           0 min
Histogram: 8 4 4 0 4 12 8 0 30 34
Nghost:        3878.97 ave        5429 max         232 min
Histogram: 8 0 8 0 16 0 8 8 16 40
Neighs:        79213.5 ave      115250 max           0 min
Histogram: 8 4 4 0 10 6 8 8 24 32

Total # of neighbors = 8238205
Ave neighs/atom = 28.530481
Neighbor list builds = 0
Dangerous builds = 0
The dot product: -1.32508452564062e-09
Setting atom values ...
  1 settings made for x
  1 settings made for y
  1 settings made for z
Setting up cg style minimization ...
  Unit style    : metal
  Current step  : 1847
Per MPI rank memory allocation (min/avg/max) = 5.441 | 5.816 | 6.074 Mbytes
Step PotEng KinEng TotEng v_fx v_fy v_fz 
    1847   -1152449.3            0   -1152449.3 -0.0025233394 0.00065074964  0.013659894 
    2000   -1152449.3            0   -1152449.3  -2.6532e-05 -1.4274514e-05 7.103548e-05 
    2017   -1152449.3            0   -1152449.3 1.8189869e-05 5.2233833e-06 -6.4386738e-05 
Loop time of 1.96749 on 104 procs for 170 steps with 288751 atoms

99.9% CPU use with 104 MPI tasks x 1 OpenMP threads

Minimization stats:
  Stopping criterion = energy tolerance
  Energy initial, next-to-last, final = 
     -1152449.34132765  -1152449.34323324  -1152449.34323324
  Force two-norm initial, final = 0.17193896 0.00024905343
  Force max component initial, final = 0.07311904 6.4386738e-05
  Final line search alpha, max atom move = 1.0000000 6.4386738e-05
  Iterations, force evaluations = 170 340

MPI task timing breakdown:
Section |  min time  |  avg time  |  max time  |%varavg| %total
---------------------------------------------------------------
Pair    | 0.515      | 1.4251     | 1.8667     |  32.3 | 72.43
Neigh   | 0          | 0          | 0          |   0.0 |  0.00
Comm    | 0.02973    | 0.32402    | 0.97828    |  47.5 | 16.47
Output  | 9.071e-05  | 0.00010091 | 0.00024186 |   0.0 |  0.01
Modify  | 2.1223e-05 | 0.0028018  | 0.0059705  |   2.5 |  0.14
Other   |            | 0.2154     |            |       | 10.95

Nlocal:        2776.45 ave        3951 max           0 min
Histogram: 8 4 4 0 4 12 8 0 30 34
Nghost:        3878.99 ave        5429 max         232 min
Histogram: 8 0 8 0 16 0 8 8 16 40
Neighs:        79213.5 ave      115157 max           0 min
Histogram: 8 4 4 0 10 6 8 8 24 32

Total # of neighbors = 8238203
Ave neighs/atom = 28.530474
Neighbor list builds = 0
Dangerous builds = 0
The dot product: -4.37329246932676e-07
Setting atom values ...
  1 settings made for x
  1 settings made for y
  1 settings made for z
Setting up cg style minimization ...
  Unit style    : metal
  Current step  : 2017
Per MPI rank memory allocation (min/avg/max) = 5.441 | 5.816 | 6.074 Mbytes
Step PotEng KinEng TotEng v_fx v_fy v_fz 
    2017   -1152449.3            0   -1152449.3  0.011525813  0.030201492  0.033529523 
    2224   -1152449.3            0   -1152449.3 -8.1954799e-06 3.1178312e-07 3.2024059e-05 
Loop time of 2.39826 on 104 procs for 207 steps with 288751 atoms

99.9% CPU use with 104 MPI tasks x 1 OpenMP threads

Minimization stats:
  Stopping criterion = energy tolerance
  Energy initial, next-to-last, final = 
     -1152449.32360821   -1152449.3261612   -1152449.3261612
  Force two-norm initial, final = 0.17814989 0.00011764781
  Force max component initial, final = 0.079894117 3.2024059e-05
  Final line search alpha, max atom move = 1.0000000 3.2024059e-05
  Iterations, force evaluations = 207 414

MPI task timing breakdown:
Section |  min time  |  avg time  |  max time  |%varavg| %total
---------------------------------------------------------------
Pair    | 0.62704    | 1.7356     | 2.2709     |  35.6 | 72.37
Neigh   | 0          | 0          | 0          |   0.0 |  0.00
Comm    | 0.035505   | 0.3908     | 1.1795     |  52.6 | 16.30
Output  | 0          | 0          | 0          |   0.0 |  0.00
Modify  | 2.5408e-05 | 0.0034135  | 0.0072764  |   2.8 |  0.14
Other   |            | 0.2684     |            |       | 11.19

Nlocal:        2776.45 ave        3950 max           0 min
Histogram: 8 4 4 0 4 12 8 0 28 36
Nghost:        3879.08 ave        5429 max         232 min
Histogram: 8 0 8 0 16 0 8 8 16 40
Neighs:        79213.5 ave      115117 max           0 min
Histogram: 8 4 4 0 10 6 8 8 24 32

Total # of neighbors = 8238205
Ave neighs/atom = 28.530481
Neighbor list builds = 0
Dangerous builds = 0
The dot product: 3.8864816267065e-07
Setting atom values ...
  1 settings made for x
  1 settings made for y
  1 settings made for z
Setting up cg style minimization ...
  Unit style    : metal
  Current step  : 2224
Per MPI rank memory allocation (min/avg/max) = 5.441 | 5.816 | 6.074 Mbytes
Step PotEng KinEng TotEng v_fx v_fy v_fz 
    2224   -1152449.3            0   -1152449.3  0.018270284  0.058838901   0.04679584 
    2414   -1152449.3            0   -1152449.3 -2.0753836e-05 1.7183118e-07 6.5949644e-05 
Loop time of 2.19722 on 104 procs for 190 steps with 288751 atoms

99.9% CPU use with 104 MPI tasks x 1 OpenMP threads

Minimization stats:
  Stopping criterion = energy tolerance
  Energy initial, next-to-last, final = 
     -1152449.30558581   -1152449.3084938   -1152449.3084938
  Force two-norm initial, final = 0.18923745 0.00019998955
  Force max component initial, final = 0.089175027 6.5949644e-05
  Final line search alpha, max atom move = 1.0000000 6.5949644e-05
  Iterations, force evaluations = 190 380

MPI task timing breakdown:
Section |  min time  |  avg time  |  max time  |%varavg| %total
---------------------------------------------------------------
Pair    | 0.57587    | 1.5959     | 2.0844     |  34.1 | 72.63
Neigh   | 0          | 0          | 0          |   0.0 |  0.00
Comm    | 0.035371   | 0.36155    | 1.0949     |  50.6 | 16.45
Output  | 0          | 0          | 0          |   0.0 |  0.00
Modify  | 2.3506e-05 | 0.0031287  | 0.0067096  |   2.6 |  0.14
Other   |            | 0.2366     |            |       | 10.77

Nlocal:        2776.45 ave        3952 max           0 min
Histogram: 8 4 4 0 4 12 8 0 30 34
Nghost:        3879.08 ave        5429 max         232 min
Histogram: 8 0 8 0 16 0 8 8 16 40
Neighs:        79213.5 ave      115182 max           0 min
Histogram: 8 4 4 0 10 6 8 8 24 32

Total # of neighbors = 8238206
Ave neighs/atom = 28.530485
Neighbor list builds = 0
Dangerous builds = 0
The dot product: 7.49635474097327e-07
Setting atom values ...
  1 settings made for x
  1 settings made for y
  1 settings made for z
Setting up cg style minimization ...
  Unit style    : metal
  Current step  : 2414
Per MPI rank memory allocation (min/avg/max) = 5.441 | 5.816 | 6.074 Mbytes
Step PotEng KinEng TotEng v_fx v_fy v_fz 
    2414   -1152449.3            0   -1152449.3  0.016264456  0.068189739  0.041303706 
    2678   -1152449.3            0   -1152449.3 1.9980121e-09 6.6166536e-09 2.8483554e-09 
Loop time of 3.06288 on 104 procs for 264 steps with 288751 atoms

99.9% CPU use with 104 MPI tasks x 1 OpenMP threads

Minimization stats:
  Stopping criterion = energy tolerance
  Energy initial, next-to-last, final = 
     -1152449.28687994  -1152449.28971186  -1152449.28971186
  Force two-norm initial, final = 0.19147306 9.4743284e-06
  Force max component initial, final = 0.098136615 1.0497710e-06
  Final line search alpha, max atom move = 1.0000000 1.0497710e-06
  Iterations, force evaluations = 264 528

MPI task timing breakdown:
Section |  min time  |  avg time  |  max time  |%varavg| %total
---------------------------------------------------------------
Pair    | 0.79947    | 2.2103     | 2.9015     |  40.2 | 72.16
Neigh   | 0          | 0          | 0          |   0.0 |  0.00
Comm    | 0.045805   | 0.4994     | 1.5047     |  59.1 | 16.31
Output  | 0          | 0          | 0          |   0.0 |  0.00
Modify  | 3.2323e-05 | 0.0043538  | 0.0093405  |   3.1 |  0.14
Other   |            | 0.3488     |            |       | 11.39

Nlocal:        2776.45 ave        3955 max           0 min
Histogram: 8 4 4 0 4 12 8 0 30 34
Nghost:        3879.12 ave        5426 max         232 min
Histogram: 8 0 8 0 16 0 8 8 16 40
Neighs:        79213.5 ave      115293 max           0 min
Histogram: 8 4 4 0 10 6 8 8 24 32

Total # of neighbors = 8238204
Ave neighs/atom = 28.530478
Neighbor list builds = 0
Dangerous builds = 0
The dot product: 1.83076912295048e-10
Setting atom values ...
  1 settings made for x
  1 settings made for y
  1 settings made for z
Setting up cg style minimization ...
  Unit style    : metal
  Current step  : 2678
Per MPI rank memory allocation (min/avg/max) = 5.441 | 5.816 | 6.074 Mbytes
Step PotEng KinEng TotEng v_fx v_fy v_fz 
    2678   -1152449.3            0   -1152449.3  0.011374587  0.065407157  0.032250214 
    2906   -1152449.3            0   -1152449.3 -6.3406609e-07 -1.2448411e-06 4.3054967e-07 
Loop time of 2.64989 on 104 procs for 228 steps with 288751 atoms

99.9% CPU use with 104 MPI tasks x 1 OpenMP threads

Minimization stats:
  Stopping criterion = energy tolerance
  Energy initial, next-to-last, final = 
     -1152449.26704597  -1152449.26971361  -1152449.26971361
  Force two-norm initial, final = 0.18850469 4.8724190e-05
  Force max component initial, final = 0.10535727 7.8890619e-06
  Final line search alpha, max atom move = 1.0000000 7.8890619e-06
  Iterations, force evaluations = 228 456

MPI task timing breakdown:
Section |  min time  |  avg time  |  max time  |%varavg| %total
---------------------------------------------------------------
Pair    | 0.69211    | 1.9195     | 2.5147     |  37.5 | 72.44
Neigh   | 0          | 0          | 0          |   0.0 |  0.00
Comm    | 0.039354   | 0.43819    | 1.3096     |  55.1 | 16.54
Output  | 0          | 0          | 0          |   0.0 |  0.00
Modify  | 2.7965e-05 | 0.0037619  | 0.0080424  |   2.9 |  0.14
Other   |            | 0.2884     |            |       | 10.89

Nlocal:        2776.45 ave        3957 max           0 min
Histogram: 8 4 4 0 4 12 8 4 26 34
Nghost:        3879.12 ave        5424 max         232 min
Histogram: 8 0 8 0 16 0 8 8 16 40
Neighs:        79213.5 ave      115338 max           0 min
Histogram: 8 4 4 0 10 6 8 8 24 32

Total # of neighbors = 8238209
Ave neighs/atom = 28.530495
Neighbor list builds = 0
Dangerous builds = 0
The dot product: -2.04810506250644e-08
Setting atom values ...
  1 settings made for x
  1 settings made for y
  1 settings made for z
Setting up cg style minimization ...
  Unit style    : metal
  Current step  : 2906
Per MPI rank memory allocation (min/avg/max) = 5.441 | 5.816 | 6.074 Mbytes
Step PotEng KinEng TotEng v_fx v_fy v_fz 
    2906   -1152449.2            0   -1152449.2 0.0060139224  0.057236077  0.026007836 
    3000   -1152449.2            0   -1152449.2 -7.9781321e-05 -2.9519491e-06 0.00018177911 
    3141   -1152449.2            0   -1152449.2 -2.2502815e-06 1.3818311e-07  5.28143e-06 
Loop time of 2.72887 on 104 procs for 235 steps with 288751 atoms

99.9% CPU use with 104 MPI tasks x 1 OpenMP threads

Minimization stats:
  Stopping criterion = energy tolerance
  Energy initial, next-to-last, final = 
     -1152449.24606676  -1152449.24843934  -1152449.24843934
  Force two-norm initial, final = 0.18418365 3.1168089e-05
  Force max component initial, final = 0.1108301 5.2814300e-06
  Final line search alpha, max atom move = 1.0000000 5.2814300e-06
  Iterations, force evaluations = 235 470

MPI task timing breakdown:
Section |  min time  |  avg time  |  max time  |%varavg| %total
---------------------------------------------------------------
Pair    | 0.71829    | 1.9711     | 2.58       |  37.7 | 72.23
Neigh   | 0          | 0          | 0          |   0.0 |  0.00
Comm    | 0.042422   | 0.44121    | 1.3283     |  55.9 | 16.17
Output  | 0.00013647 | 0.0001454  | 0.0002664  |   0.0 |  0.01
Modify  | 2.9028e-05 | 0.003875   | 0.0082915  |   2.9 |  0.14
Other   |            | 0.3125     |            |       | 11.45

Nlocal:        2776.45 ave        3959 max           0 min
Histogram: 8 4 4 0 4 12 8 3 27 34
Nghost:        3879.12 ave        5424 max         232 min
Histogram: 8 0 8 0 16 0 8 8 16 40
Neighs:        79213.5 ave      115406 max           0 min
Histogram: 8 4 4 0 10 6 8 8 24 32

Total # of neighbors = 8238207
Ave neighs/atom = 28.530488
Neighbor list builds = 0
Dangerous builds = 0
The dot product: 5.09942985837895e-08
Setting atom values ...
  1 settings made for x
  1 settings made for y
[...]
Other   |            | 0.2413     |            |       | 10.73

Nlocal:        2776.45 ave        3960 max           0 min
Histogram: 8 4 4 0 4 12 8 2 28 34
Nghost:        3879.01 ave        5424 max         232 min
Histogram: 8 0 8 0 16 0 8 8 16 40
Neighs:        79213.3 ave      115432 max           0 min
Histogram: 8 4 4 0 10 6 8 8 24 32

Total # of neighbors = 8238186
Ave neighs/atom = 28.530415
Neighbor list builds = 0
Dangerous builds = 0
The dot product: -5.69584939976682e-09
Setting atom values ...
  1 settings made for x
  1 settings made for y
  1 settings made for z
Setting up cg style minimization ...
  Unit style    : metal
  Current step  : 25005
Per MPI rank memory allocation (min/avg/max) = 5.441 | 5.816 | 6.074 Mbytes
Step PotEng KinEng TotEng v_fx v_fy v_fz 
   25005   -1152449.2            0   -1152449.2 -0.0035140717  0.011949296  0.016925504 
   25228   -1152449.2            0   -1152449.2 8.968338e-06 -2.7959241e-07 -6.67455e-06 
Loop time of 2.56795 on 104 procs for 223 steps with 288751 atoms

99.9% CPU use with 104 MPI tasks x 1 OpenMP threads

Minimization stats:
  Stopping criterion = energy tolerance
  Energy initial, next-to-last, final = 
        -1152449.24616  -1152449.24762456  -1152449.24762456
  Force two-norm initial, final = 0.16607079 3.4562820e-05
  Force max component initial, final = 0.082371224 9.4994169e-06
  Final line search alpha, max atom move = 1.0000000 9.4994169e-06
  Iterations, force evaluations = 223 446

MPI task timing breakdown:
Section |  min time  |  avg time  |  max time  |%varavg| %total
---------------------------------------------------------------
Pair    | 0.67403    | 1.8679     | 2.4151     |  37.0 | 72.74
Neigh   | 0          | 0          | 0          |   0.0 |  0.00
Comm    | 0.046111   | 0.42302    | 1.2861     |  54.8 | 16.47
Output  | 0          | 0          | 0          |   0.0 |  0.00
Modify  | 2.7408e-05 | 0.0036699  | 0.0078398  |   2.9 |  0.14
Other   |            | 0.2734     |            |       | 10.65

Nlocal:        2776.45 ave        3960 max           0 min
Histogram: 8 4 4 0 4 12 8 2 28 34
Nghost:        3879.09 ave        5424 max         232 min
Histogram: 8 0 8 0 16 0 8 8 16 40
Neighs:        79213.3 ave      115422 max           0 min
Histogram: 8 4 4 0 10 6 8 8 24 32

Total # of neighbors = 8238186
Ave neighs/atom = 28.530415
Neighbor list builds = 0
Dangerous builds = 0
The dot product: -6.74620652129158e-09
Setting atom values ...
  1 settings made for x
  1 settings made for y
  1 settings made for z
Setting up cg style minimization ...
  Unit style    : metal
  Current step  : 25228
Per MPI rank memory allocation (min/avg/max) = 5.441 | 5.816 | 6.074 Mbytes
Step PotEng KinEng TotEng v_fx v_fy v_fz 
   25228   -1152449.2            0   -1152449.2 -0.0036043066  0.011915352  0.016972076 
   25427   -1152449.2            0   -1152449.2 -8.9651141e-06 6.1818192e-07 7.0860774e-06 
Loop time of 2.28288 on 104 procs for 199 steps with 288751 atoms

99.9% CPU use with 104 MPI tasks x 1 OpenMP threads

Minimization stats:
  Stopping criterion = energy tolerance
  Energy initial, next-to-last, final = 
     -1152449.23774284  -1152449.23920985  -1152449.23920985
  Force two-norm initial, final = 0.1659314 9.3012641e-05
  Force max component initial, final = 0.083705369 8.9651141e-06
  Final line search alpha, max atom move = 1.0000000 8.9651141e-06
  Iterations, force evaluations = 199 398

MPI task timing breakdown:
Section |  min time  |  avg time  |  max time  |%varavg| %total
---------------------------------------------------------------
Pair    | 0.6023     | 1.6655     | 2.1644     |  34.9 | 72.96
Neigh   | 0          | 0          | 0          |   0.0 |  0.00
Comm    | 0.044076   | 0.37245    | 1.1347     |  51.5 | 16.31
Output  | 0          | 0          | 0          |   0.0 |  0.00
Modify  | 2.3823e-05 | 0.0032721  | 0.0069704  |   2.7 |  0.14
Other   |            | 0.2417     |            |       | 10.59

Nlocal:        2776.45 ave        3960 max           0 min
Histogram: 8 4 4 0 4 12 8 4 26 34
Nghost:        3879.12 ave        5424 max         232 min
Histogram: 8 0 8 0 16 0 8 8 16 40
Neighs:        79213.3 ave      115431 max           0 min
Histogram: 8 4 4 0 10 6 8 8 24 32

Total # of neighbors = 8238184
Ave neighs/atom = 28.530409
Neighbor list builds = 0
Dangerous builds = 0
The dot product: 8.65607563705732e-09
Setting atom values ...
  1 settings made for x
  1 settings made for y
  1 settings made for z
Setting up cg style minimization ...
  Unit style    : metal
  Current step  : 25427
Per MPI rank memory allocation (min/avg/max) = 5.441 | 5.816 | 6.074 Mbytes
Step PotEng KinEng TotEng v_fx v_fy v_fz 
   25427   -1152449.2            0   -1152449.2 -0.0066942014  0.011925592  0.019197424 
   25604   -1152449.2            0   -1152449.2 -4.7335076e-05 5.4679243e-08 3.3548449e-05 
Loop time of 2.04142 on 104 procs for 177 steps with 288751 atoms

99.9% CPU use with 104 MPI tasks x 1 OpenMP threads

Minimization stats:
  Stopping criterion = energy tolerance
  Energy initial, next-to-last, final = 
     -1152449.22781657  -1152449.22926844  -1152449.22926844
  Force two-norm initial, final = 0.1657564 0.00016504333
  Force max component initial, final = 0.085014881 4.7335076e-05
  Final line search alpha, max atom move = 1.0000000 4.7335076e-05
  Iterations, force evaluations = 177 354

MPI task timing breakdown:
Section |  min time  |  avg time  |  max time  |%varavg| %total
---------------------------------------------------------------
Pair    | 0.53627    | 1.4843     | 1.9199     |  33.0 | 72.71
Neigh   | 0          | 0          | 0          |   0.0 |  0.00
Comm    | 0.032331   | 0.33735    | 1.0165     |  48.6 | 16.53
Output  | 0          | 0          | 0          |   0.0 |  0.00
Modify  | 2.1318e-05 | 0.0029136  | 0.00621    |   2.6 |  0.14
Other   |            | 0.2169     |            |       | 10.62

Nlocal:        2776.45 ave        3960 max           0 min
Histogram: 8 4 4 0 4 12 8 4 26 34
Nghost:        3879.12 ave        5424 max         232 min
Histogram: 8 0 8 0 16 0 8 8 16 40
Neighs:        79213.3 ave      115422 max           0 min
Histogram: 8 4 4 0 10 6 8 8 24 32

Total # of neighbors = 8238182
Ave neighs/atom = 28.530402
Neighbor list builds = 0
Dangerous builds = 0
The dot product: 7.55820677773069e-08
Setting atom values ...
  1 settings made for x
  1 settings made for y
  1 settings made for z
Setting up cg style minimization ...
  Unit style    : metal
  Current step  : 25604
Per MPI rank memory allocation (min/avg/max) = 5.441 | 5.816 | 6.074 Mbytes
Step PotEng KinEng TotEng v_fx v_fy v_fz 
   25604   -1152449.2            0   -1152449.2 -0.011908601  0.011937817  0.022944722 
   25778   -1152449.2            0   -1152449.2 5.3105973e-05 5.0495775e-07 -3.6999035e-05 
Loop time of 1.99784 on 104 procs for 174 steps with 288751 atoms

99.9% CPU use with 104 MPI tasks x 1 OpenMP threads

Minimization stats:
  Stopping criterion = energy tolerance
  Energy initial, next-to-last, final = 
     -1152449.21654939  -1152449.21799607  -1152449.21799607
  Force two-norm initial, final = 0.16649861 0.00015486372
  Force max component initial, final = 0.086311506 5.3105973e-05
  Final line search alpha, max atom move = 1.0000000 5.3105973e-05
  Iterations, force evaluations = 174 348

MPI task timing breakdown:
Section |  min time  |  avg time  |  max time  |%varavg| %total
---------------------------------------------------------------
Pair    | 0.52699    | 1.4577     | 1.8895     |  32.7 | 72.96
Neigh   | 0          | 0          | 0          |   0.0 |  0.00
Comm    | 0.034693   | 0.32534    | 0.99347    |  48.4 | 16.28
Output  | 0          | 0          | 0          |   0.0 |  0.00
Modify  | 2.0895e-05 | 0.0028636  | 0.0061118  |   2.5 |  0.14
Other   |            | 0.212      |            |       | 10.61

Nlocal:        2776.45 ave        3960 max           0 min
Histogram: 8 4 4 0 4 12 8 4 26 34
Nghost:        3879.09 ave        5424 max         232 min
Histogram: 8 0 8 0 16 0 8 8 16 40
Neighs:        79213.3 ave      115422 max           0 min
Histogram: 8 4 4 0 10 6 8 8 24 32

Total # of neighbors = 8238181
Ave neighs/atom = 28.530398
Neighbor list builds = 0
Dangerous builds = 0
The dot product: -1.9182496983844e-07
Setting atom values ...
  1 settings made for x
  1 settings made for y
  1 settings made for z
Setting up cg style minimization ...
  Unit style    : metal
  Current step  : 25778
Per MPI rank memory allocation (min/avg/max) = 5.441 | 5.816 | 6.074 Mbytes
Step PotEng KinEng TotEng v_fx v_fy v_fz 
   25778   -1152449.2            0   -1152449.2 -0.013342285  0.011839939  0.023915458 
   25982   -1152449.2            0   -1152449.2 1.0409724e-05 -3.2707665e-07 -7.7935626e-06 
Loop time of 2.33879 on 104 procs for 204 steps with 288751 atoms

99.9% CPU use with 104 MPI tasks x 1 OpenMP threads

Minimization stats:
  Stopping criterion = energy tolerance
  Energy initial, next-to-last, final = 
     -1152449.20414021  -1152449.20559391  -1152449.20559391
  Force two-norm initial, final = 0.16661201 4.9601878e-05
  Force max component initial, final = 0.087627661 1.0409724e-05
  Final line search alpha, max atom move = 1.0000000 1.0409724e-05
  Iterations, force evaluations = 204 408

MPI task timing breakdown:
Section |  min time  |  avg time  |  max time  |%varavg| %total
---------------------------------------------------------------
Pair    | 0.61784    | 1.7091     | 2.2116     |  35.3 | 73.07
Neigh   | 0          | 0          | 0          |   0.0 |  0.00
Comm    | 0.034116   | 0.38498    | 1.1838     |  52.5 | 16.46
Output  | 0          | 0          | 0          |   0.0 |  0.00
Modify  | 2.5513e-05 | 0.0033586  | 0.0071838  |   2.8 |  0.14
Other   |            | 0.2414     |            |       | 10.32

Nlocal:        2776.45 ave        3960 max           0 min
Histogram: 8 4 4 0 4 12 8 4 26 34
Nghost:        3879.07 ave        5424 max         232 min
Histogram: 8 0 8 0 16 0 8 8 16 40
Neighs:        79213.3 ave      115422 max           0 min
Histogram: 8 4 4 0 10 6 8 8 24 32

Total # of neighbors = 8238180
Ave neighs/atom = 28.530395
Neighbor list builds = 0
Dangerous builds = 0
The dot product: -4.80151024384312e-08
Setting atom values ...
  1 settings made for x
  1 settings made for y
  1 settings made for z
Setting up cg style minimization ...
  Unit style    : metal
  Current step  : 25982
Per MPI rank memory allocation (min/avg/max) = 5.441 | 5.816 | 6.074 Mbytes
Step PotEng KinEng TotEng v_fx v_fy v_fz 
   25982   -1152449.2            0   -1152449.2 -0.012393181  0.011635755  0.023075258 
   26000   -1152449.2            0   -1152449.2 -0.00016381409 6.9838676e-05 0.00020224998 
   26152   -1152449.2            0   -1152449.2 2.6976703e-07 -5.636356e-07 -8.8212304e-07 
Loop time of 1.9521 on 104 procs for 170 steps with 288751 atoms

99.9% CPU use with 104 MPI tasks x 1 OpenMP threads

Minimization stats:
  Stopping criterion = energy tolerance
  Energy initial, next-to-last, final = 
     -1152449.19061311  -1152449.19205944  -1152449.19205944
  Force two-norm initial, final = 0.16590142 0.00015061079
  Force max component initial, final = 0.088911934 1.9675192e-05
  Final line search alpha, max atom move = 1.0000000 1.9675192e-05
  Iterations, force evaluations = 170 340

MPI task timing breakdown:
Section |  min time  |  avg time  |  max time  |%varavg| %total
---------------------------------------------------------------
Pair    | 0.51488    | 1.4227     | 1.8497     |  32.2 | 72.88
Neigh   | 0          | 0          | 0          |   0.0 |  0.00
Comm    | 0.031242   | 0.31773    | 0.97325    |  47.8 | 16.28
Output  | 9.2505e-05 | 9.8033e-05 | 0.00019388 |   0.0 |  0.01
Modify  | 2.0162e-05 | 0.0027954  | 0.0059855  |   2.5 |  0.14
Other   |            | 0.2088     |            |       | 10.70

Nlocal:        2776.45 ave        3960 max           0 min
Histogram: 8 4 4 0 4 12 8 4 26 34
Nghost:        3879.04 ave        5424 max         232 min
Histogram: 8 0 8 0 16 0 8 8 16 40
Neighs:        79213.2 ave      115440 max           0 min
Histogram: 8 4 4 0 10 6 8 8 24 32

Total # of neighbors = 8238177
Ave neighs/atom = 28.530384
Neighbor list builds = 0
Dangerous builds = 0
The dot product: -5.7589937386244e-09
Setting atom values ...
  1 settings made for x
  1 settings made for y
  1 settings made for z
Setting up cg style minimization ...
  Unit style    : metal
  Current step  : 26152
Per MPI rank memory allocation (min/avg/max) = 5.441 | 5.816 | 6.074 Mbytes
Step PotEng KinEng TotEng v_fx v_fy v_fz 
   26152   -1152449.2            0   -1152449.2 -0.0088247863  0.011281933  0.020172252 
   26315   -1152449.2            0   -1152449.2 2.6241536e-05 2.5639429e-06 -1.5619891e-05 
Loop time of 1.86572 on 104 procs for 163 steps with 288751 atoms

99.9% CPU use with 104 MPI tasks x 1 OpenMP threads

Minimization stats:
  Stopping criterion = energy tolerance
  Energy initial, next-to-last, final = 
     -1152449.17597265  -1152449.17738297  -1152449.17738297
  Force two-norm initial, final = 0.16452081 0.0001936303
  Force max component initial, final = 0.090171005 3.4656229e-05
  Final line search alpha, max atom move = 1.0000000 3.4656229e-05
  Iterations, force evaluations = 163 326

MPI task timing breakdown:
Section |  min time  |  avg time  |  max time  |%varavg| %total
---------------------------------------------------------------
Pair    | 0.49309    | 1.3669     | 1.7681     |  31.7 | 73.26
Neigh   | 0          | 0          | 0          |   0.0 |  0.00
Comm    | 0.028927   | 0.30785    | 0.92496    |  46.8 | 16.50
Output  | 0          | 0          | 0          |   0.0 |  0.00
Modify  | 1.9448e-05 | 0.0026835  | 0.0057332  |   2.5 |  0.14
Other   |            | 0.1883     |            |       | 10.09

Nlocal:        2776.45 ave        3961 max           0 min
Histogram: 8 4 4 0 6 10 8 4 26 34
Nghost:        3879.05 ave        5425 max         232 min
Histogram: 8 0 8 0 16 0 8 8 16 40
Neighs:        79213.2 ave      115465 max           0 min
Histogram: 8 4 4 0 10 6 8 8 24 32

Total # of neighbors = 8238176
Ave neighs/atom = 28.530381
Neighbor list builds = 0
Dangerous builds = 0
The dot product: -7.26723279150974e-08
Setting atom values ...
  1 settings made for x
  1 settings made for y
  1 settings made for z
Setting up cg style minimization ...
  Unit style    : metal
  Current step  : 26315
Per MPI rank memory allocation (min/avg/max) = 5.441 | 5.816 | 6.074 Mbytes
Step PotEng KinEng TotEng v_fx v_fy v_fz 
   26315   -1152449.2            0   -1152449.2 -0.0036438041  0.010682903  0.015786838 
   26482   -1152449.2            0   -1152449.2 1.8064648e-05 1.5329204e-06 -1.1067242e-05 
Loop time of 1.92192 on 104 procs for 167 steps with 288751 atoms

99.9% CPU use with 104 MPI tasks x 1 OpenMP threads

Minimization stats:
  Stopping criterion = energy tolerance
  Energy initial, next-to-last, final = 
     -1152449.16027468  -1152449.16164501  -1152449.16164501
  Force two-norm initial, final = 0.16352046 0.00016286332
  Force max component initial, final = 0.091439546 3.2848100e-05
  Final line search alpha, max atom move = 1.0000000 3.2848100e-05
  Iterations, force evaluations = 167 334

MPI task timing breakdown:
Section |  min time  |  avg time  |  max time  |%varavg| %total
---------------------------------------------------------------
Pair    | 0.50676    | 1.3977     | 1.8144     |  31.8 | 72.72
Neigh   | 0          | 0          | 0          |   0.0 |  0.00
Comm    | 0.039057   | 0.31321    | 0.95327    |  47.1 | 16.30
Output  | 0          | 0          | 0          |   0.0 |  0.00
Modify  | 1.9798e-05 | 0.002748   | 0.0058598  |   2.5 |  0.14
Other   |            | 0.2083     |            |       | 10.84

Nlocal:        2776.45 ave        3961 max           0 min
Histogram: 8 4 4 0 6 10 8 4 26 34
Nghost:        3879.11 ave        5425 max         232 min
Histogram: 8 0 8 0 16 0 8 8 16 40
Neighs:        79213.2 ave      115463 max           0 min
Histogram: 8 4 4 0 10 6 8 8 24 32

Total # of neighbors = 8238174
Ave neighs/atom = 28.530374
Neighbor list builds = 0
Dangerous builds = 0
The dot product: -1.95773939121734e-08
Setting atom values ...
  1 settings made for x
  1 settings made for y
  1 settings made for z
Setting up cg style minimization ...
  Unit style    : metal
  Current step  : 26482
Per MPI rank memory allocation (min/avg/max) = 5.441 | 5.816 | 6.074 Mbytes
Step PotEng KinEng TotEng v_fx v_fy v_fz 
   26482   -1152449.1            0   -1152449.1 -0.00071678299 0.0094374953  0.012183577 
   26666   -1152449.1            0   -1152449.1 -3.8998942e-06 -2.200075e-08 2.7736131e-06 
Loop time of 2.10672 on 104 procs for 184 steps with 288751 atoms

99.9% CPU use with 104 MPI tasks x 1 OpenMP threads

Minimization stats:
  Stopping criterion = energy tolerance
  Energy initial, next-to-last, final = 
     -1152449.14359524  -1152449.14494741  -1152449.14494741
  Force two-norm initial, final = 0.1630219 7.4107157e-05
  Force max component initial, final = 0.092587394 1.2571596e-05
  Final line search alpha, max atom move = 1.0000000 1.2571596e-05
  Iterations, force evaluations = 184 368

MPI task timing breakdown:
Section |  min time  |  avg time  |  max time  |%varavg| %total
---------------------------------------------------------------
Pair    | 0.55738    | 1.5423     | 1.9955     |  33.6 | 73.21
Neigh   | 0          | 0          | 0          |   0.0 |  0.00
Comm    | 0.031715   | 0.34926    | 1.0634     |  49.7 | 16.58
Output  | 0          | 0          | 0          |   0.0 |  0.00
Modify  | 2.2055e-05 | 0.0030258  | 0.0065191  |   2.6 |  0.14
Other   |            | 0.2122     |            |       | 10.07

Nlocal:        2776.45 ave        3961 max           0 min
Histogram: 8 4 4 0 6 10 8 4 26 34
Nghost:        3879.11 ave        5425 max         232 min
Histogram: 8 0 8 0 16 0 8 8 16 40
Neighs:        79213.2 ave      115464 max           0 min
Histogram: 8 4 4 0 10 6 8 8 24 32

Total # of neighbors = 8238175
Ave neighs/atom = 28.530377
Neighbor list builds = 0
Dangerous builds = 0
The dot product: -7.07992348998783e-11
Setting up cg style minimization ...
  Unit style    : metal
  Current step  : 26666
Per MPI rank memory allocation (min/avg/max) = 5.441 | 5.816 | 6.074 Mbytes
Step PotEng KinEng TotEng v_fx v_fy v_fz 
   26666   -1152449.1            0   -1152449.1   0.35356414   -0.6087105    0.4923158 
   26920   -1152449.3            0   -1152449.3 -2.3807622e-05 -1.9748607e-06 1.7167458e-05 
Loop time of 2.95072 on 104 procs for 254 steps with 288751 atoms

99.9% CPU use with 104 MPI tasks x 1 OpenMP threads

Minimization stats:
  Stopping criterion = energy tolerance
  Energy initial, next-to-last, final = 
     -1152449.14494741  -1152449.26566398  -1152449.26566398
  Force two-norm initial, final = 0.85901742 0.00011118366
  Force max component initial, final = 0.6087105 2.4161821e-05
  Final line search alpha, max atom move = 1.0000000 2.4161821e-05
  Iterations, force evaluations = 254 508

MPI task timing breakdown:
Section |  min time  |  avg time  |  max time  |%varavg| %total
---------------------------------------------------------------
Pair    | 0.7733     | 2.1339     | 2.7621     |  39.4 | 72.32
Neigh   | 1.0227e-05 | 0.0029636  | 0.0044248  |   2.2 |  0.10
Comm    | 0.058771   | 0.48062    | 1.4534     |  57.5 | 16.29
Output  | 0          | 0          | 0          |   0.0 |  0.00
Modify  | 2.8326e-05 | 0.0027182  | 0.006962   |   3.3 |  0.09
Other   |            | 0.3305     |            |       | 11.20

Nlocal:        2776.45 ave        3961 max           0 min
Histogram: 8 4 4 0 6 10 8 4 26 34
Nghost:        3879.11 ave        5425 max         232 min
Histogram: 8 0 8 0 16 0 8 8 16 40
Neighs:        79213.2 ave      115466 max           0 min
Histogram: 8 4 4 0 10 6 8 8 24 32

Total # of neighbors = 8238178
Ave neighs/atom = 28.530388
Neighbor list builds = 1
Dangerous builds = 0
