LAMMPS (29 Oct 2020)
OMP_NUM_THREADS environment is not set. Defaulting to 1 thread. (../comm.cpp:94)
  using 1 OpenMP thread(s) per MPI task
OMP_NUM_THREADS environment is not set. Defaulting to 1 thread. (../comm.cpp:94)
  using 1 OpenMP thread(s) per MPI task
Reading data file ...
  orthogonal box = (-122.39241 -121.13707 -37.090501) to (122.39241 121.13707 37.090501)
  13 by 4 by 2 MPI processor grid
  reading atoms ...
  288751 atoms
  read_data CPU = 0.370 seconds
199981 atoms in group inner
88770 atoms in group outer
1 atoms in group carbon
Neighbor list info ...
  update every 1 steps, delay 0 steps, check yes
  max neighbors/atom: 2000, page size: 100000
  master list distance cutoff = 5.6
  ghost atom cutoff = 5.6
  binsize = 2.8, bins = 88 87 27
  1 neighbor lists, perpetual/occasional/extra = 1 0 0
  (1) pair eam/alloy, perpetual
      attributes: half, newton on
      pair build: half/bin/atomonly/newton
      stencil: half/bin/3d/newton
      bin: standard
Setting up cg style minimization ...
  Unit style    : metal
  Current step  : 0
Per MPI rank memory allocation (min/avg/max) = 5.441 | 5.816 | 6.074 Mbytes
Step v_fx v_fy v_fz PotEng KinEng TotEng 
       0    9.2589799   0.21494723   -8.1285502   -1152446.2            0   -1152446.2 
     158 3.4751302e-05 -2.6982236e-06 -3.5571577e-05   -1152449.3            0   -1152449.3 
Loop time of 1.84699 on 104 procs for 158 steps with 288751 atoms

99.8% CPU use with 104 MPI tasks x 1 OpenMP threads

Minimization stats:
  Stopping criterion = energy tolerance
  Energy initial, next-to-last, final = 
     -1152446.23480014  -1152449.34502403  -1152449.34502403
  Force two-norm initial, final = 22.470913 0.00017697811
  Force max component initial, final = 15.081250 5.4906483e-05
  Final line search alpha, max atom move = 1.0000000 5.4906483e-05
  Iterations, force evaluations = 158 314

MPI task timing breakdown:
Section |  min time  |  avg time  |  max time  |%varavg| %total
---------------------------------------------------------------
Pair    | 0.49248    | 1.3232     | 1.7137     |  30.6 | 71.64
Neigh   | 3.2446e-05 | 0.0088131  | 0.01274    |   3.9 |  0.48
Comm    | 0.029754   | 0.29936    | 0.89854    |  45.5 | 16.21
Output  | 0          | 0          | 0          |   0.0 |  0.00
Modify  | 1.8959e-05 | 0.00169    | 0.0043238  |   2.6 |  0.09
Other   |            | 0.2139     |            |       | 11.58

Nlocal:        2776.45 ave        3960 max           0 min
Histogram: 8 4 4 0 4 12 8 2 28 34
Nghost:        3879.01 ave        5424 max         232 min
Histogram: 8 0 8 0 16 0 8 8 16 40
Neighs:        79213.5 ave      115434 max           0 min
Histogram: 8 4 4 0 10 6 8 8 24 32

Total # of neighbors = 8238207
Ave neighs/atom = 28.530488
Neighbor list builds = 3
Dangerous builds = 0
Setting atom values ...
  1 settings made for x
  1 settings made for y
  1 settings made for z
Setting up cg style minimization ...
  Unit style    : metal
  Current step  : 158
Per MPI rank memory allocation (min/avg/max) = 5.441 | 5.816 | 6.074 Mbytes
Step PotEng KinEng TotEng v_fx v_fy v_fz 
     158   -1152449.3            0   -1152449.3  0.026901204 -0.061764802 -0.053250077 
     357   -1152449.3            0   -1152449.3 -1.929571e-06 -3.7976378e-06 -1.2613722e-05 
Loop time of 2.33301 on 104 procs for 199 steps with 288751 atoms

99.9% CPU use with 104 MPI tasks x 1 OpenMP threads

Minimization stats:
  Stopping criterion = force tolerance
  Energy initial, next-to-last, final = 
     -1152449.33749804  -1152449.34254307  -1152449.34254307
  Force two-norm initial, final = 0.34067855 9.9993718e-05
  Force max component initial, final = 0.16219895 1.3860604e-05
  Final line search alpha, max atom move = 1.0000000 1.3860604e-05
  Iterations, force evaluations = 199 398

MPI task timing breakdown:
Section |  min time  |  avg time  |  max time  |%varavg| %total
---------------------------------------------------------------
Pair    | 0.6091     | 1.682      | 2.1781     |  34.9 | 72.10
Neigh   | 0          | 0          | 0          |   0.0 |  0.00
Comm    | 0.043038   | 0.38382    | 1.1599     |  51.5 | 16.45
Output  | 0          | 0          | 0          |   0.0 |  0.00
Modify  | 2.8179e-05 | 0.0032783  | 0.0069813  |   2.7 |  0.14
Other   |            | 0.2639     |            |       | 11.31

Nlocal:        2776.45 ave        3961 max           0 min
Histogram: 8 4 4 0 6 10 8 2 28 34
Nghost:        3879.02 ave        5424 max         232 min
Histogram: 8 0 8 0 16 0 8 8 16 40
Neighs:        79213.3 ave      115469 max           0 min
Histogram: 8 4 4 0 10 6 8 8 24 32

Total # of neighbors = 8238184
Ave neighs/atom = 28.530409
Neighbor list builds = 0
Dangerous builds = 0
Setting atom values ...
  1 settings made for x
  1 settings made for y
  1 settings made for z
Setting up cg style minimization ...
  Unit style    : metal
  Current step  : 357
Per MPI rank memory allocation (min/avg/max) = 5.441 | 5.816 | 6.074 Mbytes
Step PotEng KinEng TotEng v_fx v_fy v_fz 
     357   -1152449.3            0   -1152449.3  0.034718297 -0.063272291 -0.055125892 
     552   -1152449.3            0   -1152449.3 3.2115868e-06 -1.0689424e-05 -1.6346026e-05 
Loop time of 2.26721 on 104 procs for 195 steps with 288751 atoms

99.9% CPU use with 104 MPI tasks x 1 OpenMP threads

Minimization stats:
  Stopping criterion = force tolerance
  Energy initial, next-to-last, final = 
     -1152449.33211282  -1152449.33610813  -1152449.33610812
  Force two-norm initial, final = 0.30555772 9.8845222e-05
  Force max component initial, final = 0.13971557 1.6346026e-05
  Final line search alpha, max atom move = 1.0000000 1.6346026e-05
  Iterations, force evaluations = 195 390

MPI task timing breakdown:
Section |  min time  |  avg time  |  max time  |%varavg| %total
---------------------------------------------------------------
Pair    | 0.59185    | 1.6355     | 2.1262     |  34.6 | 72.14
Neigh   | 0          | 0          | 0          |   0.0 |  0.00
Comm    | 0.036247   | 0.36901    | 1.1078     |  50.8 | 16.28
Output  | 0          | 0          | 0          |   0.0 |  0.00
Modify  | 2.4283e-05 | 0.0032129  | 0.0068664  |   2.7 |  0.14
Other   |            | 0.2595     |            |       | 11.44

Nlocal:        2776.45 ave        3961 max           0 min
Histogram: 8 4 4 0 6 10 8 2 28 34
Nghost:        3879.02 ave        5424 max         232 min
Histogram: 8 0 8 0 16 0 8 8 16 40
Neighs:        79213.3 ave      115457 max           0 min
Histogram: 8 4 4 0 10 6 8 8 24 32

Total # of neighbors = 8238185
Ave neighs/atom = 28.530412
Neighbor list builds = 0
Dangerous builds = 0
The dot product: 1.12084525159268e-06
The angle: 86.7537293018475
Setting atom values ...
  1 settings made for x
  1 settings made for y
  1 settings made for z
Setting up cg style minimization ...
  Unit style    : metal
  Current step  : 552
Per MPI rank memory allocation (min/avg/max) = 5.441 | 5.816 | 6.074 Mbytes
Step PotEng KinEng TotEng v_fx v_fy v_fz 
     552   -1152449.3            0   -1152449.3  0.042233135 -0.066690709  -0.06884108 
     678   -1152449.3            0   -1152449.3 -7.0027004e-06 1.0189567e-05 8.9943967e-06 
Loop time of 1.46573 on 104 procs for 126 steps with 288751 atoms

99.9% CPU use with 104 MPI tasks x 1 OpenMP threads

Minimization stats:
  Stopping criterion = energy tolerance
  Energy initial, next-to-last, final = 
     -1152449.32234694  -1152449.32623175  -1152449.32623175
  Force two-norm initial, final = 0.3034607 0.00022072962
  Force max component initial, final = 0.13053578 2.5082776e-05
  Final line search alpha, max atom move = 1.0000000 2.5082776e-05
  Iterations, force evaluations = 126 252

MPI task timing breakdown:
Section |  min time  |  avg time  |  max time  |%varavg| %total
---------------------------------------------------------------
Pair    | 0.38146    | 1.0626     | 1.3834     |  27.9 | 72.50
Neigh   | 0          | 0          | 0          |   0.0 |  0.00
Comm    | 0.022065   | 0.23915    | 0.72155    |  41.4 | 16.32
Output  | 0          | 0          | 0          |   0.0 |  0.00
Modify  | 1.565e-05  | 0.0020802  | 0.0044424  |   2.1 |  0.14
Other   |            | 0.1619     |            |       | 11.04

Nlocal:        2776.45 ave        3959 max           0 min
Histogram: 8 4 4 0 4 12 8 2 28 34
Nghost:        3879.06 ave        5424 max         232 min
Histogram: 8 0 8 0 16 0 8 8 16 40
Neighs:        79213.3 ave      115398 max           0 min
Histogram: 8 4 4 0 10 6 8 8 24 32

Total # of neighbors = 8238186
Ave neighs/atom = 28.530415
Neighbor list builds = 0
Dangerous builds = 0
The dot product: -1.2289687820813e-06
The angle: 94.610448789307
Setting atom values ...
  1 settings made for x
  1 settings made for y
  1 settings made for z
Setting up cg style minimization ...
  Unit style    : metal
  Current step  : 678
Per MPI rank memory allocation (min/avg/max) = 5.441 | 5.816 | 6.074 Mbytes
Step PotEng KinEng TotEng v_fx v_fy v_fz 
     678   -1152449.3            0   -1152449.3  0.047892932 -0.063020247 -0.079396759 
     803   -1152449.3            0   -1152449.3 -1.7528072e-05 2.6739443e-05 4.294728e-05 
Loop time of 1.45974 on 104 procs for 125 steps with 288751 atoms

99.9% CPU use with 104 MPI tasks x 1 OpenMP threads

Minimization stats:
  Stopping criterion = energy tolerance
  Energy initial, next-to-last, final = 
     -1152449.30973108  -1152449.31351686  -1152449.31351686
  Force two-norm initial, final = 0.29789902 0.00014998975
  Force max component initial, final = 0.1303054 4.2947280e-05
  Final line search alpha, max atom move = 1.0000000 4.2947280e-05
  Iterations, force evaluations = 125 250

MPI task timing breakdown:
Section |  min time  |  avg time  |  max time  |%varavg| %total
---------------------------------------------------------------
Pair    | 0.38221    | 1.0491     | 1.3653     |  27.6 | 71.87
Neigh   | 0          | 0          | 0          |   0.0 |  0.00
Comm    | 0.022006   | 0.23707    | 0.71388    |  40.7 | 16.24
Output  | 0          | 0          | 0          |   0.0 |  0.00
Modify  | 1.6709e-05 | 0.0020633  | 0.0043897  |   2.1 |  0.14
Other   |            | 0.1715     |            |       | 11.75

Nlocal:        2776.45 ave        3955 max           0 min
Histogram: 8 4 4 0 4 12 8 0 30 34
Nghost:        3879.10 ave        5424 max         232 min
Histogram: 8 0 8 0 16 0 8 8 16 40
Neighs:        79213.3 ave      115288 max           0 min
Histogram: 8 4 4 0 10 6 8 8 24 32

Total # of neighbors = 8238188
Ave neighs/atom = 28.530422
Neighbor list builds = 0
Dangerous builds = 0
The dot product: -4.17059583675353e-06
The angle: 94.4675536977482
Setting atom values ...
  1 settings made for x
  1 settings made for y
  1 settings made for z
Setting up cg style minimization ...
  Unit style    : metal
  Current step  : 803
Per MPI rank memory allocation (min/avg/max) = 5.441 | 5.816 | 6.074 Mbytes
Step PotEng KinEng TotEng v_fx v_fy v_fz 
     803   -1152449.3            0   -1152449.3  0.051324481 -0.054874109  -0.08171713 
     960   -1152449.3            0   -1152449.3 -1.6816083e-05 1.5788787e-05 1.426372e-05 
Loop time of 1.81901 on 104 procs for 157 steps with 288751 atoms

99.9% CPU use with 104 MPI tasks x 1 OpenMP threads

Minimization stats:
  Stopping criterion = energy tolerance
  Energy initial, next-to-last, final = 
     -1152449.29420805   -1152449.2978605   -1152449.2978605
  Force two-norm initial, final = 0.28942757 0.00013151974
  Force max component initial, final = 0.14151657 2.5891178e-05
  Final line search alpha, max atom move = 1.0000000 2.5891178e-05
  Iterations, force evaluations = 157 314

MPI task timing breakdown:
Section |  min time  |  avg time  |  max time  |%varavg| %total
---------------------------------------------------------------
Pair    | 0.47463    | 1.3213     | 1.7153     |  31.0 | 72.64
Neigh   | 0          | 0          | 0          |   0.0 |  0.00
Comm    | 0.027923   | 0.29705    | 0.89569    |  45.9 | 16.33
Output  | 0          | 0          | 0          |   0.0 |  0.00
Modify  | 2.0533e-05 | 0.002585   | 0.0055399  |   2.4 |  0.14
Other   |            | 0.198      |            |       | 10.89

Nlocal:        2776.45 ave        3951 max           0 min
Histogram: 8 4 4 0 4 12 8 1 29 34
Nghost:        3879.13 ave        5424 max         232 min
Histogram: 8 0 8 0 16 0 8 8 16 40
Neighs:        79213.4 ave      115140 max           0 min
Histogram: 8 4 4 0 10 6 8 8 24 32

Total # of neighbors = 8238189
Ave neighs/atom = 28.530426
Neighbor list builds = 0
Dangerous builds = 0
The dot product: -1.73334250346737e-06
The angle: 93.6644251366682
Setting atom values ...
  1 settings made for x
  1 settings made for y
  1 settings made for z
Setting up cg style minimization ...
  Unit style    : metal
  Current step  : 960
Per MPI rank memory allocation (min/avg/max) = 5.441 | 5.816 | 6.074 Mbytes
Step PotEng KinEng TotEng v_fx v_fy v_fz 
     960   -1152449.3            0   -1152449.3  0.052515827 -0.046002399  -0.07812657 
    1000   -1152449.3            0   -1152449.3 0.00048414408 -0.00042659131 -0.00074486067 
    1138   -1152449.3            0   -1152449.3 1.5413588e-05 -1.0994164e-05 1.8095953e-06 
Loop time of 2.06119 on 104 procs for 178 steps with 288751 atoms

99.9% CPU use with 104 MPI tasks x 1 OpenMP threads

Minimization stats:
  Stopping criterion = energy tolerance
  Energy initial, next-to-last, final = 
     -1152449.27560212  -1152449.27912563  -1152449.27912563
  Force two-norm initial, final = 0.28055349 0.00015616908
  Force max component initial, final = 0.15122153 1.5413588e-05
  Final line search alpha, max atom move = 1.0000000 1.5413588e-05
  Iterations, force evaluations = 178 356

MPI task timing breakdown:
Section |  min time  |  avg time  |  max time  |%varavg| %total
---------------------------------------------------------------
Pair    | 0.54119    | 1.4907     | 1.9361     |  32.9 | 72.32
Neigh   | 0          | 0          | 0          |   0.0 |  0.00
Comm    | 0.035912   | 0.3335     | 1.0093     |  48.7 | 16.18
Output  | 0.00015992 | 0.00016821 | 0.00028742 |   0.0 |  0.01
Modify  | 2.1921e-05 | 0.0029311  | 0.0062467  |   2.6 |  0.14
Other   |            | 0.2339     |            |       | 11.35

Nlocal:        2776.45 ave        3947 max           0 min
Histogram: 8 4 4 0 4 12 8 2 26 36
Nghost:        3879.12 ave        5424 max         232 min
Histogram: 8 0 8 0 16 0 8 8 16 40
Neighs:        79213.3 ave      115011 max           0 min
Histogram: 8 4 4 0 10 6 8 8 24 32

Total # of neighbors = 8238185
Ave neighs/atom = 28.530412
Neighbor list builds = 0
Dangerous builds = 0
The dot product: 5.64272603652788e-07
The angle: 88.2998545321858
Setting atom values ...
  1 settings made for x
  1 settings made for y
  1 settings made for z
Setting up cg style minimization ...
  Unit style    : metal
  Current step  : 1138
Per MPI rank memory allocation (min/avg/max) = 5.441 | 5.816 | 6.074 Mbytes
Step PotEng KinEng TotEng v_fx v_fy v_fz 
    1138   -1152449.3            0   -1152449.3  0.052208603 -0.038285069 -0.071638534 
    1329   -1152449.3            0   -1152449.3 1.138076e-05 -8.3467296e-06 -1.5641948e-05 
Loop time of 2.19537 on 104 procs for 191 steps with 288751 atoms

99.9% CPU use with 104 MPI tasks x 1 OpenMP threads

Minimization stats:
  Stopping criterion = force tolerance
  Energy initial, next-to-last, final = 
     -1152449.25379624  -1152449.25720563  -1152449.25720563
  Force two-norm initial, final = 0.27268116 9.9201229e-05
  Force max component initial, final = 0.15964763 1.5641948e-05
  Final line search alpha, max atom move = 1.0000000 1.5641948e-05
  Iterations, force evaluations = 191 382

MPI task timing breakdown:
Section |  min time  |  avg time  |  max time  |%varavg| %total
---------------------------------------------------------------
Pair    | 0.57874    | 1.6055     | 2.0768     |  34.1 | 73.13
Neigh   | 0          | 0          | 0          |   0.0 |  0.00
Comm    | 0.034325   | 0.35755    | 1.0836     |  50.9 | 16.29
Output  | 0          | 0          | 0          |   0.0 |  0.00
Modify  | 2.3613e-05 | 0.0031429  | 0.0067072  |   2.6 |  0.14
Other   |            | 0.2292     |            |       | 10.44

Nlocal:        2776.45 ave        3943 max           0 min
Histogram: 8 4 4 0 4 12 8 2 26 36
Nghost:        3879.10 ave        5424 max         232 min
Histogram: 8 0 8 0 16 0 8 8 16 40
Neighs:        79213.3 ave      114896 max           0 min
Histogram: 8 4 4 0 10 6 8 8 22 34

Total # of neighbors = 8238187
Ave neighs/atom = 28.530419
Neighbor list builds = 0
Dangerous builds = 0
The dot product: 9.96871284012426e-07
The angle: 87.2879303988896
Setting atom values ...
  1 settings made for x
  1 settings made for y
  1 settings made for z
Setting up cg style minimization ...
  Unit style    : metal
  Current step  : 1329
Per MPI rank memory allocation (min/avg/max) = 5.441 | 5.816 | 6.074 Mbytes
Step PotEng KinEng TotEng v_fx v_fy v_fz 
    1329   -1152449.2            0   -1152449.2  0.051205952 -0.032260239 -0.063877516 
    1512   -1152449.2            0   -1152449.2 -1.4498635e-05 9.1102679e-06 3.082817e-05 
Loop time of 2.12499 on 104 procs for 183 steps with 288751 atoms

99.9% CPU use with 104 MPI tasks x 1 OpenMP threads

Minimization stats:
  Stopping criterion = energy tolerance
  Energy initial, next-to-last, final = 
     -1152449.22870304  -1152449.23202192  -1152449.23202192
  Force two-norm initial, final = 0.266362 0.00012778614
  Force max component initial, final = 0.16717593 3.0828170e-05
  Final line search alpha, max atom move = 1.0000000 3.0828170e-05
  Iterations, force evaluations = 183 366

MPI task timing breakdown:
Section |  min time  |  avg time  |  max time  |%varavg| %total
---------------------------------------------------------------
Pair    | 0.55855    | 1.5361     | 1.9819     |  33.4 | 72.29
Neigh   | 0          | 0          | 0          |   0.0 |  0.00
Comm    | 0.033049   | 0.34534    | 1.0451     |  49.7 | 16.25
Output  | 0          | 0          | 0          |   0.0 |  0.00
Modify  | 2.3131e-05 | 0.0030182  | 0.0065326  |   2.6 |  0.14
Other   |            | 0.2405     |            |       | 11.32

Nlocal:        2776.45 ave        3934 max           0 min
Histogram: 8 4 4 0 4 12 8 0 28 36
Nghost:        3879.10 ave        5424 max         232 min
Histogram: 8 0 8 0 16 0 8 8 16 40
Neighs:        79213.3 ave      114591 max           0 min
Histogram: 8 4 4 0 8 8 8 8 20 36

Total # of neighbors = 8238186
Ave neighs/atom = 28.530415
Neighbor list builds = 0
Dangerous builds = 0
The dot product: -1.36113188338896e-06
The angle: 92.212041461645
Setting atom values ...
  1 settings made for x
  1 settings made for y
  1 settings made for z
Setting up cg style minimization ...
  Unit style    : metal
  Current step  : 1512
Per MPI rank memory allocation (min/avg/max) = 5.441 | 5.816 | 6.074 Mbytes
Step PotEng KinEng TotEng v_fx v_fy v_fz 
    1512   -1152449.2            0   -1152449.2  0.053471142 -0.029696583 -0.060287165 
    1705   -1152449.2            0   -1152449.2 -1.3186816e-05 7.3267542e-06 1.4782259e-05 
Loop time of 2.23061 on 104 procs for 193 steps with 288751 atoms

99.9% CPU use with 104 MPI tasks x 1 OpenMP threads

Minimization stats:
  Stopping criterion = force tolerance
  Energy initial, next-to-last, final = 
     -1152449.20031806  -1152449.20360533  -1152449.20360533
  Force two-norm initial, final = 0.26340395 9.8545492e-05
  Force max component initial, final = 0.17418602 1.4782259e-05
  Final line search alpha, max atom move = 1.0000000 1.4782259e-05
  Iterations, force evaluations = 193 386

MPI task timing breakdown:
Section |  min time  |  avg time  |  max time  |%varavg| %total
---------------------------------------------------------------
Pair    | 0.58548    | 1.6266     | 2.1025     |  34.4 | 72.92
Neigh   | 0          | 0          | 0          |   0.0 |  0.00
Comm    | 0.039588   | 0.36353    | 1.1009     |  51.2 | 16.30
Output  | 0          | 0          | 0          |   0.0 |  0.00
Modify  | 2.5914e-05 | 0.0031767  | 0.0067898  |   2.7 |  0.14
Other   |            | 0.2373     |            |       | 10.64

Nlocal:        2776.45 ave        3930 max           0 min
Histogram: 8 4 4 0 4 12 8 0 26 38
Nghost:        3879.10 ave        5424 max         232 min
Histogram: 8 0 8 0 16 0 8 8 16 40
Neighs:        79213.3 ave      114487 max           0 min
Histogram: 8 4 4 0 8 8 8 8 20 36

Total # of neighbors = 8238185
Ave neighs/atom = 28.530412
Neighbor list builds = 0
Dangerous builds = 0
The dot product: -8.36920211599658e-07
The angle: 92.2709618585108
Setting atom values ...
  1 settings made for x
  1 settings made for y
  1 settings made for z
Setting up cg style minimization ...
  Unit style    : metal
  Current step  : 1705
Per MPI rank memory allocation (min/avg/max) = 5.441 | 5.816 | 6.074 Mbytes
Step PotEng KinEng TotEng v_fx v_fy v_fz 
    1705   -1152449.2            0   -1152449.2  0.061132522 -0.029689549 -0.065941769 
    1883   -1152449.2            0   -1152449.2 2.1078514e-05 -1.0167493e-05 -2.373914e-05 
Loop time of 2.05855 on 104 procs for 178 steps with 288751 atoms

99.9% CPU use with 104 MPI tasks x 1 OpenMP threads

Minimization stats:
  Stopping criterion = energy tolerance
  Energy initial, next-to-last, final = 
     -1152449.16890127  -1152449.17238603  -1152449.17238603
  Force two-norm initial, final = 0.26575088 0.00016447666
  Force max component initial, final = 0.1815206 2.3739140e-05
  Final line search alpha, max atom move = 1.0000000 2.3739140e-05
  Iterations, force evaluations = 178 356

MPI task timing breakdown:
Section |  min time  |  avg time  |  max time  |%varavg| %total
---------------------------------------------------------------
Pair    | 0.53979    | 1.4961     | 1.9343     |  33.1 | 72.68
Neigh   | 0          | 0          | 0          |   0.0 |  0.00
Comm    | 0.032985   | 0.33502    | 1.023      |  49.3 | 16.27
Output  | 0          | 0          | 0          |   0.0 |  0.00
Modify  | 2.1804e-05 | 0.0029308  | 0.0062433  |   2.6 |  0.14
Other   |            | 0.2245     |            |       | 10.91

Nlocal:        2776.45 ave        3930 max           0 min
Histogram: 8 4 4 0 4 12 8 0 26 38
Nghost:        3879.10 ave        5424 max         232 min
Histogram: 8 0 8 0 16 0 8 8 16 40
Neighs:        79213.3 ave      114488 max           0 min
Histogram: 8 4 4 0 8 8 8 8 20 36

Total # of neighbors = 8238185
Ave neighs/atom = 28.530412
Neighbor list builds = 0
Dangerous builds = 0
The dot product: 1.69308723251017e-06
The angle: 87.0886984419819
Setting atom values ...
  1 settings made for x
  1 settings made for y
  1 settings made for z
Setting up cg style minimization ...
  Unit style    : metal
  Current step  : 1883
Per MPI rank memory allocation (min/avg/max) = 5.441 | 5.816 | 6.074 Mbytes
Step PotEng KinEng TotEng v_fx v_fy v_fz 
    1883   -1152449.1            0   -1152449.1  0.069051916 -0.027623945 -0.072481919 
    2000   -1152449.1            0   -1152449.1 -9.7070301e-05 3.3450036e-05 0.00014993975 
    2057   -1152449.1            0   -1152449.1 4.1611824e-05 -1.3948559e-05 -6.7763436e-05 
Loop time of 2.04513 on 104 procs for 174 steps with 288751 atoms

99.9% CPU use with 104 MPI tasks x 1 OpenMP threads

Minimization stats:
  Stopping criterion = energy tolerance
  Energy initial, next-to-last, final = 
     -1152449.13486137  -1152449.13852899  -1152449.13852899
  Force two-norm initial, final = 0.2694156 0.00025478067
  Force max component initial, final = 0.18991913 6.7763436e-05
  Final line search alpha, max atom move = 1.0000000 6.7763436e-05
  Iterations, force evaluations = 174 348

MPI task timing breakdown:
Section |  min time  |  avg time  |  max time  |%varavg| %total
---------------------------------------------------------------
Pair    | 0.52747    | 1.4667     | 1.8931     |  32.6 | 71.72
Neigh   | 0          | 0          | 0          |   0.0 |  0.00
Comm    | 0.03118    | 0.33743    | 1.0287     |  48.2 | 16.50
Output  | 9.8769e-05 | 0.00010712 | 0.00025045 |   0.0 |  0.01
Modify  | 2.145e-05  | 0.0028647  | 0.0060983  |   2.5 |  0.14
Other   |            | 0.238      |            |       | 11.64

Nlocal:        2776.45 ave        3930 max           0 min
Histogram: 8 4 4 0 4 12 8 0 26 38
Nghost:        3879.09 ave        5424 max         232 min
Histogram: 8 0 8 0 16 0 8 8 16 40
Neighs:        79213.3 ave      114490 max           0 min
Histogram: 8 4 4 0 8 8 8 8 20 36

Total # of neighbors = 8238182
Ave neighs/atom = 28.530402
Neighbor list builds = 0
Dangerous builds = 0
The dot product: 4.37195368699159e-06
The angle: 86.8957703111698
Setting atom values ...
  1 settings made for x
  1 settings made for y
  1 settings made for z
Setting up cg style minimization ...
  Unit style    : metal
  Current step  : 2057
Per MPI rank memory allocation (min/avg/max) = 5.441 | 5.816 | 6.074 Mbytes
Step PotEng KinEng TotEng v_fx v_fy v_fz 
    2057   -1152449.1            0   -1152449.1  0.078879998 -0.026242708 -0.069737694 
    2239   -1152449.1            0   -1152449.1 3.8002109e-05 -1.1302885e-05 -4.2298352e-05 
Loop time of 2.08901 on 104 procs for 182 steps with 288751 atoms

99.9% CPU use with 104 MPI tasks x 1 OpenMP threads

Minimization stats:
  Stopping criterion = energy tolerance
  Energy initial, next-to-last, final = 
     -1152449.09808878   -1152449.1020236   -1152449.1020236
  Force two-norm initial, final = 0.27274002 0.00019002028
  Force max component initial, final = 0.19870271 4.7497850e-05
  Final line search alpha, max atom move = 1.0000000 4.7497850e-05
  Iterations, force evaluations = 182 364

MPI task timing breakdown:
Section |  min time  |  avg time  |  max time  |%varavg| %total
---------------------------------------------------------------
Pair    | 0.54862    | 1.5211     | 1.975      |  33.4 | 72.82
Neigh   | 0          | 0          | 0          |   0.0 |  0.00
Comm    | 0.033312   | 0.3395     | 1.0325     |  49.5 | 16.25
Output  | 0          | 0          | 0          |   0.0 |  0.00
Modify  | 2.2385e-05 | 0.0029899  | 0.0063795  |   2.6 |  0.14
Other   |            | 0.2254     |            |       | 10.79

Nlocal:        2776.45 ave        3930 max           0 min
Histogram: 8 4 4 0 4 12 8 0 26 38
Nghost:        3879.07 ave        5425 max         232 min
Histogram: 8 0 8 0 16 0 8 8 16 40
Neighs:        79213.3 ave      114451 max           0 min
Histogram: 8 4 4 0 8 8 8 8 20 36

Total # of neighbors = 8238182
Ave neighs/atom = 28.530402
Neighbor list builds = 0
Dangerous builds = 0
The dot product: 3.45110007752728e-06
The angle: 86.5872970486356
Setting atom values ...
  1 settings made for x
  1 settings made for y
  1 settings made for z
Setting up cg style minimization ...
  Unit style    : metal
  Current step  : 2239
Per MPI rank memory allocation (min/avg/max) = 5.441 | 5.816 | 6.074 Mbytes
Step PotEng KinEng TotEng v_fx v_fy v_fz 
    2239   -1152449.1            0   -1152449.1  0.097383499  -0.02888741  -0.05678252 
    2444   -1152449.1            0   -1152449.1 -1.5318707e-05 3.7842291e-06 1.3014579e-05 
Loop time of 2.40949 on 104 procs for 205 steps with 288751 atoms

99.9% CPU use with 104 MPI tasks x 1 OpenMP threads

Minimization stats:
  Stopping criterion = force tolerance
  Energy initial, next-to-last, final = 
     -1152449.05877794  -1152449.06307767  -1152449.06307767
  Force two-norm initial, final = 0.27887301 9.7318720e-05
  Force max component initial, final = 0.20961494 1.5318707e-05
  Final line search alpha, max atom move = 1.0000000 1.5318707e-05
  Iterations, force evaluations = 205 410

MPI task timing breakdown:
Section |  min time  |  avg time  |  max time  |%varavg| %total
---------------------------------------------------------------
Pair    | 0.63422    | 1.727      | 2.2312     |  35.0 | 71.68
Neigh   | 0          | 0          | 0          |   0.0 |  0.00
Comm    | 0.036228   | 0.38586    | 1.1635     |  52.4 | 16.01
Output  | 0          | 0          | 0          |   0.0 |  0.00
Modify  | 2.5887e-05 | 0.003369   | 0.0072244  |   2.7 |  0.14
Other   |            | 0.2932     |            |       | 12.17

Nlocal:        2776.45 ave        3930 max           0 min
Histogram: 8 4 4 0 4 12 8 0 26 38
Nghost:        3879.09 ave        5425 max         232 min
Histogram: 8 0 8 0 16 0 8 8 16 40
Neighs:        79213.3 ave      114451 max           0 min
Histogram: 8 4 4 0 8 8 8 8 20 36

Total # of neighbors = 8238181
Ave neighs/atom = 28.530398
Neighbor list builds = 0
Dangerous builds = 0
The dot product: -1.24084526820161e-06
The angle: 93.4780087238961
Setting atom values ...
  1 settings made for x
  1 settings made for y
  1 settings made for z
Setting up cg style minimization ...
  Unit style    : metal
  Current step  : 2444
Per MPI rank memory allocation (min/avg/max) = 5.441 | 5.816 | 6.074 Mbytes
Step PotEng KinEng TotEng v_fx v_fy v_fz 
    2444     -1152449            0     -1152449   0.10913875 -0.028939159 -0.036600105 
    2629     -1152449            0     -1152449 -2.2640357e-05 3.2045368e-06 2.1285092e-05 
Loop time of 2.13788 on 104 procs for 185 steps with 288751 atoms

99.9% CPU use with 104 MPI tasks x 1 OpenMP threads

Minimization stats:
  Stopping criterion = energy tolerance
  Energy initial, next-to-last, final = 
     -1152449.01708895   -1152449.0215619   -1152449.0215619
  Force two-norm initial, final = 0.28423014 0.00015166933
  Force max component initial, final = 0.22165181 2.4828396e-05
  Final line search alpha, max atom move = 1.0000000 2.4828396e-05
  Iterations, force evaluations = 185 370

MPI task timing breakdown:
Section |  min time  |  avg time  |  max time  |%varavg| %total
---------------------------------------------------------------
Pair    | 0.56203    | 1.5515     | 2.0091     |  33.6 | 72.57
Neigh   | 0          | 0          | 0          |   0.0 |  0.00
Comm    | 0.034002   | 0.34713    | 1.0541     |  50.0 | 16.24
Output  | 0          | 0          | 0          |   0.0 |  0.00
Modify  | 2.3517e-05 | 0.0030427  | 0.0065397  |   2.6 |  0.14
Other   |            | 0.2362     |            |       | 11.05

Nlocal:        2776.45 ave        3930 max           0 min
Histogram: 8 4 4 0 4 12 8 0 26 38
Nghost:        3879.09 ave        5425 max         232 min
Histogram: 8 0 8 0 16 0 8 8 16 40
Neighs:        79213.3 ave      114453 max           0 min
Histogram: 8 4 4 0 8 8 8 8 20 36

Total # of neighbors = 8238183
Ave neighs/atom = 28.530405
Neighbor list builds = 0
Dangerous builds = 0
The dot product: -1.52288542029577e-06
The angle: 92.7941978109636
Setting atom values ...
  1 settings made for x
  1 settings made for y
  1 settings made for z
Setting up cg style minimization ...
  Unit style    : metal
  Current step  : 2629
Per MPI rank memory allocation (min/avg/max) = 5.441 | 5.816 | 6.074 Mbytes
Step PotEng KinEng TotEng v_fx v_fy v_fz 
    2629     -1152449            0     -1152449   0.11049285 -0.027000765 -0.010631546 
    2819     -1152449            0     -1152449 1.2931585e-05 -9.6047527e-07 -1.1927021e-05 
Loop time of 2.18446 on 104 procs for 190 steps with 288751 atoms

99.9% CPU use with 104 MPI tasks x 1 OpenMP threads

Minimization stats:
  Stopping criterion = energy tolerance
  Energy initial, next-to-last, final = 
     -1152448.97279482  -1152448.97732828  -1152448.97732828
  Force two-norm initial, final = 0.28850186 0.00010604875
  Force max component initial, final = 0.23410757 1.8934175e-05
  Final line search alpha, max atom move = 1.0000000 1.8934175e-05
  Iterations, force evaluations = 190 380

MPI task timing breakdown:
Section |  min time  |  avg time  |  max time  |%varavg| %total
---------------------------------------------------------------
Pair    | 0.57551    | 1.5959     | 2.0628     |  34.1 | 73.06
Neigh   | 0          | 0          | 0          |   0.0 |  0.00
Comm    | 0.03566    | 0.35376    | 1.0739     |  50.9 | 16.19
Output  | 0          | 0          | 0          |   0.0 |  0.00
Modify  | 2.3693e-05 | 0.0031255  | 0.0066686  |   2.6 |  0.14
Other   |            | 0.2317     |            |       | 10.61

Nlocal:        2776.45 ave        3930 max           0 min
Histogram: 8 4 4 0 4 12 8 0 26 38
Nghost:        3879.09 ave        5425 max         232 min
Histogram: 8 0 8 0 16 0 8 8 16 40
Neighs:        79213.3 ave      114438 max           0 min
Histogram: 8 4 4 0 8 8 8 8 20 36

Total # of neighbors = 8238185
Ave neighs/atom = 28.530412
Neighbor list builds = 0
Dangerous builds = 0
The dot product: 6.10222464047978e-07
The angle: 88.01511532701
Setting atom values ...
  1 settings made for x
  1 settings made for y
  1 settings made for z
Setting up cg style minimization ...
  Unit style    : metal
  Current step  : 2819
Per MPI rank memory allocation (min/avg/max) = 5.441 | 5.816 | 6.074 Mbytes
Step PotEng KinEng TotEng v_fx v_fy v_fz 
    2819   -1152448.9            0   -1152448.9   0.10339631  -0.02342372  0.012984399 
    2951   -1152448.9            0   -1152448.9 1.8332129e-05 -1.7208754e-06 -1.0361204e-05 
Loop time of 1.50985 on 104 procs for 132 steps with 288751 atoms

99.9% CPU use with 104 MPI tasks x 1 OpenMP threads

Minimization stats:
  Stopping criterion = energy tolerance
  Energy initial, next-to-last, final = 
     -1152448.92565353  -1152448.93018102  -1152448.93018102
  Force two-norm initial, final = 0.29346884 0.00011929672
  Force max component initial, final = 0.24674648 1.8332129e-05
  Final line search alpha, max atom move = 1.0000000 1.8332129e-05
  Iterations, force evaluations = 132 264

MPI task timing breakdown:
Section |  min time  |  avg time  |  max time  |%varavg| %total
---------------------------------------------------------------
Pair    | 0.40069    | 1.1048     | 1.4263     |  28.3 | 73.18
Neigh   | 0          | 0          | 0          |   0.0 |  0.00
Comm    | 0.02431    | 0.24472    | 0.74651    |  42.5 | 16.21
Output  | 0          | 0          | 0          |   0.0 |  0.00
Modify  | 1.624e-05  | 0.0021707  | 0.0046448  |   2.2 |  0.14
Other   |            | 0.1581     |            |       | 10.47

Nlocal:        2776.45 ave        3930 max           0 min
Histogram: 8 4 4 0 4 12 8 0 26 38
Nghost:        3879.09 ave        5425 max         232 min
Histogram: 8 0 8 0 16 0 8 8 16 40
Neighs:        79213.3 ave      114447 max           0 min
Histogram: 8 4 4 0 8 8 8 8 20 36

Total # of neighbors = 8238188
Ave neighs/atom = 28.530422
Neighbor list builds = 0
Dangerous builds = 0
The dot product: 6.8926465097625e-07
The angle: 88.1304722084471
Setting atom values ...
  1 settings made for x
  1 settings made for y
  1 settings made for z
Setting up cg style minimization ...
  Unit style    : metal
  Current step  : 2951
Per MPI rank memory allocation (min/avg/max) = 5.441 | 5.816 | 6.074 Mbytes
Step PotEng KinEng TotEng v_fx v_fy v_fz 
    2951   -1152448.9            0   -1152448.9  0.091175797 -0.018725248  0.029031839 
    3000   -1152448.9            0   -1152448.9 -0.0004173829 4.7483767e-06 0.00034388383 
    3082   -1152448.9            0   -1152448.9 -5.1085755e-05 3.0632286e-06 2.7474774e-05 
Loop time of 1.52878 on 104 procs for 131 steps with 288751 atoms

99.9% CPU use with 104 MPI tasks x 1 OpenMP threads

Minimization stats:
  Stopping criterion = energy tolerance
  Energy initial, next-to-last, final = 
     -1152448.87538089   -1152448.8798543   -1152448.8798543
  Force two-norm initial, final = 0.29900258 0.00018392098
  Force max component initial, final = 0.25868751 5.1085755e-05
  Final line search alpha, max atom move = 1.0000000 5.1085755e-05
  Iterations, force evaluations = 131 262

MPI task timing breakdown:
Section |  min time  |  avg time  |  max time  |%varavg| %total
---------------------------------------------------------------
Pair    | 0.39741    | 1.1079     | 1.4297     |  28.5 | 72.47
Neigh   | 0          | 0          | 0          |   0.0 |  0.00
Comm    | 0.023749   | 0.24828    | 0.74494    |  41.9 | 16.24
Output  | 0.00010088 | 0.00011049 | 0.00023255 |   0.0 |  0.01
Modify  | 1.747e-05  | 0.0021609  | 0.0046345  |   2.2 |  0.14
Other   |            | 0.1704     |            |       | 11.14

Nlocal:        2776.45 ave        3930 max           0 min
Histogram: 8 4 4 0 4 12 8 0 26 38
Nghost:        3879.09 ave        5425 max         232 min
Histogram: 8 0 8 0 16 0 8 8 16 40
Neighs:        79213.4 ave      114446 max           0 min
Histogram: 8 4 4 0 8 8 8 8 20 36

Total # of neighbors = 8238195
Ave neighs/atom = 28.530447
Neighbor list builds = 0
Dangerous builds = 0
The dot product: -1.34625712637898e-06
The angle: 91.3280576751107
Setting atom values ...
  1 settings made for x
  1 settings made for y
  1 settings made for z
Setting up cg style minimization ...
  Unit style    : metal
  Current step  : 3082
Per MPI rank memory allocation (min/avg/max) = 5.441 | 5.816 | 6.074 Mbytes
Step PotEng KinEng TotEng v_fx v_fy v_fz 
    3082   -1152448.8            0   -1152448.8  0.076784709 -0.014032546  0.038070021 
    3277   -1152448.8            0   -1152448.8 -1.9755558e-07 -1.3480744e-06 9.4671121e-06 
Loop time of 2.27234 on 104 procs for 195 steps with 288751 atoms

99.9% CPU use with 104 MPI tasks x 1 OpenMP threads

Minimization stats:
  Stopping criterion = force tolerance
  Energy initial, next-to-last, final = 
     -1152448.82171738  -1152448.82609191  -1152448.82609191
  Force two-norm initial, final = 0.30437256 9.5077349e-05
  Force max component initial, final = 0.26954161 2.6845285e-05
  Final line search alpha, max atom move = 1.0000000 2.6845285e-05
  Iterations, force evaluations = 195 390

MPI task timing breakdown:
Section |  min time  |  avg time  |  max time  |%varavg| %total
---------------------------------------------------------------
Pair    | 0.59064    | 1.6385     | 2.1151     |  34.6 | 72.10
Neigh   | 0          | 0          | 0          |   0.0 |  0.00
Comm    | 0.036323   | 0.3688     | 1.1168     |  51.4 | 16.23
Output  | 0          | 0          | 0          |   0.0 |  0.00
Modify  | 2.3962e-05 | 0.0032138  | 0.0068653  |   2.7 |  0.14
Other   |            | 0.2619     |            |       | 11.52

Nlocal:        2776.45 ave        3930 max           0 min
Histogram: 8 4 4 0 4 12 8 0 26 38
Nghost:        3879.09 ave        5425 max         232 min
Histogram: 8 0 8 0 16 0 8 8 16 40
Neighs:        79213.4 ave      114446 max           0 min
Histogram: 8 4 4 0 8 8 8 8 20 36

Total # of neighbors = 8238198
Ave neighs/atom = 28.530457
Neighbor list builds = 0
Dangerous builds = 0
The dot product: 2.24287055340714e-07
The angle: 88.6563148010767
Setting atom values ...
  1 settings made for x
  1 settings made for y
  1 settings made for z
Setting up cg style minimization ...
  Unit style    : metal
  Current step  : 3277
Per MPI rank memory allocation (min/avg/max) = 5.441 | 5.816 | 6.074 Mbytes
Step PotEng KinEng TotEng v_fx v_fy v_fz 
    3277   -1152448.8            0   -1152448.8  0.062321513 -0.010078914  0.042188494 
    3477   -1152448.8            0   -1152448.8 1.6898906e-05 -4.5529831e-07 -7.5194111e-06 
Loop time of 2.31257 on 104 procs for 200 steps with 288751 atoms

99.9% CPU use with 104 MPI tasks x 1 OpenMP threads

Minimization stats:
  Stopping criterion = force tolerance
  Energy initial, next-to-last, final = 
     -1152448.76453305  -1152448.76876691  -1152448.76876691
  Force two-norm initial, final = 0.30903094 9.8387244e-05
  Force max component initial, final = 0.27919019 1.8564248e-05
  Final line search alpha, max atom move = 1.0000000 1.8564248e-05
  Iterations, force evaluations = 200 400

MPI task timing breakdown:
Section |  min time  |  avg time  |  max time  |%varavg| %total
---------------------------------------------------------------
Pair    | 0.60652    | 1.6856     | 2.1807     |  35.0 | 72.89
Neigh   | 0          | 0          | 0          |   0.0 |  0.00
Comm    | 0.037583   | 0.37691    | 1.1467     |  52.2 | 16.30
Output  | 0          | 0          | 0          |   0.0 |  0.00
Modify  | 2.5359e-05 | 0.0032853  | 0.0070432  |   2.7 |  0.14
Other   |            | 0.2467     |            |       | 10.67

Nlocal:        2776.45 ave        3930 max           0 min
Histogram: 8 4 4 0 4 12 8 0 26 38
Nghost:        3879.12 ave        5425 max         232 min
Histogram: 8 0 8 0 16 0 8 8 16 40
Neighs:        79213.4 ave      114447 max           0 min
Histogram: 8 4 4 0 8 8 8 8 20 36

Total # of neighbors = 8238197
Ave neighs/atom = 28.530454
Neighbor list builds = 0
Dangerous builds = 0
The dot product: 2.13873748762049e-07
The angle: 89.3376729754843
Setting atom values ...
  1 settings made for x
  1 settings made for y
  1 settings made for z
Setting up cg style minimization ...
  Unit style    : metal
  Current step  : 3477
Per MPI rank memory allocation (min/avg/max) = 5.441 | 5.816 | 6.074 Mbytes
Step PotEng KinEng TotEng v_fx v_fy v_fz 
    3477   -1152448.7            0   -1152448.7  0.049013265 -0.0071187681  0.043914136 
    3669   -1152448.7            0   -1152448.7 -5.0529166e-06 1.0922475e-06 -8.1943522e-06 
Loop time of 2.20778 on 104 procs for 192 steps with 288751 atoms

99.9% CPU use with 104 MPI tasks x 1 OpenMP threads

Minimization stats:
  Stopping criterion = energy tolerance
  Energy initial, next-to-last, final = 
     -1152448.70402837    -1152448.708169    -1152448.708169
  Force two-norm initial, final = 0.31447389 0.00011446501
  Force max component initial, final = 0.287981 3.7435412e-05
  Final line search alpha, max atom move = 1.0000000 3.7435412e-05
  Iterations, force evaluations = 192 384

MPI task timing breakdown:
Section |  min time  |  avg time  |  max time  |%varavg| %total
---------------------------------------------------------------
Pair    | 0.58276    | 1.6139     | 2.0861     |  34.4 | 73.10
Neigh   | 0          | 0          | 0          |   0.0 |  0.00
Comm    | 0.033063   | 0.36096    | 1.097      |  51.4 | 16.35
Output  | 0          | 0          | 0          |   0.0 |  0.00
Modify  | 2.3519e-05 | 0.0031574  | 0.0067436  |   2.7 |  0.14
Other   |            | 0.2298     |            |       | 10.41

Nlocal:        2776.45 ave        3930 max           0 min
Histogram: 8 4 4 0 4 12 8 0 26 38
Nghost:        3879.12 ave        5425 max         232 min
Histogram: 8 0 8 0 16 0 8 8 16 40
Neighs:        79213.4 ave      114454 max           0 min
Histogram: 8 4 4 0 8 8 8 8 20 36

Total # of neighbors = 8238197
Ave neighs/atom = 28.530454
Neighbor list builds = 0
Dangerous builds = 0
The dot product: -2.53669277061309e-07
The angle: 91.5002762002982
Setting atom values ...
  1 settings made for x
  1 settings made for y
  1 settings made for z
Setting up cg style minimization ...
  Unit style    : metal
  Current step  : 3669
Per MPI rank memory allocation (min/avg/max) = 5.441 | 5.816 | 6.074 Mbytes
Step PotEng KinEng TotEng v_fx v_fy v_fz 
    3669   -1152448.6            0   -1152448.6  0.038218967 -0.0051355721  0.046422199 
    3914   -1152448.7            0   -1152448.7 -7.0335417e-07 6.3743685e-07 -7.8936203e-06 
Loop time of 2.80434 on 104 procs for 245 steps with 288751 atoms

99.9% CPU use with 104 MPI tasks x 1 OpenMP threads

Minimization stats:
  Stopping criterion = force tolerance
  Energy initial, next-to-last, final = 
      -1152448.6415698  -1152448.68042757  -1152448.68042757
  Force two-norm initial, final = 0.33004117 9.9426350e-05
  Force max component initial, final = 0.29634583 8.0182355e-06
  Final line search alpha, max atom move = 1.0000000 8.0182355e-06
  Iterations, force evaluations = 245 489

MPI task timing breakdown:
Section |  min time  |  avg time  |  max time  |%varavg| %total
---------------------------------------------------------------
Pair    | 0.74046    | 2.05       | 2.6445     |  38.5 | 73.10
Neigh   | 1.0227e-05 | 0.0029602  | 0.0042635  |   2.2 |  0.11
Comm    | 0.043647   | 0.45492    | 1.3756     |  57.5 | 16.22
Output  | 0          | 0          | 0          |   0.0 |  0.00
Modify  | 2.9993e-05 | 0.0040183  | 0.0085842  |   3.0 |  0.14
Other   |            | 0.2924     |            |       | 10.43

Nlocal:        2776.45 ave        3930 max           0 min
Histogram: 8 4 4 0 4 12 8 0 26 38
Nghost:        3879.09 ave        5425 max         232 min
Histogram: 8 0 8 0 16 0 8 8 16 40
Neighs:        79213.5 ave      114453 max           0 min
Histogram: 8 4 4 0 8 8 8 8 20 36

Total # of neighbors = 8238199
Ave neighs/atom = 28.530461
Neighbor list builds = 1
Dangerous builds = 0
The dot product: -3.28290793546112e-07
The angle: 92.3665244276086
Setting atom values ...
  1 settings made for x
  1 settings made for y
  1 settings made for z
Setting up cg style minimization ...
  Unit style    : metal
  Current step  : 3914
Per MPI rank memory allocation (min/avg/max) = 5.441 | 5.816 | 6.074 Mbytes
Step PotEng KinEng TotEng v_fx v_fy v_fz 
    3914   -1152448.6            0   -1152448.6  0.026339821 -0.0025523881  0.054933455 
    4000   -1152448.6            0   -1152448.6 3.4186356e-05 -1.6572595e-06 2.7096718e-05 
    4092   -1152448.6            0   -1152448.6 -5.6060404e-06 1.2672159e-07 -5.7078093e-07 
Loop time of 2.05554 on 104 procs for 178 steps with 288751 atoms

99.9% CPU use with 104 MPI tasks x 1 OpenMP threads

Minimization stats:
  Stopping criterion = energy tolerance
  Energy initial, next-to-last, final = 
     -1152448.63411802  -1152448.63918464  -1152448.63918464
  Force two-norm initial, final = 0.34224113 0.0001977876
  Force max component initial, final = 0.3082167 8.1122706e-05
  Final line search alpha, max atom move = 1.0000000 8.1122706e-05
  Iterations, force evaluations = 178 356

MPI task timing breakdown:
Section |  min time  |  avg time  |  max time  |%varavg| %total
---------------------------------------------------------------
Pair    | 0.53878    | 1.4903     | 1.9307     |  32.9 | 72.50
Neigh   | 0          | 0          | 0          |   0.0 |  0.00
Comm    | 0.034812   | 0.33151    | 1.0056     |  49.1 | 16.13
Output  | 9.7607e-05 | 0.00010256 | 0.00023207 |   0.0 |  0.00
Modify  | 2.206e-05  | 0.0029295  | 0.0062569  |   2.6 |  0.14
Other   |            | 0.2307     |            |       | 11.22

Nlocal:        2776.45 ave        3930 max           0 min
Histogram: 8 4 4 0 4 12 8 0 26 38
Nghost:        3879.09 ave        5425 max         232 min
Histogram: 8 0 8 0 16 0 8 8 16 40
Neighs:        79213.4 ave      114453 max           0 min
Histogram: 8 4 4 0 8 8 8 8 20 36

Total # of neighbors = 8238189
Ave neighs/atom = 28.530426
Neighbor list builds = 0
Dangerous builds = 0
The dot product: -6.94919221739437e-08
The angle: 90.7064192210218
Setting atom values ...
  1 settings made for x
  1 settings made for y
  1 settings made for z
Setting up cg style minimization ...
  Unit style    : metal
  Current step  : 4092
Per MPI rank memory allocation (min/avg/max) = 5.441 | 5.816 | 6.074 Mbytes
Step PotEng KinEng TotEng v_fx v_fy v_fz 
    4092   -1152448.6            0   -1152448.6  0.011531022 -0.00058849694  0.028077137 
    4276   -1152448.6            0   -1152448.6 1.1285571e-05 -3.0339077e-07 1.1903665e-05 
Loop time of 2.12859 on 104 procs for 184 steps with 288751 atoms

99.9% CPU use with 104 MPI tasks x 1 OpenMP threads

Minimization stats:
  Stopping criterion = energy tolerance
  Energy initial, next-to-last, final = 
     -1152448.59211674  -1152448.59775533  -1152448.59775533
  Force two-norm initial, final = 0.34943804 0.00015613887
  Force max component initial, final = 0.31522213 5.1309033e-05
  Final line search alpha, max atom move = 1.0000000 5.1309033e-05
  Iterations, force evaluations = 184 368

MPI task timing breakdown:
Section |  min time  |  avg time  |  max time  |%varavg| %total
---------------------------------------------------------------
Pair    | 0.55745    | 1.5499     | 2.0027     |  33.6 | 72.81
Neigh   | 0          | 0          | 0          |   0.0 |  0.00
Comm    | 0.031666   | 0.34995    | 1.0575     |  50.0 | 16.44
Output  | 0          | 0          | 0          |   0.0 |  0.00
Modify  | 2.351e-05  | 0.0030309  | 0.0064671  |   2.6 |  0.14
Other   |            | 0.2257     |            |       | 10.60

Nlocal:        2776.45 ave        3930 max           0 min
Histogram: 8 4 4 0 4 12 8 0 26 38
Nghost:        3879.12 ave        5425 max         232 min
Histogram: 8 0 8 0 16 0 8 8 16 40
Neighs:        79213.3 ave      114453 max           0 min
Histogram: 8 4 4 0 8 8 8 8 20 36

Total # of neighbors = 8238188
Ave neighs/atom = 28.530422
Neighbor list builds = 0
Dangerous builds = 0
The dot product: 1.72228317476484e-07
The angle: 89.3985005393435
Setting atom values ...
  1 settings made for x
  1 settings made for y
  1 settings made for z
Setting up cg style minimization ...
  Unit style    : metal
  Current step  : 4276
Per MPI rank memory allocation (min/avg/max) = 5.441 | 5.816 | 6.074 Mbytes
Step PotEng KinEng TotEng v_fx v_fy v_fz 
    4276   -1152448.6            0   -1152448.6 0.0044633165 -0.00011549616  0.013081724 
    4414   -1152448.6            0   -1152448.6 -1.3320116e-05 1.3120524e-07 -1.0944111e-05 
Loop time of 1.58268 on 104 procs for 138 steps with 288751 atoms

99.9% CPU use with 104 MPI tasks x 1 OpenMP threads

Minimization stats:
  Stopping criterion = energy tolerance
  Energy initial, next-to-last, final = 
     -1152448.55130005  -1152448.55590749  -1152448.55590749
  Force two-norm initial, final = 0.35242908 0.00016819699
  Force max component initial, final = 0.32227902 6.1254640e-05
  Final line search alpha, max atom move = 1.0000000 6.1254640e-05
  Iterations, force evaluations = 138 276

MPI task timing breakdown:
Section |  min time  |  avg time  |  max time  |%varavg| %total
---------------------------------------------------------------
Pair    | 0.41726    | 1.1556     | 1.4937     |  29.0 | 73.02
Neigh   | 0          | 0          | 0          |   0.0 |  0.00
Comm    | 0.024487   | 0.25812    | 0.78535    |  43.3 | 16.31
Output  | 0          | 0          | 0          |   0.0 |  0.00
Modify  | 1.715e-05  | 0.0022729  | 0.0048784  |   2.3 |  0.14
Other   |            | 0.1667     |            |       | 10.53

Nlocal:        2776.45 ave        3930 max           0 min
Histogram: 8 4 4 0 4 12 8 0 26 38
Nghost:        3879.11 ave        5425 max         232 min
Histogram: 8 0 8 0 16 0 8 8 16 40
Neighs:        79213.3 ave      114453 max           0 min
Histogram: 8 4 4 0 8 8 8 8 20 36

Total # of neighbors = 8238187
Ave neighs/atom = 28.530419
Neighbor list builds = 0
Dangerous builds = 0
The dot product: -7.24752661462373e-08
The angle: 90.24086707444
Setting atom values ...
  1 settings made for x
  1 settings made for y
  1 settings made for z
Setting up cg style minimization ...
  Unit style    : metal
  Current step  : 4414
Per MPI rank memory allocation (min/avg/max) = 5.441 | 5.816 | 6.074 Mbytes
Step PotEng KinEng TotEng v_fx v_fy v_fz 
    4414   -1152448.5            0   -1152448.5 0.0014542293 -2.0909632e-05  0.005480029 
    4566   -1152448.5            0   -1152448.5 6.2608149e-06 2.8190718e-08 -1.1347658e-05 
Loop time of 1.75351 on 104 procs for 152 steps with 288751 atoms

99.9% CPU use with 104 MPI tasks x 1 OpenMP threads

Minimization stats:
  Stopping criterion = energy tolerance
  Energy initial, next-to-last, final = 
     -1152448.50569992  -1152448.51042169  -1152448.51042169
  Force two-norm initial, final = 0.35810068 0.00011962469
  Force max component initial, final = 0.32902237 4.8987136e-05
  Final line search alpha, max atom move = 1.0000000 4.8987136e-05
  Iterations, force evaluations = 152 304

MPI task timing breakdown:
Section |  min time  |  avg time  |  max time  |%varavg| %total
---------------------------------------------------------------
Pair    | 0.46273    | 1.2841     | 1.6573     |  30.6 | 73.23
Neigh   | 0          | 0          | 0          |   0.0 |  0.00
Comm    | 0.027438   | 0.28577    | 0.86742    |  45.7 | 16.30
Output  | 0          | 0          | 0          |   0.0 |  0.00
Modify  | 1.8727e-05 | 0.0025012  | 0.0053257  |   2.4 |  0.14
Other   |            | 0.1811     |            |       | 10.33

Nlocal:        2776.45 ave        3930 max           0 min
Histogram: 8 4 4 0 4 12 8 0 26 38
Nghost:        3879.11 ave        5425 max         232 min
Histogram: 8 0 8 0 16 0 8 8 16 40
Neighs:        79213.3 ave      114454 max           0 min
Histogram: 8 4 4 0 8 8 8 8 20 36

Total # of neighbors = 8238187
Ave neighs/atom = 28.530419
Neighbor list builds = 0
Dangerous builds = 0
The dot product: -1.50216179996642e-08
The angle: 90.0664088928716
Setting atom values ...
  1 settings made for x
  1 settings made for y
  1 settings made for z
Setting up cg style minimization ...
  Unit style    : metal
  Current step  : 4566
Per MPI rank memory allocation (min/avg/max) = 5.441 | 5.816 | 6.074 Mbytes
Step PotEng KinEng TotEng v_fx v_fy v_fz 
    4566   -1152448.5            0   -1152448.5 0.00041333565 -4.166848e-06 0.0023734261 
    4720   -1152448.5            0   -1152448.5 -2.6357073e-06 -1.1715353e-09 2.0661809e-06 
Loop time of 1.76866 on 104 procs for 154 steps with 288751 atoms

99.9% CPU use with 104 MPI tasks x 1 OpenMP threads

Minimization stats:
  Stopping criterion = force tolerance
  Energy initial, next-to-last, final = 
     -1152448.45533407  -1152448.46038331  -1152448.46038332
  Force two-norm initial, final = 0.36811093 9.9617264e-05
  Force max component initial, final = 0.33559622 4.6829908e-05
  Final line search alpha, max atom move = 1.0000000 4.6829908e-05
  Iterations, force evaluations = 154 308

MPI task timing breakdown:
Section |  min time  |  avg time  |  max time  |%varavg| %total
---------------------------------------------------------------
Pair    | 0.47031    | 1.29       | 1.6631     |  30.6 | 72.94
Neigh   | 0          | 0          | 0          |   0.0 |  0.00
Comm    | 0.027776   | 0.28793    | 0.87629    |  45.9 | 16.28
Output  | 0          | 0          | 0          |   0.0 |  0.00
Modify  | 1.8998e-05 | 0.0025352  | 0.0054495  |   2.4 |  0.14
Other   |            | 0.1882     |            |       | 10.64

Nlocal:        2776.45 ave        3930 max           0 min
Histogram: 8 4 4 0 4 12 8 0 26 38
Nghost:        3879.11 ave        5425 max         232 min
Histogram: 8 0 8 0 16 0 8 8 16 40
Neighs:        79213.3 ave      114454 max           0 min
Histogram: 8 4 4 0 8 8 8 8 20 36

Total # of neighbors = 8238188
Ave neighs/atom = 28.530422
Neighbor list builds = 0
Dangerous builds = 0
The dot product: 7.01739146265808e-10
The angle: 89.9879945560084
Setting up cg style minimization ...
  Unit style    : metal
  Current step  : 4720
Per MPI rank memory allocation (min/avg/max) = 5.441 | 5.816 | 6.074 Mbytes
Step PotEng KinEng TotEng v_fx v_fy v_fz 
    4720   -1152448.5            0   -1152448.5 0.0014302725    1.7477584 0.0028209329 
    4911   -1152449.3            0   -1152449.3 -2.7968625e-06 -1.402511e-06 3.5143721e-05 
Loop time of 2.18698 on 104 procs for 191 steps with 288751 atoms

99.9% CPU use with 104 MPI tasks x 1 OpenMP threads

Minimization stats:
  Stopping criterion = energy tolerance
  Energy initial, next-to-last, final = 
     -1152448.46038332  -1152449.34502401  -1152449.34502401
  Force two-norm initial, final = 1.7477613 0.0001926414
  Force max component initial, final = 1.7477584 3.5143721e-05
  Final line search alpha, max atom move = 1.0000000 3.5143721e-05
  Iterations, force evaluations = 191 376

MPI task timing breakdown:
Section |  min time  |  avg time  |  max time  |%varavg| %total
---------------------------------------------------------------
Pair    | 0.58393    | 1.5873     | 2.0461     |  33.5 | 72.58
Neigh   | 4.0298e-05 | 0.011825   | 0.01703    |   4.5 |  0.54
Comm    | 0.036498   | 0.35574    | 1.0764     |  50.4 | 16.27
Output  | 0          | 0          | 0          |   0.0 |  0.00
Modify  | 2.1708e-05 | 0.0020148  | 0.0051836  |   2.8 |  0.09
Other   |            | 0.2301     |            |       | 10.52

Nlocal:        2776.45 ave        3930 max           0 min
Histogram: 8 4 4 0 4 12 8 0 26 38
Nghost:        3879.12 ave        5425 max         232 min
Histogram: 8 0 8 0 16 0 8 8 16 40
Neighs:        79213.3 ave      114454 max           0 min
Histogram: 8 4 4 0 8 8 8 8 20 36

Total # of neighbors = 8238186
Ave neighs/atom = 28.530415
Neighbor list builds = 4
Dangerous builds = 0
2
OMP_NUM_THREADS environment is not set. Defaulting to 1 thread. (../comm.cpp:94)
  using 1 OpenMP thread(s) per MPI task
Reading data file ...
  orthogonal box = (-122.39241 -121.13707 -37.090501) to (122.39241 121.13707 37.090501)
  13 by 4 by 2 MPI processor grid
  reading atoms ...
  288751 atoms
  read_data CPU = 0.346 seconds
199981 atoms in group inner
88770 atoms in group outer
1 atoms in group carbon
Neighbor list info ...
  update every 1 steps, delay 0 steps, check yes
  max neighbors/atom: 2000, page size: 100000
  master list distance cutoff = 5.6
  ghost atom cutoff = 5.6
  binsize = 2.8, bins = 88 87 27
  1 neighbor lists, perpetual/occasional/extra = 1 0 0
  (1) pair eam/alloy, perpetual
      attributes: half, newton on
      pair build: half/bin/atomonly/newton
      stencil: half/bin/3d/newton
      bin: standard
Setting up cg style minimization ...
  Unit style    : metal
  Current step  : 0
Per MPI rank memory allocation (min/avg/max) = 5.441 | 5.816 | 6.074 Mbytes
Step v_fx v_fy v_fz PotEng KinEng TotEng 
       0    9.2589799   0.21494723   -8.1285502   -1152446.2            0   -1152446.2 
     158 3.4751302e-05 -2.6982236e-06 -3.5571577e-05   -1152449.3            0   -1152449.3 
Loop time of 1.85442 on 104 procs for 158 steps with 288751 atoms

99.9% CPU use with 104 MPI tasks x 1 OpenMP threads

Minimization stats:
  Stopping criterion = energy tolerance
  Energy initial, next-to-last, final = 
     -1152446.23480014  -1152449.34502403  -1152449.34502403
  Force two-norm initial, final = 22.470913 0.00017697811
  Force max component initial, final = 15.081250 5.4906483e-05
  Final line search alpha, max atom move = 1.0000000 5.4906483e-05
  Iterations, force evaluations = 158 314

MPI task timing breakdown:
Section |  min time  |  avg time  |  max time  |%varavg| %total
---------------------------------------------------------------
Pair    | 0.48665    | 1.3229     | 1.7309     |  30.7 | 71.34
Neigh   | 3.0044e-05 | 0.0088549  | 0.013044   |   3.9 |  0.48
Comm    | 0.029164   | 0.30134    | 0.90057    |  45.5 | 16.25
Output  | 0          | 0          | 0          |   0.0 |  0.00
Modify  | 1.8688e-05 | 0.0016875  | 0.0043286  |   2.6 |  0.09
Other   |            | 0.2196     |            |       | 11.84

Nlocal:        2776.45 ave        3960 max           0 min
Histogram: 8 4 4 0 4 12 8 2 28 34
Nghost:        3879.01 ave        5424 max         232 min
Histogram: 8 0 8 0 16 0 8 8 16 40
Neighs:        79213.5 ave      115434 max           0 min
Histogram: 8 4 4 0 10 6 8 8 24 32

Total # of neighbors = 8238207
Ave neighs/atom = 28.530488
Neighbor list builds = 3
Dangerous builds = 0
Setting atom values ...
  1 settings made for x
  1 settings made for y
  1 settings made for z
Setting up cg style minimization ...
  Unit style    : metal
  Current step  : 158
Per MPI rank memory allocation (min/avg/max) = 5.441 | 5.816 | 6.074 Mbytes
Step PotEng KinEng TotEng v_fx v_fy v_fz 
     158   -1152449.3            0   -1152449.3 -0.0089609675  0.018760303   0.02448958 
     359   -1152449.3            0   -1152449.3 1.4738536e-05 -4.2972226e-07 -9.0440398e-06 
Loop time of 2.33275 on 104 procs for 201 steps with 288751 atoms

99.9% CPU use with 104 MPI tasks x 1 OpenMP threads

Minimization stats:
  Stopping criterion = energy tolerance
  Energy initial, next-to-last, final = 
     -1152449.34069655   -1152449.3434106   -1152449.3434106
  Force two-norm initial, final = 0.22960683 0.00012017139
  Force max component initial, final = 0.10128229 1.4738536e-05
  Final line search alpha, max atom move = 1.0000000 1.4738536e-05
  Iterations, force evaluations = 201 402

MPI task timing breakdown:
Section |  min time  |  avg time  |  max time  |%varavg| %total
---------------------------------------------------------------
Pair    | 0.61037    | 1.684      | 2.1995     |  35.0 | 72.19
Neigh   | 0          | 0          | 0          |   0.0 |  0.00
Comm    | 0.033879   | 0.37925    | 1.1368     |  51.6 | 16.26
Output  | 0          | 0          | 0          |   0.0 |  0.00
Modify  | 2.5049e-05 | 0.0033059  | 0.0070498  |   2.7 |  0.14
Other   |            | 0.2662     |            |       | 11.41

Nlocal:        2776.45 ave        3961 max           0 min
Histogram: 8 4 4 0 6 10 8 2 28 34
Nghost:        3879.02 ave        5424 max         232 min
Histogram: 8 0 8 0 16 0 8 8 16 40
Neighs:        79213.3 ave      115469 max           0 min
Histogram: 8 4 4 0 10 6 8 8 24 32

Total # of neighbors = 8238184
Ave neighs/atom = 28.530409
Neighbor list builds = 0
Dangerous builds = 0
Setting atom values ...
  1 settings made for x
  1 settings made for y
  1 settings made for z
Setting up cg style minimization ...
  Unit style    : metal
  Current step  : 359
Per MPI rank memory allocation (min/avg/max) = 5.441 | 5.816 | 6.074 Mbytes
Step PotEng KinEng TotEng v_fx v_fy v_fz 
     359   -1152449.3            0   -1152449.3 -0.0074006581  0.022851268  0.029290575 
     549   -1152449.3            0   -1152449.3 3.4993305e-05 -7.0093968e-06 -2.7821628e-05 
Loop time of 2.21596 on 104 procs for 190 steps with 288751 atoms

99.9% CPU use with 104 MPI tasks x 1 OpenMP threads

Minimization stats:
  Stopping criterion = energy tolerance
  Energy initial, next-to-last, final = 
     -1152449.33474427  -1152449.33796034  -1152449.33796034
  Force two-norm initial, final = 0.25031452 0.00018179392
  Force max component initial, final = 0.11750046 5.6267126e-05
  Final line search alpha, max atom move = 1.0000000 5.6267126e-05
  Iterations, force evaluations = 190 380

MPI task timing breakdown:
Section |  min time  |  avg time  |  max time  |%varavg| %total
---------------------------------------------------------------
Pair    | 0.5769     | 1.5967     | 2.0907     |  34.1 | 72.06
Neigh   | 0          | 0          | 0          |   0.0 |  0.00
Comm    | 0.032056   | 0.36255    | 1.0813     |  50.2 | 16.36
Output  | 0          | 0          | 0          |   0.0 |  0.00
Modify  | 2.4397e-05 | 0.0031333  | 0.0067115  |   2.6 |  0.14
Other   |            | 0.2536     |            |       | 11.44

Nlocal:        2776.45 ave        3961 max           0 min
Histogram: 8 4 4 0 6 10 8 2 28 34
Nghost:        3879.01 ave        5424 max         232 min
Histogram: 8 0 8 0 16 0 8 8 16 40
Neighs:        79213.3 ave      115498 max           0 min
Histogram: 8 4 4 0 10 6 8 8 24 32

Total # of neighbors = 8238183
Ave neighs/atom = 28.530405
Neighbor list builds = 0
Dangerous builds = 0
The dot product: -2.53393686189479e-07
The angle: 90.3208388056761
Setting atom values ...
  1 settings made for x
  1 settings made for y
  1 settings made for z
Setting up cg style minimization ...
  Unit style    : metal
  Current step  : 549
Per MPI rank memory allocation (min/avg/max) = 5.441 | 5.816 | 6.074 Mbytes
Step PotEng KinEng TotEng v_fx v_fy v_fz 
     549   -1152449.3            0   -1152449.3 -0.0091201114   0.02545792  0.035119323 
     749   -1152449.3            0   -1152449.3 -1.5286802e-06 -1.0453603e-06 -3.5409886e-07 
Loop time of 2.31768 on 104 procs for 200 steps with 288751 atoms

99.9% CPU use with 104 MPI tasks x 1 OpenMP threads

Minimization stats:
  Stopping criterion = force tolerance
  Energy initial, next-to-last, final = 
     -1152449.32555222  -1152449.32870888  -1152449.32870888
  Force two-norm initial, final = 0.2495086 9.6950438e-05
  Force max component initial, final = 0.12457192 1.1418509e-05
  Final line search alpha, max atom move = 1.0000000 1.1418509e-05
  Iterations, force evaluations = 200 400

MPI task timing breakdown:
Section |  min time  |  avg time  |  max time  |%varavg| %total
---------------------------------------------------------------
Pair    | 0.60444    | 1.6747     | 2.1927     |  35.0 | 72.26
Neigh   | 0          | 0          | 0          |   0.0 |  0.00
Comm    | 0.036935   | 0.37872    | 1.1344     |  51.2 | 16.34
Output  | 0          | 0          | 0          |   0.0 |  0.00
Modify  | 2.6299e-05 | 0.0032932  | 0.0070792  |   2.7 |  0.14
Other   |            | 0.2609     |            |       | 11.26

Nlocal:        2776.45 ave        3961 max           0 min
Histogram: 8 4 4 0 6 10 8 2 28 34
Nghost:        3879.05 ave        5424 max         232 min
Histogram: 8 0 8 0 16 0 8 8 16 40
Neighs:        79213.3 ave      115481 max           0 min
Histogram: 8 4 4 0 10 6 8 8 24 32

Total # of neighbors = 8238183
Ave neighs/atom = 28.530405
Neighbor list builds = 0
Dangerous builds = 0
The dot product: -4.82112749370703e-08
The angle: 91.4652006844767
Setting atom values ...
  1 settings made for x
  1 settings made for y
  1 settings made for z
Setting up cg style minimization ...
  Unit style    : metal
  Current step  : 749
Per MPI rank memory allocation (min/avg/max) = 5.441 | 5.816 | 6.074 Mbytes
Step PotEng KinEng TotEng v_fx v_fy v_fz 
     749   -1152449.3            0   -1152449.3 -0.013901853  0.026120455  0.041424568 
     938   -1152449.3            0   -1152449.3 2.1190379e-05 3.968426e-06 -7.3490617e-06 
Loop time of 2.20896 on 104 procs for 189 steps with 288751 atoms

99.9% CPU use with 104 MPI tasks x 1 OpenMP threads

Minimization stats:
  Stopping criterion = energy tolerance
  Energy initial, next-to-last, final = 
     -1152449.31308734  -1152449.31613715  -1152449.31613715
  Force two-norm initial, final = 0.24856587 0.00012275115
  Force max component initial, final = 0.13227037 2.7654018e-05
  Final line search alpha, max atom move = 1.0000000 2.7654018e-05
  Iterations, force evaluations = 189 378

MPI task timing breakdown:
Section |  min time  |  avg time  |  max time  |%varavg| %total
---------------------------------------------------------------
Pair    | 0.57209    | 1.5853     | 2.0817     |  34.1 | 71.77
Neigh   | 0          | 0          | 0          |   0.0 |  0.00
Comm    | 0.0328     | 0.35997    | 1.0696     |  49.9 | 16.30
Output  | 0          | 0          | 0          |   0.0 |  0.00
Modify  | 2.3484e-05 | 0.0031133  | 0.0066723  |   2.6 |  0.14
Other   |            | 0.2606     |            |       | 11.80

Nlocal:        2776.45 ave        3961 max           0 min
Histogram: 8 4 4 0 6 10 8 4 26 34
Nghost:        3879.12 ave        5424 max         232 min
Histogram: 8 0 8 0 16 0 8 8 16 40
Neighs:        79213.3 ave      115482 max           0 min
Histogram: 8 4 4 0 10 6 8 8 24 32

Total # of neighbors = 8238183
Ave neighs/atom = 28.530405
Neighbor list builds = 0
Dangerous builds = 0
The dot product: -4.2610914145683e-07
The angle: 91.071947035435
Setting atom values ...
  1 settings made for x
  1 settings made for y
  1 settings made for z
Setting up cg style minimization ...
  Unit style    : metal
  Current step  : 938
Per MPI rank memory allocation (min/avg/max) = 5.441 | 5.816 | 6.074 Mbytes
Step PotEng KinEng TotEng v_fx v_fy v_fz 
     938   -1152449.3            0   -1152449.3 -0.011448252  0.022548977  0.039216987 
    1000   -1152449.3            0   -1152449.3 -0.00016775432 5.0779786e-06 0.00011587043 
    1103   -1152449.3            0   -1152449.3 2.0051694e-05 -3.439525e-06 -1.7844427e-05 
Loop time of 1.9251 on 104 procs for 165 steps with 288751 atoms

99.9% CPU use with 104 MPI tasks x 1 OpenMP threads

Minimization stats:
  Stopping criterion = energy tolerance
  Energy initial, next-to-last, final = 
     -1152449.29809513  -1152449.30106417  -1152449.30106417
  Force two-norm initial, final = 0.2459993 0.00022451207
  Force max component initial, final = 0.14005102 3.8200876e-05
  Final line search alpha, max atom move = 1.0000000 3.8200876e-05
  Iterations, force evaluations = 165 330

MPI task timing breakdown:
Section |  min time  |  avg time  |  max time  |%varavg| %total
---------------------------------------------------------------
Pair    | 0.51288    | 1.386      | 1.8073     |  31.3 | 71.99
Neigh   | 0          | 0          | 0          |   0.0 |  0.00
Comm    | 0.031952   | 0.31399    | 0.93528    |  46.3 | 16.31
Output  | 9.6242e-05 | 9.868e-05  | 0.00020548 |   0.0 |  0.01
Modify  | 2.1168e-05 | 0.0027219  | 0.006349   |   2.5 |  0.14
Other   |            | 0.2223     |            |       | 11.55

Nlocal:        2776.45 ave        3961 max           0 min
Histogram: 8 4 4 0 6 10 8 4 26 34
Nghost:        3879.11 ave        5424 max         232 min
Histogram: 8 0 8 0 16 0 8 8 16 40
Neighs:        79213.3 ave      115483 max           0 min
Histogram: 8 4 4 0 10 6 8 8 24 32

Total # of neighbors = 8238184
Ave neighs/atom = 28.530409
Neighbor list builds = 0
Dangerous builds = 0
The dot product: -8.83398099904052e-07
The angle: 91.87070162669
Setting atom values ...
  1 settings made for x
  1 settings made for y
  1 settings made for z
Setting up cg style minimization ...
  Unit style    : metal
  Current step  : 1103
Per MPI rank memory allocation (min/avg/max) = 5.441 | 5.816 | 6.074 Mbytes
Step PotEng KinEng TotEng v_fx v_fy v_fz 
    1103   -1152449.3            0   -1152449.3 -0.0076733429  0.018270221  0.033575226 
    1288   -1152449.3            0   -1152449.3 9.8744887e-06 -2.3391086e-06 -1.0636534e-05 
Loop time of 2.16416 on 104 procs for 185 steps with 288751 atoms

99.9% CPU use with 104 MPI tasks x 1 OpenMP threads

Minimization stats:
  Stopping criterion = force tolerance
  Energy initial, next-to-last, final = 
      -1152449.2806622   -1152449.2835514   -1152449.2835514
  Force two-norm initial, final = 0.24254022 9.8923373e-05
  Force max component initial, final = 0.14685645 2.7120132e-05
  Final line search alpha, max atom move = 1.0000000 2.7120132e-05
  Iterations, force evaluations = 185 370

MPI task timing breakdown:
Section |  min time  |  avg time  |  max time  |%varavg| %total
---------------------------------------------------------------
Pair    | 0.5583     | 1.5516     | 2.0445     |  33.8 | 71.70
Neigh   | 0          | 0          | 0          |   0.0 |  0.00
Comm    | 0.03153    | 0.35363    | 1.0566     |  49.6 | 16.34
Output  | 0          | 0          | 0          |   0.0 |  0.00
Modify  | 2.2877e-05 | 0.003047   | 0.0064873  |   2.6 |  0.14
Other   |            | 0.2559     |            |       | 11.82

Nlocal:        2776.45 ave        3961 max           0 min
Histogram: 8 4 4 0 6 10 8 4 26 34
Nghost:        3879.11 ave        5424 max         232 min
Histogram: 8 0 8 0 16 0 8 8 16 40
Neighs:        79213.3 ave      115482 max           0 min
Histogram: 8 4 4 0 10 6 8 8 24 32

Total # of neighbors = 8238183
Ave neighs/atom = 28.530405
Neighbor list builds = 0
Dangerous builds = 0
The dot product: -3.68734241051382e-07
The angle: 91.4372800042129
Setting atom values ...
  1 settings made for x
  1 settings made for y
  1 settings made for z
Setting up cg style minimization ...
  Unit style    : metal
  Current step  : 1288
Per MPI rank memory allocation (min/avg/max) = 5.441 | 5.816 | 6.074 Mbytes
Step PotEng KinEng TotEng v_fx v_fy v_fz 
    1288   -1152449.3            0   -1152449.3 -0.0041978144   0.01470909   0.02738031 
    1477   -1152449.3            0   -1152449.3 1.2839498e-05 -6.6200915e-06 -2.0702754e-05 
Loop time of 2.23424 on 104 procs for 189 steps with 288751 atoms

99.9% CPU use with 104 MPI tasks x 1 OpenMP threads

Minimization stats:
  Stopping criterion = force tolerance
  Energy initial, next-to-last, final = 
     -1152449.26048901  -1152449.26330365  -1152449.26330365
  Force two-norm initial, final = 0.24004855 9.8450371e-05
  Force max component initial, final = 0.15255865 2.0702754e-05
  Final line search alpha, max atom move = 1.0000000 2.0702754e-05
  Iterations, force evaluations = 189 378

MPI task timing breakdown:
Section |  min time  |  avg time  |  max time  |%varavg| %total
---------------------------------------------------------------
Pair    | 0.57182    | 1.5879     | 2.0739     |  34.0 | 71.07
Neigh   | 0          | 0          | 0          |   0.0 |  0.00
Comm    | 0.034668   | 0.35918    | 1.0742     |  49.8 | 16.08
Output  | 0          | 0          | 0          |   0.0 |  0.00
Modify  | 2.3634e-05 | 0.0031119  | 0.006659   |   2.6 |  0.14
Other   |            | 0.2841     |            |       | 12.71

Nlocal:        2776.45 ave        3961 max           0 min
Histogram: 8 4 4 0 6 10 8 4 26 34
Nghost:        3879.09 ave        5424 max         232 min
Histogram: 8 0 8 0 16 0 8 8 16 40
Neighs:        79213.3 ave      115482 max           0 min
Histogram: 8 4 4 0 10 6 8 8 24 32

Total # of neighbors = 8238183
Ave neighs/atom = 28.530405
Neighbor list builds = 0
Dangerous builds = 0
The dot product: -4.69788345634358e-07
The angle: 91.0663112670413
Setting atom values ...
  1 settings made for x
  1 settings made for y
  1 settings made for z
Setting up cg style minimization ...
  Unit style    : metal
  Current step  : 1477
Per MPI rank memory allocation (min/avg/max) = 5.441 | 5.816 | 6.074 Mbytes
Step PotEng KinEng TotEng v_fx v_fy v_fz 
    1477   -1152449.2            0   -1152449.2 -0.0012804688  0.012074812  0.021828882 
    1672   -1152449.2            0   -1152449.2 -3.4642431e-06 -7.5513216e-06 -1.0227389e-05 
Loop time of 2.27291 on 104 procs for 195 steps with 288751 atoms

99.9% CPU use with 104 MPI tasks x 1 OpenMP threads

Minimization stats:
  Stopping criterion = force tolerance
  Energy initial, next-to-last, final = 
     -1152449.23730896  -1152449.24006411  -1152449.24006411
  Force two-norm initial, final = 0.23862715 9.7845318e-05
  Force max component initial, final = 0.1575324 1.8897498e-05
  Final line search alpha, max atom move = 1.0000000 1.8897498e-05
  Iterations, force evaluations = 195 390

MPI task timing breakdown:
Section |  min time  |  avg time  |  max time  |%varavg| %total
---------------------------------------------------------------
Pair    | 0.58893    | 1.6385     | 2.1433     |  34.5 | 72.09
Neigh   | 0          | 0          | 0          |   0.0 |  0.00
Comm    | 0.033682   | 0.37222    | 1.1181     |  51.1 | 16.38
Output  | 0          | 0          | 0          |   0.0 |  0.00
Modify  | 2.3906e-05 | 0.0032105  | 0.0068597  |   2.7 |  0.14
Other   |            | 0.259      |            |       | 11.39

Nlocal:        2776.45 ave        3961 max           0 min
Histogram: 8 4 4 0 6 10 8 4 26 34
Nghost:        3879.09 ave        5424 max         232 min
Histogram: 8 0 8 0 16 0 8 8 16 40
Neighs:        79213.3 ave      115482 max           0 min
Histogram: 8 4 4 0 10 6 8 8 24 32

Total # of neighbors = 8238181
Ave neighs/atom = 28.530398
Neighbor list builds = 0
Dangerous builds = 0
The dot product: -1.64145778571387e-07
The angle: 90.7137729089831
Setting atom values ...
  1 settings made for x
  1 settings made for y
  1 settings made for z
Setting up cg style minimization ...
  Unit style    : metal
  Current step  : 1672
Per MPI rank memory allocation (min/avg/max) = 5.441 | 5.816 | 6.074 Mbytes
Step PotEng KinEng TotEng v_fx v_fy v_fz 
    1672   -1152449.2            0   -1152449.2 0.00091753323  0.010258817  0.017522811 
    1871   -1152449.2            0   -1152449.2 2.1746213e-05 8.2649529e-06 -3.2745876e-06 
Loop time of 2.31201 on 104 procs for 199 steps with 288751 atoms

99.9% CPU use with 104 MPI tasks x 1 OpenMP threads

Minimization stats:
  Stopping criterion = force tolerance
  Energy initial, next-to-last, final = 
     -1152449.21090686  -1152449.21362269  -1152449.21362269
  Force two-norm initial, final = 0.23803807 9.9862349e-05
  Force max component initial, final = 0.16197215 2.1746213e-05
  Final line search alpha, max atom move = 1.0000000 2.1746213e-05
  Iterations, force evaluations = 199 398

MPI task timing breakdown:
Section |  min time  |  avg time  |  max time  |%varavg| %total
---------------------------------------------------------------
Pair    | 0.60394    | 1.6682     | 2.1767     |  34.9 | 72.15
Neigh   | 0          | 0          | 0          |   0.0 |  0.00
Comm    | 0.037446   | 0.37683    | 1.1276     |  51.2 | 16.30
Output  | 0          | 0          | 0          |   0.0 |  0.00
Modify  | 2.6387e-05 | 0.0032719  | 0.0070134  |   2.7 |  0.14
Other   |            | 0.2637     |            |       | 11.41

Nlocal:        2776.45 ave        3961 max           0 min
Histogram: 8 4 4 0 6 10 8 4 26 34
Nghost:        3879.09 ave        5425 max         232 min
Histogram: 8 0 8 0 16 0 8 8 16 40
Neighs:        79213.3 ave      115484 max           0 min
Histogram: 8 4 4 0 10 6 8 8 24 32

Total # of neighbors = 8238183
Ave neighs/atom = 28.530405
Neighbor list builds = 0
Dangerous builds = 0
The dot product: 1.25099450257031e-08
The angle: 89.9694904366997
Setting atom values ...
  1 settings made for x
  1 settings made for y
  1 settings made for z
Setting up cg style minimization ...
  Unit style    : metal
  Current step  : 1871
Per MPI rank memory allocation (min/avg/max) = 5.441 | 5.816 | 6.074 Mbytes
Step PotEng KinEng TotEng v_fx v_fy v_fz 
    1871   -1152449.2            0   -1152449.2 0.0028964958 0.0092088935  0.014390162 
    2000   -1152449.2            0   -1152449.2 5.3497108e-05 -2.1325359e-05 -8.4142302e-05 
    2053   -1152449.2            0   -1152449.2 2.0990717e-06 1.3587453e-06 7.1214872e-07 
Loop time of 2.11829 on 104 procs for 182 steps with 288751 atoms

99.9% CPU use with 104 MPI tasks x 1 OpenMP threads

Minimization stats:
  Stopping criterion = energy tolerance
  Energy initial, next-to-last, final = 
     -1152449.18111118  -1152449.18380567  -1152449.18380567
  Force two-norm initial, final = 0.23816786 0.00015393254
  Force max component initial, final = 0.16607444 3.8380640e-05
  Final line search alpha, max atom move = 1.0000000 3.8380640e-05
  Iterations, force evaluations = 182 364

MPI task timing breakdown:
Section |  min time  |  avg time  |  max time  |%varavg| %total
---------------------------------------------------------------
Pair    | 0.55143    | 1.5292     | 2.0026     |  33.5 | 72.19
Neigh   | 0          | 0          | 0          |   0.0 |  0.00
Comm    | 0.030472   | 0.34802    | 1.0358     |  49.2 | 16.43
Output  | 0.00010607 | 0.00011447 | 0.00026703 |   0.0 |  0.01
Modify  | 2.2442e-05 | 0.0029998  | 0.0064488  |   2.6 |  0.14
Other   |            | 0.2379     |            |       | 11.23

Nlocal:        2776.45 ave        3961 max           0 min
Histogram: 8 4 4 0 6 10 8 4 26 34
Nghost:        3879.07 ave        5425 max         232 min
Histogram: 8 0 8 0 16 0 8 8 16 40
Neighs:        79213.3 ave      115486 max           0 min
Histogram: 8 4 4 0 10 6 8 8 24 32

Total # of neighbors = 8238184
Ave neighs/atom = 28.530409
Neighbor list builds = 0
Dangerous builds = 0
The dot product: 1.37093144864033e-08
The angle: 89.697876288039
Setting atom values ...
  1 settings made for x
  1 settings made for y
  1 settings made for z
Setting up cg style minimization ...
  Unit style    : metal
  Current step  : 2053
Per MPI rank memory allocation (min/avg/max) = 5.441 | 5.816 | 6.074 Mbytes
Step PotEng KinEng TotEng v_fx v_fy v_fz 
    2053   -1152449.1            0   -1152449.1 0.0052044026 0.0088402253  0.012056094 
    2256   -1152449.2            0   -1152449.2 -3.0792552e-06 5.1028763e-07 3.5824088e-06 
Loop time of 2.38106 on 104 procs for 203 steps with 288751 atoms

99.9% CPU use with 104 MPI tasks x 1 OpenMP threads

Minimization stats:
  Stopping criterion = force tolerance
  Energy initial, next-to-last, final = 
     -1152449.14776598   -1152449.1504587   -1152449.1504587
  Force two-norm initial, final = 0.2390746 9.3907914e-05
  Force max component initial, final = 0.17003463 1.3986435e-05
  Final line search alpha, max atom move = 1.0000000 1.3986435e-05
  Iterations, force evaluations = 203 406

MPI task timing breakdown:
Section |  min time  |  avg time  |  max time  |%varavg| %total
[...]

Total # of neighbors = 8238181
Ave neighs/atom = 28.530398
Neighbor list builds = 0
Dangerous builds = 0
The dot product: 6.75785289211328e-07
The angle: 88.9885589045434
Setting atom values ...
  1 settings made for x
  1 settings made for y
  1 settings made for z
Setting up cg style minimization ...
  Unit style    : metal
  Current step  : 3387
Per MPI rank memory allocation (min/avg/max) = 5.441 | 5.816 | 6.074 Mbytes
Step PotEng KinEng TotEng v_fx v_fy v_fz 
    3387   -1152448.8            0   -1152448.8 -0.032715445  0.017015406 -0.004902973 
    3602   -1152448.8            0   -1152448.8 -2.6475599e-06 6.7340266e-06 -1.3644391e-05 
Loop time of 2.4799 on 104 procs for 215 steps with 288751 atoms

99.9% CPU use with 104 MPI tasks x 1 OpenMP threads

Minimization stats:
  Stopping criterion = force tolerance
  Energy initial, next-to-last, final = 
     -1152448.80056078  -1152448.80384769  -1152448.80384768
  Force two-norm initial, final = 0.26168783 9.5034858e-05
  Force max component initial, final = 0.20255005 2.5293423e-05
  Final line search alpha, max atom move = 1.0000000 2.5293423e-05
  Iterations, force evaluations = 215 430

MPI task timing breakdown:
Section |  min time  |  avg time  |  max time  |%varavg| %total
---------------------------------------------------------------
Pair    | 0.64728    | 1.7997     | 2.3399     |  36.2 | 72.57
Neigh   | 0          | 0          | 0          |   0.0 |  0.00
Comm    | 0.036194   | 0.40452    | 1.2206     |  53.3 | 16.31
Output  | 0          | 0          | 0          |   0.0 |  0.00
Modify  | 2.607e-05  | 0.0035375  | 0.007534   |   2.8 |  0.14
Other   |            | 0.2721     |            |       | 10.97

Nlocal:        2776.45 ave        3961 max           0 min
Histogram: 8 4 4 0 6 10 8 3 27 34
Nghost:        3878.85 ave        5425 max         232 min
Histogram: 8 0 8 0 16 0 8 8 16 40
Neighs:        79213.2 ave      115501 max           0 min
Histogram: 8 4 4 0 10 6 8 8 24 32

Total # of neighbors = 8238172
Ave neighs/atom = 28.530367
Neighbor list builds = 0
Dangerous builds = 0
The dot product: 2.51358495762763e-07
The angle: 89.0674600619832
Setting atom values ...
  1 settings made for x
  1 settings made for y
  1 settings made for z
Setting up cg style minimization ...
  Unit style    : metal
  Current step  : 3602
Per MPI rank memory allocation (min/avg/max) = 5.441 | 5.816 | 6.074 Mbytes
Step PotEng KinEng TotEng v_fx v_fy v_fz 
    3602   -1152448.7            0   -1152448.7 -0.016844621  0.016709306 -0.024431249 
    3805   -1152448.7            0   -1152448.7 -1.3911963e-05 -2.366202e-06 2.1343116e-05 
Loop time of 2.34963 on 104 procs for 203 steps with 288751 atoms

99.9% CPU use with 104 MPI tasks x 1 OpenMP threads

Minimization stats:
  Stopping criterion = force tolerance
  Energy initial, next-to-last, final = 
     -1152448.73559453  -1152448.73900562  -1152448.73900562
  Force two-norm initial, final = 0.26390025 9.9268939e-05
  Force max component initial, final = 0.21163101 2.1343116e-05
  Final line search alpha, max atom move = 1.0000000 2.1343116e-05
  Iterations, force evaluations = 203 406

MPI task timing breakdown:
Section |  min time  |  avg time  |  max time  |%varavg| %total
---------------------------------------------------------------
Pair    | 0.61475    | 1.714      | 2.2145     |  35.3 | 72.95
Neigh   | 0          | 0          | 0          |   0.0 |  0.00
Comm    | 0.038411   | 0.38565    | 1.1538     |  52.4 | 16.41
Output  | 0          | 0          | 0          |   0.0 |  0.00
Modify  | 2.4136e-05 | 0.0033582  | 0.0071248  |   2.7 |  0.14
Other   |            | 0.2466     |            |       | 10.50

Nlocal:        2776.45 ave        3961 max           0 min
Histogram: 8 4 4 0 6 10 8 3 27 34
Nghost:        3878.85 ave        5425 max         232 min
Histogram: 8 0 8 0 16 0 8 8 16 40
Neighs:        79213.2 ave      115493 max           0 min
Histogram: 8 4 4 0 10 6 8 8 24 32

Total # of neighbors = 8238169
Ave neighs/atom = 28.530357
Neighbor list builds = 0
Dangerous builds = 0
The dot product: -1.52180582155437e-07
The angle: 90.3407792431587
Setting atom values ...
  1 settings made for x
  1 settings made for y
  1 settings made for z
Setting up cg style minimization ...
  Unit style    : metal
  Current step  : 3805
Per MPI rank memory allocation (min/avg/max) = 5.441 | 5.816 | 6.074 Mbytes
Step PotEng KinEng TotEng v_fx v_fy v_fz 
    3805   -1152448.7            0   -1152448.7 -0.012337505  0.024774846 -0.055384229 
    3980   -1152448.7            0   -1152448.7 3.0897819e-06 1.2746282e-05 -3.8833915e-05 
Loop time of 2.01221 on 104 procs for 175 steps with 288751 atoms

99.9% CPU use with 104 MPI tasks x 1 OpenMP threads

Minimization stats:
  Stopping criterion = energy tolerance
  Energy initial, next-to-last, final = 
     -1152448.66752966  -1152448.67203344  -1152448.67203344
  Force two-norm initial, final = 0.27250844 0.00024730358
  Force max component initial, final = 0.22348479 5.0691990e-05
  Final line search alpha, max atom move = 1.0000000 5.0691990e-05
  Iterations, force evaluations = 175 350

MPI task timing breakdown:
Section |  min time  |  avg time  |  max time  |%varavg| %total
---------------------------------------------------------------
Pair    | 0.5304     | 1.4691     | 1.8984     |  32.7 | 73.01
Neigh   | 0          | 0          | 0          |   0.0 |  0.00
Comm    | 0.030778   | 0.32843    | 0.99744    |  48.8 | 16.32
Output  | 0          | 0          | 0          |   0.0 |  0.00
Modify  | 2.1792e-05 | 0.0028865  | 0.006155   |   2.5 |  0.14
Other   |            | 0.2118     |            |       | 10.53

Nlocal:        2776.45 ave        3961 max           0 min
Histogram: 8 4 4 0 6 10 8 3 27 34
Nghost:        3878.86 ave        5425 max         232 min
Histogram: 8 0 8 0 16 0 8 8 16 40
Neighs:        79213.1 ave      115491 max           0 min
Histogram: 8 4 4 0 10 6 8 8 24 32

Total # of neighbors = 8238166
Ave neighs/atom = 28.530346
Neighbor list builds = 0
Dangerous builds = 0
The dot product: 1.99342404726397e-06
The angle: 87.2124174621509
Setting atom values ...
  1 settings made for x
  1 settings made for y
  1 settings made for z
Setting up cg style minimization ...
  Unit style    : metal
  Current step  : 3980
Per MPI rank memory allocation (min/avg/max) = 5.441 | 5.816 | 6.074 Mbytes
Step PotEng KinEng TotEng v_fx v_fy v_fz 
    3980   -1152448.6            0   -1152448.6 -0.067468809  0.060357531  -0.12633377 
    4000   -1152448.7            0   -1152448.7 -0.0081478741 0.00069373391  0.006827855 
    4229   -1152448.7            0   -1152448.7 2.6693183e-05 -2.9263219e-06 -2.0180143e-05 
Loop time of 2.87303 on 104 procs for 249 steps with 288751 atoms

99.9% CPU use with 104 MPI tasks x 1 OpenMP threads

Minimization stats:
  Stopping criterion = force tolerance
  Energy initial, next-to-last, final = 
     -1152448.60045274  -1152448.65516081  -1152448.65516081
  Force two-norm initial, final = 0.33358236 9.7228671e-05
  Force max component initial, final = 0.24530944 2.6693183e-05
  Final line search alpha, max atom move = 1.0000000 2.6693183e-05
  Iterations, force evaluations = 249 498

MPI task timing breakdown:
Section |  min time  |  avg time  |  max time  |%varavg| %total
---------------------------------------------------------------
Pair    | 0.75399    | 2.0993     | 2.71       |  39.0 | 73.07
Neigh   | 1.0215e-05 | 0.0029521  | 0.004272   |   2.2 |  0.10
Comm    | 0.042134   | 0.47295    | 1.4172     |  57.5 | 16.46
Output  | 0.0001139  | 0.00011655 | 0.00022307 |   0.0 |  0.00
Modify  | 3.036e-05  | 0.0041008  | 0.0087613  |   3.0 |  0.14
Other   |            | 0.2936     |            |       | 10.22

Nlocal:        2776.45 ave        3961 max           0 min
Histogram: 8 4 4 0 6 10 8 3 27 34
Nghost:        3878.81 ave        5425 max         232 min
Histogram: 8 0 8 0 16 0 8 8 16 40
Neighs:        79213.2 ave      115494 max           0 min
Histogram: 8 4 4 0 10 6 8 8 24 32

Total # of neighbors = 8238170
Ave neighs/atom = 28.530360
Neighbor list builds = 1
Dangerous builds = 0
The dot product: -1.37491468968581e-06
The angle: 92.3458602239611
Setting atom values ...
  1 settings made for x
  1 settings made for y
  1 settings made for z
Setting up cg style minimization ...
  Unit style    : metal
  Current step  : 4229
Per MPI rank memory allocation (min/avg/max) = 5.441 | 5.816 | 6.074 Mbytes
Step PotEng KinEng TotEng v_fx v_fy v_fz 
    4229   -1152448.6            0   -1152448.6  -0.21306049  0.063482577  -0.22279197 
    4447   -1152448.6            0   -1152448.6 -3.909154e-05 9.8581338e-06 -2.7495708e-05 
Loop time of 2.51498 on 104 procs for 218 steps with 288751 atoms

99.9% CPU use with 104 MPI tasks x 1 OpenMP threads

Minimization stats:
  Stopping criterion = energy tolerance
  Energy initial, next-to-last, final = 
     -1152448.60466283   -1152448.6259467   -1152448.6259467
  Force two-norm initial, final = 0.45935614 0.00022226072
  Force max component initial, final = 0.30087775 4.3926165e-05
  Final line search alpha, max atom move = 1.0000000 4.3926165e-05
  Iterations, force evaluations = 218 436

MPI task timing breakdown:
Section |  min time  |  avg time  |  max time  |%varavg| %total
---------------------------------------------------------------
Pair    | 0.66197    | 1.8287     | 2.3636     |  36.3 | 72.71
Neigh   | 1.0191e-05 | 0.0029653  | 0.0043265  |   2.2 |  0.12
Comm    | 0.037414   | 0.411      | 1.2356     |  54.0 | 16.34
Output  | 0          | 0          | 0          |   0.0 |  0.00
Modify  | 2.6542e-05 | 0.0035935  | 0.0076465  |   2.8 |  0.14
Other   |            | 0.2687     |            |       | 10.68

Nlocal:        2776.45 ave        3961 max           0 min
Histogram: 8 4 4 0 6 10 8 4 26 34
Nghost:        3879.02 ave        5424 max         232 min
Histogram: 8 0 8 0 16 0 8 8 16 40
Neighs:        79213.1 ave      115492 max           0 min
Histogram: 8 4 4 0 10 6 8 8 24 32

Total # of neighbors = 8238166
Ave neighs/atom = 28.530346
Neighbor list builds = 1
Dangerous builds = 0
The dot product: 6.00628926384958e-06
The angle: 82.9299844006753
Setting atom values ...
  1 settings made for x
  1 settings made for y
  1 settings made for z
Setting up cg style minimization ...
  Unit style    : metal
  Current step  : 4447
Per MPI rank memory allocation (min/avg/max) = 5.441 | 5.816 | 6.074 Mbytes
Step PotEng KinEng TotEng v_fx v_fy v_fz 
    4447   -1152448.6            0   -1152448.6  -0.11543366  0.012653692  -0.10735148 
    4676   -1152448.6            0   -1152448.6 1.2154448e-05 -1.0997847e-07 -1.2616446e-05 
Loop time of 2.6623 on 104 procs for 229 steps with 288751 atoms

99.9% CPU use with 104 MPI tasks x 1 OpenMP threads

Minimization stats:
  Stopping criterion = force tolerance
  Energy initial, next-to-last, final = 
     -1152448.57800146  -1152448.58562481  -1152448.58562481
  Force two-norm initial, final = 0.3870273 9.7345687e-05
  Force max component initial, final = 0.3223305 3.9004743e-05
  Final line search alpha, max atom move = 1.0000000 3.9004743e-05
  Iterations, force evaluations = 229 458

MPI task timing breakdown:
Section |  min time  |  avg time  |  max time  |%varavg| %total
---------------------------------------------------------------
Pair    | 0.69415    | 1.937      | 2.4946     |  37.4 | 72.76
Neigh   | 0          | 0          | 0          |   0.0 |  0.00
Comm    | 0.040475   | 0.43552    | 1.3206     |  56.1 | 16.36
Output  | 0          | 0          | 0          |   0.0 |  0.00
Modify  | 2.7683e-05 | 0.0037804  | 0.0080735  |   2.9 |  0.14
Other   |            | 0.286      |            |       | 10.74

Nlocal:        2776.45 ave        3961 max           0 min
Histogram: 8 4 4 0 6 10 8 4 26 34
Nghost:        3879.08 ave        5424 max         232 min
Histogram: 8 0 8 0 16 0 8 8 16 40
Neighs:        79213.1 ave      115491 max           0 min
Histogram: 8 4 4 0 10 6 8 8 24 32

Total # of neighbors = 8238165
Ave neighs/atom = 28.530343
Neighbor list builds = 0
Dangerous builds = 0
The dot product: -5.83560766317906e-08
The angle: 90.1908528971366
Setting atom values ...
  1 settings made for x
  1 settings made for y
  1 settings made for z
Setting up cg style minimization ...
  Unit style    : metal
  Current step  : 4676
Per MPI rank memory allocation (min/avg/max) = 5.441 | 5.816 | 6.074 Mbytes
Step PotEng KinEng TotEng v_fx v_fy v_fz 
    4676   -1152448.5            0   -1152448.5 -0.044819549   0.00195335 -0.041177761 
    4897   -1152448.5            0   -1152448.5 -2.0978716e-06 1.1193061e-07 -2.9471299e-06 
Loop time of 2.58122 on 104 procs for 221 steps with 288751 atoms

99.9% CPU use with 104 MPI tasks x 1 OpenMP threads

Minimization stats:
  Stopping criterion = force tolerance
  Energy initial, next-to-last, final = 
     -1152448.53294908  -1152448.53851297  -1152448.53851297
  Force two-norm initial, final = 0.37107943 9.6700927e-05
  Force max component initial, final = 0.33123498 3.8950630e-05
  Final line search alpha, max atom move = 1.0000000 3.8950630e-05
  Iterations, force evaluations = 221 442

MPI task timing breakdown:
Section |  min time  |  avg time  |  max time  |%varavg| %total
---------------------------------------------------------------
Pair    | 0.66595    | 1.8544     | 2.4034     |  36.8 | 71.84
Neigh   | 0          | 0          | 0          |   0.0 |  0.00
Comm    | 0.039064   | 0.41749    | 1.2542     |  54.0 | 16.17
Output  | 0          | 0          | 0          |   0.0 |  0.00
Modify  | 2.7335e-05 | 0.0036394  | 0.0077632  |   2.8 |  0.14
Other   |            | 0.3057     |            |       | 11.84

Nlocal:        2776.45 ave        3962 max           0 min
Histogram: 8 4 4 0 6 10 8 4 26 34
Nghost:        3879.10 ave        5424 max         232 min
Histogram: 8 0 8 0 16 0 8 8 16 40
Neighs:        79213.1 ave      115514 max           0 min
Histogram: 8 4 4 0 10 6 8 8 24 32

Total # of neighbors = 8238164
Ave neighs/atom = 28.530339
Neighbor list builds = 0
Dangerous builds = 0
The dot product: 6.42962419670307e-08
The angle: 88.9820904121268
Setting atom values ...
  1 settings made for x
  1 settings made for y
  1 settings made for z
Setting up cg style minimization ...
  Unit style    : metal
  Current step  : 4897
Per MPI rank memory allocation (min/avg/max) = 5.441 | 5.816 | 6.074 Mbytes
Step PotEng KinEng TotEng v_fx v_fy v_fz 
    4897   -1152448.5            0   -1152448.5 -0.017172273 0.00032027966 -0.015854667 
    5000   -1152448.5            0   -1152448.5 -8.1633923e-07 -2.4418472e-08 3.9574691e-06 
    5105   -1152448.5            0   -1152448.5 -2.7751048e-07 8.5497671e-09 -6.571644e-07 
Loop time of 2.40224 on 104 procs for 208 steps with 288751 atoms

99.9% CPU use with 104 MPI tasks x 1 OpenMP threads

Minimization stats:
  Stopping criterion = force tolerance
  Energy initial, next-to-last, final = 
     -1152448.48055448  -1152448.48608171  -1152448.48608172
  Force two-norm initial, final = 0.37710781 9.7347723e-05
  Force max component initial, final = 0.3381368 3.8548337e-05
  Final line search alpha, max atom move = 1.0000000 3.8548337e-05
  Iterations, force evaluations = 208 416

MPI task timing breakdown:
Section |  min time  |  avg time  |  max time  |%varavg| %total
---------------------------------------------------------------
Pair    | 0.6277     | 1.756      | 2.2664     |  35.8 | 73.10
Neigh   | 0          | 0          | 0          |   0.0 |  0.00
Comm    | 0.037499   | 0.39742    | 1.192      |  52.9 | 16.54
Output  | 0.00013859 | 0.00014227 | 0.0003097  |   0.0 |  0.01
Modify  | 2.5447e-05 | 0.0034317  | 0.0073271  |   2.8 |  0.14
Other   |            | 0.2453     |            |       | 10.21

Nlocal:        2776.45 ave        3962 max           0 min
Histogram: 8 4 4 0 6 10 8 4 26 34
Nghost:        3879.10 ave        5424 max         232 min
Histogram: 8 0 8 0 16 0 8 8 16 40
Neighs:        79213.1 ave      115503 max           0 min
Histogram: 8 4 4 0 10 6 8 8 24 32

Total # of neighbors = 8238162
Ave neighs/atom = 28.530332
Neighbor list builds = 0
Dangerous builds = 0
The dot product: 4.64588150243033e-09
The angle: 89.626873426079
Setting atom values ...
  1 settings made for x
  1 settings made for y
  1 settings made for z
Setting up cg style minimization ...
  Unit style    : metal
  Current step  : 5105
Per MPI rank memory allocation (min/avg/max) = 5.441 | 5.816 | 6.074 Mbytes
Step PotEng KinEng TotEng v_fx v_fy v_fz 
    5105   -1152448.4            0   -1152448.4 -0.0066202383 5.7322393e-05 -0.0062113107 
    5243   -1152448.4            0   -1152448.4 4.4452076e-07 -1.8302477e-09 -1.1661792e-07 
Loop time of 1.59153 on 104 procs for 138 steps with 288751 atoms

99.9% CPU use with 104 MPI tasks x 1 OpenMP threads

Minimization stats:
  Stopping criterion = energy tolerance
  Energy initial, next-to-last, final = 
     -1152448.42278125  -1152448.42847684  -1152448.42847684
  Force two-norm initial, final = 0.38431237 0.000213588
  Force max component initial, final = 0.34480746 9.7857347e-05
  Final line search alpha, max atom move = 1.0000000 9.7857347e-05
  Iterations, force evaluations = 138 276

MPI task timing breakdown:
Section |  min time  |  avg time  |  max time  |%varavg| %total
---------------------------------------------------------------
Pair    | 0.41792    | 1.1581     | 1.4999     |  29.0 | 72.76
Neigh   | 0          | 0          | 0          |   0.0 |  0.00
Comm    | 0.024003   | 0.26021    | 0.78411    |  43.1 | 16.35
Output  | 0          | 0          | 0          |   0.0 |  0.00
Modify  | 1.7436e-05 | 0.0022756  | 0.004847   |   2.3 |  0.14
Other   |            | 0.171      |            |       | 10.74

Nlocal:        2776.45 ave        3962 max           0 min
Histogram: 8 4 4 0 6 10 8 3 27 34
Nghost:        3879.10 ave        5424 max         232 min
Histogram: 8 0 8 0 16 0 8 8 16 40
Neighs:        79213.0 ave      115497 max           0 min
Histogram: 8 4 4 0 10 6 8 8 24 32

Total # of neighbors = 8238153
Ave neighs/atom = 28.530301
Neighbor list builds = 0
Dangerous builds = 0
The dot product: -8.78857179897987e-10
The angle: 90.1095701860149
Setting up cg style minimization ...
  Unit style    : metal
  Current step  : 5243
Per MPI rank memory allocation (min/avg/max) = 5.441 | 5.816 | 6.074 Mbytes
Step PotEng KinEng TotEng v_fx v_fy v_fz 
    5243   -1152448.4            0   -1152448.4 -0.010254153   -2.0068886 -0.0075913932 
    5460   -1152449.3            0   -1152449.3 -4.6505235e-06 6.2890677e-08 5.986829e-07 
Loop time of 2.49254 on 104 procs for 217 steps with 288751 atoms

99.9% CPU use with 104 MPI tasks x 1 OpenMP threads

Minimization stats:
  Stopping criterion = force tolerance
  Energy initial, next-to-last, final = 
     -1152448.42847684  -1152449.34502403  -1152449.34502403
  Force two-norm initial, final = 2.0069292 9.6726822e-05
  Force max component initial, final = 2.0068886 1.0455983e-05
  Final line search alpha, max atom move = 1.0000000 1.0455983e-05
  Iterations, force evaluations = 217 427

MPI task timing breakdown:
Section |  min time  |  avg time  |  max time  |%varavg| %total
---------------------------------------------------------------
Pair    | 0.65844    | 1.8087     | 2.3288     |  35.8 | 72.56
Neigh   | 4.0086e-05 | 0.011957   | 0.021218   |   4.6 |  0.48
Comm    | 0.04467    | 0.40784    | 1.2095     |  53.0 | 16.36
Output  | 0          | 0          | 0          |   0.0 |  0.00
Modify  | 2.4581e-05 | 0.0022939  | 0.0058679  |   3.0 |  0.09
Other   |            | 0.2617     |            |       | 10.50

Nlocal:        2776.45 ave        3962 max           0 min
Histogram: 8 4 4 0 6 10 8 3 27 34
Nghost:        3879.10 ave        5424 max         232 min
Histogram: 8 0 8 0 16 0 8 8 16 40
Neighs:        79213.1 ave      115518 max           0 min
Histogram: 8 4 4 0 10 6 8 8 24 32

Total # of neighbors = 8238164
Ave neighs/atom = 28.530339
Neighbor list builds = 4
Dangerous builds = 0
