LAMMPS (29 Oct 2020)
OMP_NUM_THREADS environment is not set. Defaulting to 1 thread. (../comm.cpp:94)
  using 1 OpenMP thread(s) per MPI task
OMP_NUM_THREADS environment is not set. Defaulting to 1 thread. (../comm.cpp:94)
  using 1 OpenMP thread(s) per MPI task
Reading data file ...
  orthogonal box = (-122.39241 -121.13707 -37.090501) to (122.39241 121.13707 37.090501)
  13 by 4 by 1 MPI processor grid
  reading atoms ...
  288751 atoms
  read_data CPU = 0.464 seconds
199981 atoms in group inner
88770 atoms in group outer
1 atoms in group carbon
Neighbor list info ...
  update every 1 steps, delay 0 steps, check yes
  max neighbors/atom: 2000, page size: 100000
  master list distance cutoff = 5.6
  ghost atom cutoff = 5.6
  binsize = 2.8, bins = 88 87 27
  1 neighbor lists, perpetual/occasional/extra = 1 0 0
  (1) pair eam/alloy, perpetual
      attributes: half, newton on
      pair build: half/bin/atomonly/newton
      stencil: half/bin/3d/newton
      bin: standard
Setting up cg style minimization ...
  Unit style    : metal
  Current step  : 0
Per MPI rank memory allocation (min/avg/max) = 5.465 | 6.344 | 6.728 Mbytes
Step v_fx v_fy v_fz PotEng KinEng TotEng 
       0   0.11637205 -0.049727361  0.048472311   -1152444.6            0   -1152444.6 
     235 9.6421839e-06 2.4327242e-05 2.6250696e-05     -1152449            0     -1152449 
Loop time of 5.18583 on 52 procs for 235 steps with 288751 atoms

99.9% CPU use with 52 MPI tasks x 1 OpenMP threads

Minimization stats:
  Stopping criterion = linesearch alpha is zero
  Energy initial, next-to-last, final = 
     -1152444.63021055  -1152448.97218782  -1152448.97218782
  Force two-norm initial, final = 23.793745 0.00012322696
  Force max component initial, final = 12.011351 2.6250696e-05
  Final line search alpha, max atom move = 0.5 1.3125348e-05
  Iterations, force evaluations = 235 468

MPI task timing breakdown:
Section |  min time  |  avg time  |  max time  |%varavg| %total
---------------------------------------------------------------
Pair    | 1.3935     | 3.7516     | 4.8964     |  52.3 | 72.34
Neigh   | 0.00013289 | 0.04219    | 0.060103   |   8.6 |  0.81
Comm    | 0.0711     | 0.83311    | 2.6155     |  81.4 | 16.07
Output  | 0          | 0          | 0          |   0.0 |  0.00
Modify  | 7.2887e-05 | 0.0051935  | 0.013197   |   4.4 |  0.10
Other   |            | 0.5537     |            |       | 10.68

Nlocal:        5552.90 ave        7908 max           0 min
Histogram: 4 2 2 0 2 6 4 0 15 17
Nghost:        6213.58 ave        8769 max         412 min
Histogram: 4 0 4 0 8 0 4 5 7 20
Neighs:       158427.0 ave      230566 max           0 min
Histogram: 4 2 2 0 5 3 4 4 12 16

Total # of neighbors = 8238213
Ave neighs/atom = 28.530509
Neighbor list builds = 7
Dangerous builds = 0
Setting atom values ...
  1 settings made for x
  1 settings made for y
  1 settings made for z
Setting up cg style minimization ...
  Unit style    : metal
  Current step  : 235
Per MPI rank memory allocation (min/avg/max) = 5.465 | 6.344 | 6.728 Mbytes
Step PotEng KinEng TotEng v_fx v_fy v_fz 
     235     -1152449            0     -1152449 -0.0057158941 4.6179702e-06  0.010031216 
     622     -1152449            0     -1152449 -2.3014999e-06 -1.2247589e-06 1.7102588e-06 
Loop time of 8.60299 on 52 procs for 387 steps with 288751 atoms

99.9% CPU use with 52 MPI tasks x 1 OpenMP threads

Minimization stats:
  Stopping criterion = linesearch alpha is zero
  Energy initial, next-to-last, final = 
     -1152448.96871965  -1152448.97097176  -1152448.97097176
  Force two-norm initial, final = 0.2013195 0.00017419156
  Force max component initial, final = 0.11389156 3.3747802e-05
  Final line search alpha, max atom move = 0.25 8.4369505e-06
  Iterations, force evaluations = 387 777

MPI task timing breakdown:
Section |  min time  |  avg time  |  max time  |%varavg| %total
---------------------------------------------------------------
Pair    | 2.1889     | 6.1949     | 8.2374     |  69.6 | 72.01
Neigh   | 0          | 0          | 0          |   0.0 |  0.00
Comm    | 0.11615    | 1.3825     | 4.2701     | 103.8 | 16.07
Output  | 0          | 0          | 0          |   0.0 |  0.00
Modify  | 0.00016561 | 0.012959   | 0.028075   |   5.4 |  0.15
Other   |            | 1.013      |            |       | 11.77

Nlocal:        5552.90 ave        7906 max           0 min
Histogram: 4 2 2 0 2 6 4 0 15 17
Nghost:        6213.62 ave        8769 max         412 min
Histogram: 4 0 4 0 8 0 4 5 7 20
Neighs:       158427.0 ave      230482 max           0 min
Histogram: 4 2 2 0 5 3 4 4 12 16

Total # of neighbors = 8238206
Ave neighs/atom = 28.530485
Neighbor list builds = 0
Dangerous builds = 0
Setting atom values ...
  1 settings made for x
  1 settings made for y
  1 settings made for z
Setting up cg style minimization ...
  Unit style    : metal
  Current step  : 622
Per MPI rank memory allocation (min/avg/max) = 5.465 | 6.344 | 6.728 Mbytes
Step PotEng KinEng TotEng v_fx v_fy v_fz 
     622     -1152449            0     -1152449 -0.016186081 -0.012480331 0.00030250786 
     844     -1152449            0     -1152449 5.2725224e-06 2.3700629e-05 1.6053054e-05 
Loop time of 4.8389 on 52 procs for 222 steps with 288751 atoms

99.9% CPU use with 52 MPI tasks x 1 OpenMP threads

Minimization stats:
  Stopping criterion = linesearch alpha is zero
  Energy initial, next-to-last, final = 
     -1152448.96772907  -1152448.96931235  -1152448.96931235
  Force two-norm initial, final = 0.14658033 8.7542448e-05
  Force max component initial, final = 0.071118684 2.3700629e-05
  Final line search alpha, max atom move = 0.5 1.1850315e-05
  Iterations, force evaluations = 222 445

MPI task timing breakdown:
Section |  min time  |  avg time  |  max time  |%varavg| %total
---------------------------------------------------------------
Pair    | 1.2581     | 3.5335     | 4.6497     |  52.1 | 73.02
Neigh   | 0          | 0          | 0          |   0.0 |  0.00
Comm    | 0.059418   | 0.77956    | 2.463      |  79.9 | 16.11
Output  | 0          | 0          | 0          |   0.0 |  0.00
Modify  | 8.8786e-05 | 0.0074597  | 0.015733   |   4.0 |  0.15
Other   |            | 0.5184     |            |       | 10.71

Nlocal:        5552.90 ave        7907 max           0 min
Histogram: 4 2 2 0 2 6 4 0 15 17
Nghost:        6213.62 ave        8769 max         412 min
Histogram: 4 0 4 0 8 0 4 5 7 20
Neighs:       158427.0 ave      230517 max           0 min
Histogram: 4 2 2 0 5 3 4 4 12 16

Total # of neighbors = 8238200
Ave neighs/atom = 28.530464
Neighbor list builds = 0
Dangerous builds = 0
The dot product: 3.18220063078683e-07
Setting atom values ...
  1 settings made for x
  1 settings made for y
  1 settings made for z
Setting up cg style minimization ...
  Unit style    : metal
  Current step  : 844
Per MPI rank memory allocation (min/avg/max) = 5.465 | 6.344 | 6.728 Mbytes
Step PotEng KinEng TotEng v_fx v_fy v_fz 
     844     -1152449            0     -1152449 -0.014264322 -0.030118911 -0.0093537947 
    1000     -1152449            0     -1152449 -1.3833886e-05 -6.5504775e-05 -2.5819266e-05 
    1039     -1152449            0     -1152449 -2.4548625e-06 -1.0755189e-05 -4.1807965e-06 
Loop time of 4.2873 on 52 procs for 195 steps with 288751 atoms

99.9% CPU use with 52 MPI tasks x 1 OpenMP threads

Minimization stats:
  Stopping criterion = linesearch alpha is zero
  Energy initial, next-to-last, final = 
     -1152448.96515845  -1152448.96739861  -1152448.96739861
  Force two-norm initial, final = 0.16177607 8.4009972e-05
  Force max component initial, final = 0.083966201 1.5680801e-05
  Final line search alpha, max atom move = 0.5 7.8404005e-06
  Iterations, force evaluations = 195 391

MPI task timing breakdown:
Section |  min time  |  avg time  |  max time  |%varavg| %total
---------------------------------------------------------------
Pair    | 1.1042     | 3.1218     | 4.1133     |  49.1 | 72.82
Neigh   | 0          | 0          | 0          |   0.0 |  0.00
Comm    | 0.054688   | 0.6887     | 2.1744     |  74.9 | 16.06
Output  | 0.00019667 | 0.00020075 | 0.00034959 |   0.0 |  0.00
Modify  | 7.6811e-05 | 0.0065437  | 0.013854   |   3.8 |  0.15
Other   |            | 0.47       |            |       | 10.96

Nlocal:        5552.90 ave        7907 max           0 min
Histogram: 4 2 2 0 2 6 4 0 15 17
Nghost:        6213.65 ave        8769 max         412 min
Histogram: 4 0 4 0 8 0 4 5 7 20
Neighs:       158427.0 ave      230533 max           0 min
Histogram: 4 2 2 0 5 3 4 4 12 16

Total # of neighbors = 8238205
Ave neighs/atom = 28.530481
Neighbor list builds = 0
Dangerous builds = 0
The dot product: -2.95508041141015e-07
Setting atom values ...
  1 settings made for x
  1 settings made for y
  1 settings made for z
Setting up cg style minimization ...
  Unit style    : metal
  Current step  : 1039
Per MPI rank memory allocation (min/avg/max) = 5.465 | 6.344 | 6.728 Mbytes
Step PotEng KinEng TotEng v_fx v_fy v_fz 
    1039     -1152449            0     -1152449 -0.0082910458 -0.041150549 -0.0016271653 
    1178     -1152449            0     -1152449 -1.5735769e-05 -4.9880368e-05 -1.0174697e-06 
Loop time of 3.05795 on 52 procs for 139 steps with 288751 atoms

99.9% CPU use with 52 MPI tasks x 1 OpenMP threads

Minimization stats:
  Stopping criterion = linesearch alpha is zero
  Energy initial, next-to-last, final = 
     -1152448.96315847   -1152448.9657916   -1152448.9657916
  Force two-norm initial, final = 0.18826009 0.00022111184
  Force max component initial, final = 0.079789106 4.9880368e-05
  Final line search alpha, max atom move = 0.25 1.2470092e-05
  Iterations, force evaluations = 139 281

MPI task timing breakdown:
Section |  min time  |  avg time  |  max time  |%varavg| %total
---------------------------------------------------------------
Pair    | 0.79678    | 2.2352     | 2.9362     |  41.4 | 73.09
Neigh   | 0          | 0          | 0          |   0.0 |  0.00
Comm    | 0.038128   | 0.49049    | 1.5538     |  63.6 | 16.04
Output  | 0          | 0          | 0          |   0.0 |  0.00
Modify  | 5.3036e-05 | 0.0047008  | 0.0099004  |   3.2 |  0.15
Other   |            | 0.3276     |            |       | 10.71

Nlocal:        5552.90 ave        7910 max           0 min
Histogram: 4 2 2 0 2 6 4 0 15 17
Nghost:        6213.62 ave        8769 max         412 min
Histogram: 4 0 4 0 8 0 4 5 7 20
Neighs:       158427.0 ave      230631 max           0 min
Histogram: 4 2 2 0 5 3 4 4 12 16

Total # of neighbors = 8238212
Ave neighs/atom = 28.530506
Neighbor list builds = 0
Dangerous builds = 0
The dot product: -8.17021425615119e-07
Setting atom values ...
  1 settings made for x
  1 settings made for y
  1 settings made for z
Setting up cg style minimization ...
  Unit style    : metal
  Current step  : 1178
Per MPI rank memory allocation (min/avg/max) = 5.465 | 6.344 | 6.728 Mbytes
Step PotEng KinEng TotEng v_fx v_fy v_fz 
    1178     -1152449            0     -1152449 -0.0033180764 -0.055199685 0.0060240019 
    1422     -1152449            0     -1152449 -1.5945006e-06 -4.3521878e-06 6.6225122e-07 
Loop time of 5.32613 on 52 procs for 244 steps with 288751 atoms

99.9% CPU use with 52 MPI tasks x 1 OpenMP threads

Minimization stats:
  Stopping criterion = energy tolerance
  Energy initial, next-to-last, final = 
      -1152448.9612584  -1152448.96437185  -1152448.96437185
  Force two-norm initial, final = 0.20442282 5.5600230e-05
  Force max component initial, final = 0.087614 1.7442582e-05
  Final line search alpha, max atom move = 1.0000000 1.7442582e-05
  Iterations, force evaluations = 244 488

MPI task timing breakdown:
Section |  min time  |  avg time  |  max time  |%varavg| %total
---------------------------------------------------------------
Pair    | 1.3762     | 3.8789     | 5.1184     |  54.8 | 72.83
Neigh   | 0          | 0          | 0          |   0.0 |  0.00
Comm    | 0.067862   | 0.8548     | 2.6803     |  83.3 | 16.05
Output  | 0          | 0          | 0          |   0.0 |  0.00
Modify  | 9.3228e-05 | 0.0081298  | 0.017137   |   4.2 |  0.15
Other   |            | 0.5843     |            |       | 10.97

Nlocal:        5552.90 ave        7908 max           0 min
Histogram: 4 2 2 0 2 6 4 0 15 17
Nghost:        6213.62 ave        8769 max         412 min
Histogram: 4 0 4 0 8 0 4 5 7 20
Neighs:       158427.0 ave      230564 max           0 min
Histogram: 4 2 2 0 5 3 4 4 12 16

Total # of neighbors = 8238216
Ave neighs/atom = 28.530519
Neighbor list builds = 0
Dangerous builds = 0
The dot product: -5.52205432890283e-08
Setting atom values ...
  1 settings made for x
  1 settings made for y
  1 settings made for z
Setting up cg style minimization ...
  Unit style    : metal
  Current step  : 1422
Per MPI rank memory allocation (min/avg/max) = 5.465 | 6.344 | 6.728 Mbytes
Step PotEng KinEng TotEng v_fx v_fy v_fz 
    1422     -1152449            0     -1152449 -0.0019335467 -0.060739058  0.012687347 
    1607     -1152449            0     -1152449 -1.8476887e-05 -3.9651616e-05 1.0928382e-05 
Loop time of 4.08919 on 52 procs for 185 steps with 288751 atoms

99.9% CPU use with 52 MPI tasks x 1 OpenMP threads

Minimization stats:
  Stopping criterion = linesearch alpha is zero
  Energy initial, next-to-last, final = 
     -1152448.96023558   -1152448.9628282   -1152448.9628282
  Force two-norm initial, final = 0.2145008 0.00019936504
  Force max component initial, final = 0.095745785 4.8148009e-05
  Final line search alpha, max atom move = 0.25 1.2037002e-05
  Iterations, force evaluations = 185 375

MPI task timing breakdown:
Section |  min time  |  avg time  |  max time  |%varavg| %total
---------------------------------------------------------------
Pair    | 1.0626     | 2.9824     | 3.9238     |  47.9 | 72.93
Neigh   | 0          | 0          | 0          |   0.0 |  0.00
Comm    | 0.049047   | 0.65771    | 2.0801     |  73.3 | 16.08
Output  | 0          | 0          | 0          |   0.0 |  0.00
Modify  | 8.008e-05  | 0.0063003  | 0.013262   |   3.7 |  0.15
Other   |            | 0.4427     |            |       | 10.83

Nlocal:        5552.90 ave        7909 max           0 min
Histogram: 4 2 2 0 2 6 4 0 15 17
Nghost:        6213.62 ave        8769 max         412 min
Histogram: 4 0 4 0 8 0 4 5 7 20
Neighs:       158427.0 ave      230571 max           0 min
Histogram: 4 2 2 0 5 3 4 4 12 16

Total # of neighbors = 8238213
Ave neighs/atom = 28.530509
Neighbor list builds = 0
Dangerous builds = 0
The dot product: 5.14708291324986e-08
Setting atom values ...
  1 settings made for x
  1 settings made for y
  1 settings made for z
Setting up cg style minimization ...
  Unit style    : metal
  Current step  : 1607
Per MPI rank memory allocation (min/avg/max) = 5.465 | 6.344 | 6.728 Mbytes
Step PotEng KinEng TotEng v_fx v_fy v_fz 
    1607     -1152449            0     -1152449 -0.0033239235 -0.070497852  0.014251541 
    1758     -1152449            0     -1152449 -1.9232189e-05 -4.290852e-05 1.1302916e-05 
Loop time of 3.31563 on 52 procs for 151 steps with 288751 atoms

99.9% CPU use with 52 MPI tasks x 1 OpenMP threads

Minimization stats:
  Stopping criterion = energy tolerance
  Energy initial, next-to-last, final = 
     -1152448.95815469  -1152448.96062423  -1152448.96062423
  Force two-norm initial, final = 0.2171899 0.0002812718
  Force max component initial, final = 0.096052747 7.3025456e-05
  Final line search alpha, max atom move = 1.0000000 7.3025456e-05
  Iterations, force evaluations = 151 302

MPI task timing breakdown:
Section |  min time  |  avg time  |  max time  |%varavg| %total
---------------------------------------------------------------
Pair    | 0.85386    | 2.4063     | 3.1764     |  43.1 | 72.57
Neigh   | 0          | 0          | 0          |   0.0 |  0.00
Comm    | 0.042611   | 0.52969    | 1.6638     |  65.6 | 15.98
Output  | 0          | 0          | 0          |   0.0 |  0.00
Modify  | 6.5018e-05 | 0.0050514  | 0.010694   |   3.3 |  0.15
Other   |            | 0.3746     |            |       | 11.30

Nlocal:        5552.90 ave        7909 max           0 min
Histogram: 4 2 2 0 2 6 4 0 15 17
Nghost:        6213.62 ave        8769 max         412 min
Histogram: 4 0 4 0 8 0 4 5 7 20
Neighs:       158427.0 ave      230559 max           0 min
Histogram: 4 2 2 0 5 3 4 4 12 16

Total # of neighbors = 8238210
Ave neighs/atom = 28.530499
Neighbor list builds = 0
Dangerous builds = 0
The dot product: 2.51928469543824e-07
Setting atom values ...
  1 settings made for x
  1 settings made for y
  1 settings made for z
Setting up cg style minimization ...
  Unit style    : metal
  Current step  : 1758
Per MPI rank memory allocation (min/avg/max) = 5.465 | 6.344 | 6.728 Mbytes
Step PotEng KinEng TotEng v_fx v_fy v_fz 
    1758     -1152449            0     -1152449 -0.004547812 -0.077967378  0.013185595 
    1915     -1152449            0     -1152449 5.9171463e-06 1.4278308e-05 -3.158399e-06 
Loop time of 3.46195 on 52 procs for 157 steps with 288751 atoms

99.9% CPU use with 52 MPI tasks x 1 OpenMP threads

Minimization stats:
  Stopping criterion = energy tolerance
  Energy initial, next-to-last, final = 
     -1152448.95536865  -1152448.95797704  -1152448.95797704
  Force two-norm initial, final = 0.21713782 0.00017023703
  Force max component initial, final = 0.094221463 3.1972087e-05
  Final line search alpha, max atom move = 1.0000000 3.1972087e-05
  Iterations, force evaluations = 157 316

MPI task timing breakdown:
Section |  min time  |  avg time  |  max time  |%varavg| %total
---------------------------------------------------------------
Pair    | 0.89636    | 2.5151     | 3.3167     |  44.0 | 72.65
Neigh   | 0          | 0          | 0          |   0.0 |  0.00
Comm    | 0.044483   | 0.55666    | 1.7533     |  67.1 | 16.08
Output  | 0          | 0          | 0          |   0.0 |  0.00
Modify  | 6.5105e-05 | 0.0053086  | 0.011147   |   3.4 |  0.15
Other   |            | 0.3849     |            |       | 11.12

Nlocal:        5552.90 ave        7908 max           0 min
Histogram: 4 2 2 0 2 6 4 0 15 17
Nghost:        6213.62 ave        8769 max         412 min
Histogram: 4 0 4 0 8 0 4 5 7 20
Neighs:       158427.0 ave      230516 max           0 min
Histogram: 4 2 2 0 5 3 4 4 12 16

Total # of neighbors = 8238206
Ave neighs/atom = 28.530485
Neighbor list builds = 0
Dangerous builds = 0
The dot product: -7.07586886859995e-08
Setting atom values ...
  1 settings made for x
  1 settings made for y
  1 settings made for z
Setting up cg style minimization ...
  Unit style    : metal
  Current step  : 1915
Per MPI rank memory allocation (min/avg/max) = 5.465 | 6.344 | 6.728 Mbytes
Step PotEng KinEng TotEng v_fx v_fy v_fz 
    1915     -1152449            0     -1152449 -0.0043723303 -0.081349228  0.011475259 
    2000     -1152449            0     -1152449 -5.8395088e-05 -0.00012330437 2.4896852e-05 
    2060     -1152449            0     -1152449 -1.9051108e-05 -3.48871e-05 7.4107602e-06 
Loop time of 3.16973 on 52 procs for 145 steps with 288751 atoms

99.9% CPU use with 52 MPI tasks x 1 OpenMP threads

Minimization stats:
  Stopping criterion = energy tolerance
  Energy initial, next-to-last, final = 
     -1152448.95242266  -1152448.95472487  -1152448.95472487
  Force two-norm initial, final = 0.21622112 0.00032906967
  Force max component initial, final = 0.09261864 6.5775557e-05
  Final line search alpha, max atom move = 1.0000000 6.5775557e-05
  Iterations, force evaluations = 145 290

MPI task timing breakdown:
Section |  min time  |  avg time  |  max time  |%varavg| %total
---------------------------------------------------------------
Pair    | 0.82118    | 2.3133     | 3.0419     |  42.2 | 72.98
Neigh   | 0          | 0          | 0          |   0.0 |  0.00
Comm    | 0.040575   | 0.50805    | 1.6066     |  64.7 | 16.03
Output  | 0.00011638 | 0.00012049 | 0.00027251 |   0.0 |  0.00
Modify  | 5.6411e-05 | 0.0048627  | 0.010303   |   3.3 |  0.15
Other   |            | 0.3434     |            |       | 10.83

Nlocal:        5552.90 ave        7908 max           0 min
Histogram: 4 2 2 0 2 6 4 0 15 17
Nghost:        6213.62 ave        8769 max         412 min
Histogram: 4 0 4 0 8 0 4 5 7 20
Neighs:       158427.0 ave      230518 max           0 min
Histogram: 4 2 2 0 5 3 4 4 12 16

Total # of neighbors = 8238203
Ave neighs/atom = 28.530474
Neighbor list builds = 0
Dangerous builds = 0
The dot product: 2.55767037566602e-07
Setting atom values ...
  1 settings made for x
  1 settings made for y
  1 settings made for z
Setting up cg style minimization ...
  Unit style    : metal
  Current step  : 2060
Per MPI rank memory allocation (min/avg/max) = 5.465 | 6.344 | 6.728 Mbytes
Step PotEng KinEng TotEng v_fx v_fy v_fz 
    2060   -1152448.9            0   -1152448.9 -0.0051841562 -0.086779679   0.00928475 
    2222     -1152449            0     -1152449 1.8942146e-06 5.1672864e-06 -7.7614279e-07 
Loop time of 3.57026 on 52 procs for 162 steps with 288751 atoms

99.9% CPU use with 52 MPI tasks x 1 OpenMP threads

Minimization stats:
  Stopping criterion = linesearch alpha is zero
  Energy initial, next-to-last, final = 
     -1152448.94844229  -1152448.95068033  -1152448.95068033
  Force two-norm initial, final = 0.21535942 0.00020587518
  Force max component initial, final = 0.090261027 2.2401495e-05
  Final line search alpha, max atom move = 0.25 5.6003737e-06
  Iterations, force evaluations = 162 327

MPI task timing breakdown:
Section |  min time  |  avg time  |  max time  |%varavg| %total
---------------------------------------------------------------
Pair    | 0.92543    | 2.6024     | 3.4309     |  44.8 | 72.89
Neigh   | 0          | 0          | 0          |   0.0 |  0.00
Comm    | 0.042939   | 0.57526    | 1.8107     |  68.6 | 16.11
Output  | 0          | 0          | 0          |   0.0 |  0.00
Modify  | 6.6944e-05 | 0.0054872  | 0.011528   |   3.4 |  0.15
Other   |            | 0.3871     |            |       | 10.84

Nlocal:        5552.90 ave        7908 max           0 min
Histogram: 4 2 2 0 2 6 4 0 15 17
Nghost:        6213.62 ave        8769 max         412 min
Histogram: 4 0 4 0 8 0 4 5 7 20
Neighs:       158427.0 ave      230504 max           0 min
Histogram: 4 2 2 0 5 3 4 4 12 16

Total # of neighbors = 8238200
Ave neighs/atom = 28.530464
Neighbor list builds = 0
Dangerous builds = 0
The dot product: -4.46450996964215e-08
Setting atom values ...
  1 settings made for x
  1 settings made for y
  1 settings made for z
Setting up cg style minimization ...
  Unit style    : metal
  Current step  : 2222
Per MPI rank memory allocation (min/avg/max) = 5.465 | 6.344 | 6.728 Mbytes
Step PotEng KinEng TotEng v_fx v_fy v_fz 
    2222   -1152448.9            0   -1152448.9 -0.0062026945 -0.090933417 0.0064268121 
    2397   -1152448.9            0   -1152448.9 -1.0889123e-05 -2.3634566e-05 2.9172661e-06 
Loop time of 3.85665 on 52 procs for 175 steps with 288751 atoms

99.9% CPU use with 52 MPI tasks x 1 OpenMP threads

Minimization stats:
  Stopping criterion = energy tolerance
  Energy initial, next-to-last, final = 
     -1152448.94369024  -1152448.94589464  -1152448.94589464
  Force two-norm initial, final = 0.2136614 0.0001399417
  Force max component initial, final = 0.090933417 3.8874814e-05
  Final line search alpha, max atom move = 1.0000000 3.8874814e-05
  Iterations, force evaluations = 175 350

MPI task timing breakdown:
Section |  min time  |  avg time  |  max time  |%varavg| %total
---------------------------------------------------------------
Pair    | 0.98923    | 2.7911     | 3.7045     |  46.6 | 72.37
Neigh   | 0          | 0          | 0          |   0.0 |  0.00
Comm    | 0.048608   | 0.62082    | 1.9273     |  70.0 | 16.10
Output  | 0          | 0          | 0          |   0.0 |  0.00
Modify  | 7.5729e-05 | 0.0058461  | 0.012447   |   3.6 |  0.15
Other   |            | 0.4389     |            |       | 11.38

Nlocal:        5552.90 ave        7908 max           0 min
Histogram: 4 2 2 0 2 6 4 0 15 17
Nghost:        6213.62 ave        8769 max         412 min
Histogram: 4 0 4 0 8 0 4 5 7 20
Neighs:       158427.0 ave      230521 max           0 min
Histogram: 4 2 2 0 5 3 4 4 12 16

Total # of neighbors = 8238209
Ave neighs/atom = 28.530495
Neighbor list builds = 0
Dangerous builds = 0
The dot product: 2.21024303484249e-07
Setting atom values ...
  1 settings made for x
  1 settings made for y
  1 settings made for z
Setting up cg style minimization ...
  Unit style    : metal
  Current step  : 2397
Per MPI rank memory allocation (min/avg/max) = 5.465 | 6.344 | 6.728 Mbytes
Step PotEng KinEng TotEng v_fx v_fy v_fz 
    2397   -1152448.9            0   -1152448.9 -0.0068445588  -0.09355095 0.0032603733 
    2533   -1152448.9            0   -1152448.9 3.2302992e-05 8.1117779e-05 -6.1988704e-06 
Loop time of 2.98427 on 52 procs for 136 steps with 288751 atoms

99.9% CPU use with 52 MPI tasks x 1 OpenMP threads

Minimization stats:
  Stopping criterion = energy tolerance
  Energy initial, next-to-last, final = 
     -1152448.93823908   -1152448.9403251   -1152448.9403251
  Force two-norm initial, final = 0.21151647 0.00036006216
  Force max component initial, final = 0.09355095 0.00010773331
  Final line search alpha, max atom move = 1.0000000 0.00010773331
  Iterations, force evaluations = 136 272

MPI task timing breakdown:
Section |  min time  |  avg time  |  max time  |%varavg| %total
---------------------------------------------------------------
Pair    | 0.77149    | 2.1652     | 2.8427     |  40.7 | 72.56
Neigh   | 0          | 0          | 0          |   0.0 |  0.00
Comm    | 0.037767   | 0.47594    | 1.5042     |  62.4 | 15.95
Output  | 0          | 0          | 0          |   0.0 |  0.00
Modify  | 5.5398e-05 | 0.0045602  | 0.0096433  |   3.2 |  0.15
Other   |            | 0.3385     |            |       | 11.34

Nlocal:        5552.90 ave        7908 max           0 min
Histogram: 4 2 2 0 2 6 4 0 15 17
Nghost:        6213.63 ave        8769 max         412 min
Histogram: 4 0 4 0 8 0 4 5 7 20
Neighs:       158427.0 ave      230518 max           0 min
Histogram: 4 2 2 0 5 3 4 4 12 16

Total # of neighbors = 8238204
Ave neighs/atom = 28.530478
Neighbor list builds = 0
Dangerous builds = 0
The dot product: -6.65072847669005e-07
Setting atom values ...
  1 settings made for x
  1 settings made for y
  1 settings made for z
Setting up cg style minimization ...
  Unit style    : metal
  Current step  : 2533
Per MPI rank memory allocation (min/avg/max) = 5.465 | 6.344 | 6.728 Mbytes
Step PotEng KinEng TotEng v_fx v_fy v_fz 
    2533   -1152448.9            0   -1152448.9 -0.0058687417 -0.093926959 0.00023857201 
    2690   -1152448.9            0   -1152448.9 -1.673452e-05 -3.8777921e-05 1.9022036e-06 
Loop time of 3.44671 on 52 procs for 157 steps with 288751 atoms

99.9% CPU use with 52 MPI tasks x 1 OpenMP threads

Minimization stats:
  Stopping criterion = energy tolerance
  Energy initial, next-to-last, final = 
     -1152448.93192047  -1152448.93391931  -1152448.93391931
  Force two-norm initial, final = 0.20902885 0.00019284999
  Force max component initial, final = 0.093926959 3.8777921e-05
  Final line search alpha, max atom move = 1.0000000 3.8777921e-05
  Iterations, force evaluations = 157 314

MPI task timing breakdown:
Section |  min time  |  avg time  |  max time  |%varavg| %total
---------------------------------------------------------------
Pair    | 0.88837    | 2.5012     | 3.2986     |  44.0 | 72.57
Neigh   | 0          | 0          | 0          |   0.0 |  0.00
Comm    | 0.044763   | 0.5513     | 1.7317     |  67.0 | 15.99
Output  | 0          | 0          | 0          |   0.0 |  0.00
Modify  | 6.322e-05  | 0.0052469  | 0.01106    |   3.4 |  0.15
Other   |            | 0.3889     |            |       | 11.28

Nlocal:        5552.90 ave        7908 max           0 min
Histogram: 4 2 2 0 2 6 4 0 15 17
Nghost:        6213.60 ave        8769 max         412 min
Histogram: 4 0 4 0 8 0 4 5 7 20
Neighs:       158427.0 ave      230514 max           0 min
Histogram: 4 2 2 0 5 3 4 4 12 16

Total # of neighbors = 8238201
Ave neighs/atom = 28.530467
Neighbor list builds = 0
Dangerous builds = 0
The dot product: 2.81482034373263e-07
Setting atom values ...
  1 settings made for x
  1 settings made for y
  1 settings made for z
Setting up cg style minimization ...
  Unit style    : metal
  Current step  : 2690
Per MPI rank memory allocation (min/avg/max) = 5.465 | 6.344 | 6.728 Mbytes
Step PotEng KinEng TotEng v_fx v_fy v_fz 
    2690   -1152448.9            0   -1152448.9 -0.0091195375 -0.091234169 -0.0017645212 
    2870   -1152448.9            0   -1152448.9 8.0009182e-06 2.5003568e-05 -2.2027616e-07 
Loop time of 3.93036 on 52 procs for 180 steps with 288751 atoms

99.9% CPU use with 52 MPI tasks x 1 OpenMP threads

Minimization stats:
  Stopping criterion = linesearch alpha is zero
  Energy initial, next-to-last, final = 
     -1152448.92465243  -1152448.92655422  -1152448.92655422
  Force two-norm initial, final = 0.205748 9.8294000e-05
  Force max component initial, final = 0.091234169 2.5003568e-05
  Final line search alpha, max atom move = 0.5 1.2501784e-05
  Iterations, force evaluations = 180 361

MPI task timing breakdown:
Section |  min time  |  avg time  |  max time  |%varavg| %total
---------------------------------------------------------------
Pair    | 1.0222     | 2.8677     | 3.772      |  46.9 | 72.96
Neigh   | 0          | 0          | 0          |   0.0 |  0.00
Comm    | 0.047696   | 0.63171    | 1.9969     |  71.9 | 16.07
Output  | 0          | 0          | 0          |   0.0 |  0.00
Modify  | 7.5135e-05 | 0.0060406  | 0.012782   |   3.6 |  0.15
Other   |            | 0.4249     |            |       | 10.81

Nlocal:        5552.90 ave        7908 max           0 min
Histogram: 4 2 2 0 2 6 4 0 15 17
Nghost:        6213.60 ave        8769 max         412 min
Histogram: 4 0 4 0 8 0 4 5 7 20
Neighs:       158427.0 ave      230508 max           0 min
Histogram: 4 2 2 0 5 3 4 4 12 16

Total # of neighbors = 8238199
Ave neighs/atom = 28.530461
Neighbor list builds = 0
Dangerous builds = 0
The dot product: -1.59363341910135e-07
Setting atom values ...
  1 settings made for x
  1 settings made for y
  1 settings made for z
Setting up cg style minimization ...
  Unit style    : metal
  Current step  : 2870
Per MPI rank memory allocation (min/avg/max) = 5.465 | 6.344 | 6.728 Mbytes
Step PotEng KinEng TotEng v_fx v_fy v_fz 
    2870   -1152448.9            0   -1152448.9 -0.017500196 -0.085520249 -0.002328535 
    3000   -1152448.9            0   -1152448.9 1.6783047e-05 3.394438e-05 -3.3184174e-07 
    3032   -1152448.9            0   -1152448.9 -8.224549e-06 -1.9738151e-05 -2.9842878e-09 
Loop time of 3.5814 on 52 procs for 162 steps with 288751 atoms

99.9% CPU use with 52 MPI tasks x 1 OpenMP threads

Minimization stats:
  Stopping criterion = linesearch alpha is zero
  Energy initial, next-to-last, final = 
     -1152448.91610542  -1152448.91797672  -1152448.91797672
  Force two-norm initial, final = 0.20236701 0.00017047823
  Force max component initial, final = 0.085520249 4.8181958e-05
  Final line search alpha, max atom move = 0.25 1.2045489e-05
  Iterations, force evaluations = 162 327

MPI task timing breakdown:
Section |  min time  |  avg time  |  max time  |%varavg| %total
---------------------------------------------------------------
Pair    | 0.92767    | 2.604      | 3.4304     |  44.7 | 72.71
Neigh   | 0          | 0          | 0          |   0.0 |  0.00
Comm    | 0.048203   | 0.5747     | 1.8038     |  68.0 | 16.05
Output  | 0.00019059 | 0.00019489 | 0.00034785 |   0.0 |  0.01
Modify  | 6.7779e-05 | 0.0054896  | 0.011624   |   3.5 |  0.15
Other   |            | 0.397      |            |       | 11.09

Nlocal:        5552.90 ave        7908 max           0 min
Histogram: 4 2 2 0 2 6 4 0 15 17
Nghost:        6213.58 ave        8769 max         412 min
Histogram: 4 0 4 0 8 0 4 5 7 20
Neighs:       158427.0 ave      230506 max           0 min
Histogram: 4 2 2 0 5 3 4 4 12 16

Total # of neighbors = 8238198
Ave neighs/atom = 28.530457
Neighbor list builds = 0
Dangerous builds = 0
The dot product: 1.06501631526546e-07
Setting atom values ...
  1 settings made for x
  1 settings made for y
  1 settings made for z
Setting up cg style minimization ...
  Unit style    : metal
  Current step  : 3032
Per MPI rank memory allocation (min/avg/max) = 5.465 | 6.344 | 6.728 Mbytes
Step PotEng KinEng TotEng v_fx v_fy v_fz 
    3032   -1152448.9            0   -1152448.9 -0.022870849  -0.08201998 -0.0027949547 
    3200   -1152448.9            0   -1152448.9 1.3786941e-05 4.1089231e-05 1.1128278e-06 
Loop time of 3.67848 on 52 procs for 168 steps with 288751 atoms

99.9% CPU use with 52 MPI tasks x 1 OpenMP threads

Minimization stats:
  Stopping criterion = linesearch alpha is zero
  Energy initial, next-to-last, final = 
     -1152448.90618739   -1152448.9080523   -1152448.9080523
  Force two-norm initial, final = 0.20070602 0.00013824497
  Force max component initial, final = 0.082188746 4.1089231e-05
  Final line search alpha, max atom move = 0.5 2.0544616e-05
  Iterations, force evaluations = 168 337

MPI task timing breakdown:
Section |  min time  |  avg time  |  max time  |%varavg| %total
---------------------------------------------------------------
Pair    | 0.9533     | 2.6774     | 3.5355     |  45.4 | 72.79
Neigh   | 0          | 0          | 0          |   0.0 |  0.00
Comm    | 0.043908   | 0.5917     | 1.8638     |  69.3 | 16.09
Output  | 0          | 0          | 0          |   0.0 |  0.00
Modify  | 7.1832e-05 | 0.0056604  | 0.011941   |   3.5 |  0.15
Other   |            | 0.4037     |            |       | 10.97

Nlocal:        5552.90 ave        7908 max           0 min
Histogram: 4 2 2 0 2 6 4 0 15 17
Nghost:        6213.62 ave        8769 max         412 min
Histogram: 4 0 4 0 8 0 4 5 7 20
Neighs:       158427.0 ave      230507 max           0 min
Histogram: 4 2 2 0 5 3 4 4 12 16

Total # of neighbors = 8238198
Ave neighs/atom = 28.530457
Neighbor list builds = 0
Dangerous builds = 0
The dot product: -1.82984667587186e-07
Setting atom values ...
  1 settings made for x
  1 settings made for y
  1 settings made for z
Setting up cg style minimization ...
  Unit style    : metal
  Current step  : 3200
Per MPI rank memory allocation (min/avg/max) = 5.465 | 6.344 | 6.728 Mbytes
Step PotEng KinEng TotEng v_fx v_fy v_fz 
    3200   -1152448.9            0   -1152448.9 -0.025815553 -0.079787734 -0.0033223378 
    3378   -1152448.9            0   -1152448.9 -3.2295344e-06 -6.7146446e-06 -1.5555149e-07 
Loop time of 3.90191 on 52 procs for 178 steps with 288751 atoms

99.9% CPU use with 52 MPI tasks x 1 OpenMP threads

Minimization stats:
  Stopping criterion = linesearch alpha is zero
  Energy initial, next-to-last, final = 
     -1152448.89490754  -1152448.89677516  -1152448.89677516
  Force two-norm initial, final = 0.19958459 0.00011326521
  Force max component initial, final = 0.083903572 1.4652516e-05
  Final line search alpha, max atom move = 0.5 7.3262581e-06
  Iterations, force evaluations = 178 357

MPI task timing breakdown:
Section |  min time  |  avg time  |  max time  |%varavg| %total
---------------------------------------------------------------
Pair    | 1.009      | 2.845      | 3.7461     |  46.9 | 72.91
Neigh   | 0          | 0          | 0          |   0.0 |  0.00
Comm    | 0.04792    | 0.62521    | 1.9698     |  71.6 | 16.02
Output  | 0          | 0          | 0          |   0.0 |  0.00
Modify  | 7.4688e-05 | 0.0059768  | 0.012604   |   3.6 |  0.15
Other   |            | 0.4257     |            |       | 10.91

Nlocal:        5552.90 ave        7908 max           0 min
Histogram: 4 2 2 0 2 6 4 0 15 17
Nghost:        6213.62 ave        8769 max         412 min
Histogram: 4 0 4 0 8 0 4 5 7 20
Neighs:       158427.0 ave      230516 max           0 min
Histogram: 4 2 2 0 5 3 4 4 12 16

Total # of neighbors = 8238200
Ave neighs/atom = 28.530464
Neighbor list builds = 0
Dangerous builds = 0
The dot product: 2.44791676589415e-08
Setting atom values ...
  1 settings made for x
  1 settings made for y
  1 settings made for z
Setting up cg style minimization ...
  Unit style    : metal
  Current step  : 3378
Per MPI rank memory allocation (min/avg/max) = 5.465 | 6.344 | 6.728 Mbytes
Step PotEng KinEng TotEng v_fx v_fy v_fz 
    3378   -1152448.9            0   -1152448.9 -0.027539154 -0.077471403 -0.003671053 
    3592   -1152448.9            0   -1152448.9 6.717166e-06 1.6507273e-05 6.871342e-07 
Loop time of 4.6817 on 52 procs for 214 steps with 288751 atoms

99.9% CPU use with 52 MPI tasks x 1 OpenMP threads

Minimization stats:
  Stopping criterion = linesearch alpha is zero
  Energy initial, next-to-last, final = 
     -1152448.88229985  -1152448.88422932  -1152448.88422932
  Force two-norm initial, final = 0.1987764 8.6007994e-05
  Force max component initial, final = 0.08538907 2.7538856e-05
  Final line search alpha, max atom move = 0.5 1.3769428e-05
  Iterations, force evaluations = 214 429

MPI task timing breakdown:
Section |  min time  |  avg time  |  max time  |%varavg| %total
---------------------------------------------------------------
Pair    | 1.2134     | 3.4088     | 4.4997     |  51.2 | 72.81
Neigh   | 0          | 0          | 0          |   0.0 |  0.00
Comm    | 0.056592   | 0.7535     | 2.3689     |  78.2 | 16.09
Output  | 0          | 0          | 0          |   0.0 |  0.00
Modify  | 8.5509e-05 | 0.0071896  | 0.015158   |   3.9 |  0.15
Other   |            | 0.5123     |            |       | 10.94

Nlocal:        5552.90 ave        7909 max           0 min
Histogram: 4 2 2 0 2 6 4 0 15 17
Nghost:        6213.62 ave        8769 max         412 min
Histogram: 4 0 4 0 8 0 4 5 7 20
Neighs:       158427.0 ave      230549 max           0 min
Histogram: 4 2 2 0 5 3 4 4 12 16

Total # of neighbors = 8238197
Ave neighs/atom = 28.530454
Neighbor list builds = 0
Dangerous builds = 0
The dot product: 1.144953302282e-08
Setting atom values ...
  1 settings made for x
  1 settings made for y
  1 settings made for z
Setting up cg style minimization ...
  Unit style    : metal
  Current step  : 3592
Per MPI rank memory allocation (min/avg/max) = 5.465 | 6.344 | 6.728 Mbytes
Step PotEng KinEng TotEng v_fx v_fy v_fz 
    3592   -1152448.9            0   -1152448.9 -0.025882137 -0.071518062 -0.0032051848 
    3739   -1152448.9            0   -1152448.9 -1.396837e-05 -3.9353483e-05 -1.7941999e-06 
Loop time of 3.22675 on 52 procs for 147 steps with 288751 atoms

99.9% CPU use with 52 MPI tasks x 1 OpenMP threads

Minimization stats:
  Stopping criterion = energy tolerance
  Energy initial, next-to-last, final = 
     -1152448.86865584  -1152448.87125748  -1152448.87125748
  Force two-norm initial, final = 0.19697919 0.00014612402
  Force max component initial, final = 0.085832725 3.9353483e-05
  Final line search alpha, max atom move = 1.0000000 3.9353483e-05
  Iterations, force evaluations = 147 294

MPI task timing breakdown:
Section |  min time  |  avg time  |  max time  |%varavg| %total
---------------------------------------------------------------
Pair    | 0.83119    | 2.346      | 3.0924     |  42.5 | 72.70
Neigh   | 0          | 0          | 0          |   0.0 |  0.00
Comm    | 0.040586   | 0.51634    | 1.6284     |  64.9 | 16.00
Output  | 0          | 0          | 0          |   0.0 |  0.00
Modify  | 5.6869e-05 | 0.0049254  | 0.010406   |   3.3 |  0.15
Other   |            | 0.3595     |            |       | 11.14

Nlocal:        5552.90 ave        7910 max           0 min
Histogram: 4 2 2 0 2 6 4 0 15 17
Nghost:        6213.62 ave        8769 max         412 min
Histogram: 4 0 4 0 8 0 4 5 7 20
Neighs:       158427.0 ave      230580 max           0 min
Histogram: 4 2 2 0 5 3 4 4 12 16

Total # of neighbors = 8238193
Ave neighs/atom = 28.530440
Neighbor list builds = 0
Dangerous builds = 0
The dot product: -7.53224489743063e-07
Setting atom values ...
  1 settings made for x
  1 settings made for y
  1 settings made for z
Setting up cg style minimization ...
  Unit style    : metal
  Current step  : 3739
Per MPI rank memory allocation (min/avg/max) = 5.465 | 6.344 | 6.728 Mbytes
Step PotEng KinEng TotEng v_fx v_fy v_fz 
    3739   -1152448.9            0   -1152448.9 -0.012798515 -0.049172656 -0.00049619188 
    3911   -1152448.9            0   -1152448.9 -2.4781738e-06 -1.2268725e-05 -2.1834049e-07 
Loop time of 3.80196 on 52 procs for 172 steps with 288751 atoms

99.9% CPU use with 52 MPI tasks x 1 OpenMP threads

Minimization stats:
  Stopping criterion = linesearch alpha is zero
  Energy initial, next-to-last, final = 
     -1152448.85549695  -1152448.85774897  -1152448.85774897
  Force two-norm initial, final = 0.19288016 0.0002550751
  Force max component initial, final = 0.081673586 1.4691906e-05
  Final line search alpha, max atom move = 0.125 1.8364883e-06
  Iterations, force evaluations = 172 349

MPI task timing breakdown:
Section |  min time  |  avg time  |  max time  |%varavg| %total
---------------------------------------------------------------
Pair    | 0.98861    | 2.7793     | 3.6478     |  46.2 | 73.10
Neigh   | 0          | 0          | 0          |   0.0 |  0.00
Comm    | 0.047841   | 0.60909    | 1.93       |  71.0 | 16.02
Output  | 0          | 0          | 0          |   0.0 |  0.00
Modify  | 6.6779e-05 | 0.0058414  | 0.012316   |   3.6 |  0.15
Other   |            | 0.4077     |            |       | 10.72

Nlocal:        5552.90 ave        7909 max           0 min
Histogram: 4 2 2 0 2 6 4 0 15 17
Nghost:        6213.69 ave        8770 max         412 min
Histogram: 4 0 4 0 8 0 4 5 7 20
Neighs:       158427.0 ave      230554 max           0 min
Histogram: 4 2 2 0 5 3 4 4 12 16

Total # of neighbors = 8238193
Ave neighs/atom = 28.530440
Neighbor list builds = 0
Dangerous builds = 0
The dot product: -1.66304207832512e-07
Setting atom values ...
  1 settings made for x
  1 settings made for y
  1 settings made for z
Setting up cg style minimization ...
  Unit style    : metal
  Current step  : 3911
Per MPI rank memory allocation (min/avg/max) = 5.465 | 6.344 | 6.728 Mbytes
Step PotEng KinEng TotEng v_fx v_fy v_fz 
    3911   -1152448.8            0   -1152448.8 -0.017981874 -0.054787147 0.0018036459 
    4000   -1152448.8            0   -1152448.8 0.00011854745 0.00034223222 -1.21692e-05 
    4103   -1152448.8            0   -1152448.8 -3.1729552e-06 -1.291334e-05 2.7057899e-07 
Loop time of 4.20316 on 52 procs for 192 steps with 288751 atoms

99.9% CPU use with 52 MPI tasks x 1 OpenMP threads

Minimization stats:
  Stopping criterion = energy tolerance
  Energy initial, next-to-last, final = 
     -1152448.84074308  -1152448.84281372  -1152448.84281372
  Force two-norm initial, final = 0.19752044 0.00010720339
  Force max component initial, final = 0.081575622 1.2913340e-05
  Final line search alpha, max atom move = 1.0000000 1.2913340e-05
  Iterations, force evaluations = 192 384

MPI task timing breakdown:
Section |  min time  |  avg time  |  max time  |%varavg| %total
---------------------------------------------------------------
Pair    | 1.0839     | 3.0528     | 4.0404     |  48.6 | 72.63
Neigh   | 0          | 0          | 0          |   0.0 |  0.00
Comm    | 0.05255    | 0.67595    | 2.1094     |  73.6 | 16.08
Output  | 0.0001176  | 0.00012135 | 0.0002717  |   0.0 |  0.00
Modify  | 7.5695e-05 | 0.0064267  | 0.01364    |   3.7 |  0.15
Other   |            | 0.4678     |            |       | 11.13

Nlocal:        5552.90 ave        7909 max           0 min
Histogram: 4 2 2 0 2 6 4 0 15 17
Nghost:        6213.69 ave        8770 max         412 min
Histogram: 4 0 4 0 8 0 4 5 7 20
Neighs:       158427.0 ave      230552 max           0 min
Histogram: 4 2 2 0 5 3 4 4 12 16

Total # of neighbors = 8238191
Ave neighs/atom = 28.530433
Neighbor list builds = 0
Dangerous builds = 0
The dot product: -1.44326483419915e-07
Setting atom values ...
  1 settings made for x
  1 settings made for y
  1 settings made for z
Setting up cg style minimization ...
  Unit style    : metal
  Current step  : 4103
Per MPI rank memory allocation (min/avg/max) = 5.465 | 6.344 | 6.728 Mbytes
Step PotEng KinEng TotEng v_fx v_fy v_fz 
    4103   -1152448.8            0   -1152448.8  -0.02256529 -0.057276255 0.0039552417 
    4282   -1152448.8            0   -1152448.8 9.5123722e-06 3.2333052e-05 -1.7416649e-06 
Loop time of 3.89749 on 52 procs for 179 steps with 288751 atoms

99.9% CPU use with 52 MPI tasks x 1 OpenMP threads

Minimization stats:
  Stopping criterion = energy tolerance
  Energy initial, next-to-last, final = 
     -1152448.82446891  -1152448.82661788  -1152448.82661788
  Force two-norm initial, final = 0.2007343 0.00017802137
  Force max component initial, final = 0.085533201 4.4902580e-05
  Final line search alpha, max atom move = 1.0000000 4.4902580e-05
  Iterations, force evaluations = 179 358

MPI task timing breakdown:
Section |  min time  |  avg time  |  max time  |%varavg| %total
---------------------------------------------------------------
Pair    | 1.0114     | 2.843      | 3.7349     |  46.7 | 72.94
Neigh   | 0          | 0          | 0          |   0.0 |  0.00
Comm    | 0.046667   | 0.62615    | 1.9794     |  71.7 | 16.07
Output  | 0          | 0          | 0          |   0.0 |  0.00
Modify  | 6.8715e-05 | 0.0059844  | 0.012608   |   3.6 |  0.15
Other   |            | 0.4223     |            |       | 10.84

Nlocal:        5552.90 ave        7908 max           0 min
Histogram: 4 2 2 0 2 6 4 0 15 17
Nghost:        6213.65 ave        8770 max         412 min
Histogram: 4 0 4 0 8 0 4 5 7 20
Neighs:       158427.0 ave      230522 max           0 min
Histogram: 4 2 2 0 5 3 4 4 12 16

Total # of neighbors = 8238191
Ave neighs/atom = 28.530433
Neighbor list builds = 0
Dangerous builds = 0
The dot product: 3.07937693118073e-07
Setting atom values ...
  1 settings made for x
  1 settings made for y
  1 settings made for z
Setting up cg style minimization ...
  Unit style    : metal
  Current step  : 4282
Per MPI rank memory allocation (min/avg/max) = 5.465 | 6.344 | 6.728 Mbytes
Step PotEng KinEng TotEng v_fx v_fy v_fz 
    4282   -1152448.8            0   -1152448.8 -0.025321078 -0.059842533 0.0056801423 
    4491   -1152448.8            0   -1152448.8 6.9501356e-06 2.2041017e-05 -1.7194919e-06 
Loop time of 4.56504 on 52 procs for 209 steps with 288751 atoms

99.9% CPU use with 52 MPI tasks x 1 OpenMP threads

Minimization stats:
  Stopping criterion = energy tolerance
  Energy initial, next-to-last, final = 
     -1152448.80698285  -1152448.80899727  -1152448.80899727
  Force two-norm initial, final = 0.20337317 7.2237615e-05
  Force max component initial, final = 0.088660494 2.2041017e-05
  Final line search alpha, max atom move = 1.0000000 2.2041017e-05
  Iterations, force evaluations = 209 418

MPI task timing breakdown:
Section |  min time  |  avg time  |  max time  |%varavg| %total
---------------------------------------------------------------
Pair    | 1.1806     | 3.3307     | 4.3876     |  50.7 | 72.96
Neigh   | 0          | 0          | 0          |   0.0 |  0.00
Comm    | 0.057847   | 0.73253    | 2.3036     |  77.5 | 16.05
Output  | 0          | 0          | 0          |   0.0 |  0.00
Modify  | 7.8002e-05 | 0.0069779  | 0.014812   |   3.9 |  0.15
Other   |            | 0.4948     |            |       | 10.84

Nlocal:        5552.90 ave        7908 max           0 min
Histogram: 4 2 2 0 2 6 4 0 15 17
Nghost:        6213.65 ave        8770 max         412 min
Histogram: 4 0 4 0 8 0 4 5 7 20
Neighs:       158427.0 ave      230515 max           0 min
Histogram: 4 2 2 0 5 3 4 4 12 16

Total # of neighbors = 8238191
Ave neighs/atom = 28.530433
Neighbor list builds = 0
Dangerous builds = 0
The dot product: 1.13409107280967e-07
Setting atom values ...
  1 settings made for x
  1 settings made for y
  1 settings made for z
Setting up cg style minimization ...
  Unit style    : metal
  Current step  : 4491
Per MPI rank memory allocation (min/avg/max) = 5.465 | 6.344 | 6.728 Mbytes
Step PotEng KinEng TotEng v_fx v_fy v_fz 
    4491   -1152448.8            0   -1152448.8 -0.028932965 -0.067096067  0.007186812 
    4653   -1152448.8            0   -1152448.8 -9.3376193e-06 -3.914695e-05 3.0016805e-06 
Loop time of 3.54091 on 52 procs for 162 steps with 288751 atoms

99.9% CPU use with 52 MPI tasks x 1 OpenMP threads

Minimization stats:
  Stopping criterion = energy tolerance
  Energy initial, next-to-last, final = 
     -1152448.78797531  -1152448.78994165  -1152448.78994165
  Force two-norm initial, final = 0.20681779 0.00016743914
  Force max component initial, final = 0.090334926 3.9146950e-05
  Final line search alpha, max atom move = 1.0000000 3.9146950e-05
  Iterations, force evaluations = 162 324

MPI task timing breakdown:
Section |  min time  |  avg time  |  max time  |%varavg| %total
---------------------------------------------------------------
Pair    | 0.91837    | 2.5752     | 3.3912     |  44.4 | 72.73
Neigh   | 0          | 0          | 0          |   0.0 |  0.00
Comm    | 0.04453    | 0.56916    | 1.7955     |  68.2 | 16.07
Output  | 0          | 0          | 0          |   0.0 |  0.00
Modify  | 6.8384e-05 | 0.0054608  | 0.011633   |   3.5 |  0.15
Other   |            | 0.3911     |            |       | 11.04

Nlocal:        5552.90 ave        7906 max           0 min
Histogram: 4 2 2 0 2 6 4 0 15 17
Nghost:        6213.58 ave        8770 max         412 min
Histogram: 4 0 4 0 8 0 4 5 7 20
Neighs:       158427.0 ave      230450 max           0 min
Histogram: 4 2 2 0 5 3 4 4 12 16

Total # of neighbors = 8238191
Ave neighs/atom = 28.530433
Neighbor list builds = 0
Dangerous builds = 0
The dot product: -6.44914901972797e-08
Setting atom values ...
  1 settings made for x
  1 settings made for y
  1 settings made for z
Setting up cg style minimization ...
  Unit style    : metal
  Current step  : 4653
Per MPI rank memory allocation (min/avg/max) = 5.465 | 6.344 | 6.728 Mbytes
Step PotEng KinEng TotEng v_fx v_fy v_fz 
    4653   -1152448.8            0   -1152448.8  -0.03222641 -0.073048494 0.0081532215 
    4823   -1152448.8            0   -1152448.8 -1.0155376e-05 -3.1572359e-05 2.9351574e-06 
Loop time of 3.71272 on 52 procs for 170 steps with 288751 atoms

99.9% CPU use with 52 MPI tasks x 1 OpenMP threads

Minimization stats:
  Stopping criterion = energy tolerance
  Energy initial, next-to-last, final = 
     -1152448.76748697  -1152448.76937188  -1152448.76937188
  Force two-norm initial, final = 0.20928599 9.9962773e-05
  Force max component initial, final = 0.090799656 3.1572359e-05
  Final line search alpha, max atom move = 1.0000000 3.1572359e-05
  Iterations, force evaluations = 170 340

MPI task timing breakdown:
Section |  min time  |  avg time  |  max time  |%varavg| %total
---------------------------------------------------------------
Pair    | 0.96193    | 2.7134     | 3.5678     |  45.8 | 73.08
Neigh   | 0          | 0          | 0          |   0.0 |  0.00
Comm    | 0.046778   | 0.59657    | 1.8838     |  70.0 | 16.07
Output  | 0          | 0          | 0          |   0.0 |  0.00
Modify  | 6.9641e-05 | 0.0056916  | 0.01199    |   3.5 |  0.15
Other   |            | 0.3971     |            |       | 10.70

Nlocal:        5552.90 ave        7906 max           0 min
Histogram: 4 2 2 0 2 6 4 0 15 17
Nghost:        6213.60 ave        8769 max         412 min
Histogram: 4 0 4 0 8 0 4 5 7 20
Neighs:       158427.0 ave      230451 max           0 min
Histogram: 4 2 2 0 5 3 4 4 12 16

Total # of neighbors = 8238188
Ave neighs/atom = 28.530422
Neighbor list builds = 0
Dangerous builds = 0
The dot product: 5.9021234326778e-08
Setting atom values ...
  1 settings made for x
  1 settings made for y
  1 settings made for z
Setting up cg style minimization ...
  Unit style    : metal
  Current step  : 4823
Per MPI rank memory allocation (min/avg/max) = 5.465 | 6.344 | 6.728 Mbytes
Step PotEng KinEng TotEng v_fx v_fy v_fz 
    4823   -1152448.7            0   -1152448.7 -0.035684875 -0.078369279 0.0085815385 
    4994   -1152448.7            0   -1152448.7 3.693505e-06 1.2054298e-05 -1.0493185e-06 
Loop time of 3.76798 on 52 procs for 171 steps with 288751 atoms

99.9% CPU use with 52 MPI tasks x 1 OpenMP threads

Minimization stats:
  Stopping criterion = linesearch alpha is zero
  Energy initial, next-to-last, final = 
     -1152448.74541553  -1152448.74727433  -1152448.74727433
  Force two-norm initial, final = 0.21098986 8.6093826e-05
  Force max component initial, final = 0.090067209 1.5619163e-05
  Final line search alpha, max atom move = 0.5 7.8095814e-06
  Iterations, force evaluations = 171 343

MPI task timing breakdown:
Section |  min time  |  avg time  |  max time  |%varavg| %total
---------------------------------------------------------------
Pair    | 0.97136    | 2.7326     | 3.6072     |  46.0 | 72.52
Neigh   | 0          | 0          | 0          |   0.0 |  0.00
Comm    | 0.048685   | 0.60855    | 1.902      |  69.5 | 16.15
Output  | 0          | 0          | 0          |   0.0 |  0.00
Modify  | 6.6271e-05 | 0.0057455  | 0.012096   |   3.5 |  0.15
Other   |            | 0.4211     |            |       | 11.18

Nlocal:        5552.90 ave        7906 max           0 min
Histogram: 4 2 2 0 2 6 4 0 15 17
Nghost:        6213.60 ave        8768 max         412 min
Histogram: 4 0 4 0 8 0 4 5 7 20
Neighs:       158427.0 ave      230451 max           0 min
Histogram: 4 2 2 0 5 3 4 4 12 16

Total # of neighbors = 8238188
Ave neighs/atom = 28.530422
Neighbor list builds = 0
Dangerous builds = 0
The dot product: -4.79553009943841e-08
Setting atom values ...
  1 settings made for x
  1 settings made for y
  1 settings made for z
Setting up cg style minimization ...
  Unit style    : metal
  Current step  : 4994
Per MPI rank memory allocation (min/avg/max) = 5.465 | 6.344 | 6.728 Mbytes
Step PotEng KinEng TotEng v_fx v_fy v_fz 
    4994   -1152448.7            0   -1152448.7 -0.037547189 -0.081639228 0.0082999123 
    5000   -1152448.7            0   -1152448.7 0.0031148699 0.0048171189 -0.00061876573 
    5164   -1152448.7            0   -1152448.7 -6.4375463e-06 -1.9915422e-05  1.63423e-06 
Loop time of 3.72316 on 52 procs for 170 steps with 288751 atoms

99.9% CPU use with 52 MPI tasks x 1 OpenMP threads

Minimization stats:
  Stopping criterion = linesearch alpha is zero
  Energy initial, next-to-last, final = 
     -1152448.72182304  -1152448.72365861  -1152448.72365861
  Force two-norm initial, final = 0.21132628 9.0516130e-05
  Force max component initial, final = 0.088545429 2.0485146e-05
  Final line search alpha, max atom move = 0.5 1.0242573e-05
  Iterations, force evaluations = 170 341

MPI task timing breakdown:
Section |  min time  |  avg time  |  max time  |%varavg| %total
---------------------------------------------------------------
Pair    | 0.96758    | 2.7179     | 3.5731     |  45.7 | 73.00
Neigh   | 0          | 0          | 0          |   0.0 |  0.00
Comm    | 0.0458     | 0.59843    | 1.8879     |  70.0 | 16.07
Output  | 0.00012288 | 0.00012629 | 0.00026018 |   0.0 |  0.00
Modify  | 6.6013e-05 | 0.0057137  | 0.012046   |   3.5 |  0.15
Other   |            | 0.401      |            |       | 10.77

Nlocal:        5552.90 ave        7906 max           0 min
Histogram: 4 2 2 0 2 6 4 0 15 17
Nghost:        6213.60 ave        8768 max         412 min
Histogram: 4 0 4 0 8 0 4 5 7 20
Neighs:       158427.0 ave      230423 max           0 min
Histogram: 4 2 2 0 5 3 4 4 12 16

Total # of neighbors = 8238185
Ave neighs/atom = 28.530412
Neighbor list builds = 0
Dangerous builds = 0
The dot product: 1.07532612696465e-07
Setting atom values ...
  1 settings made for x
  1 settings made for y
  1 settings made for z
Setting up cg style minimization ...
  Unit style    : metal
  Current step  : 5164
Per MPI rank memory allocation (min/avg/max) = 5.465 | 6.344 | 6.728 Mbytes
Step PotEng KinEng TotEng v_fx v_fy v_fz 
    5164   -1152448.7            0   -1152448.7 -0.037883076  -0.08372649 0.0075222029 
    5330   -1152448.7            0   -1152448.7 1.4453319e-05 3.7873064e-05 -3.0399926e-06 
Loop time of 3.64427 on 52 procs for 166 steps with 288751 atoms

99.9% CPU use with 52 MPI tasks x 1 OpenMP threads

Minimization stats:
  Stopping criterion = linesearch alpha is zero
  Energy initial, next-to-last, final = 
     -1152448.69673496   -1152448.6985412   -1152448.6985412
  Force two-norm initial, final = 0.21079034 0.00011206746
  Force max component initial, final = 0.086599141 3.7873064e-05
  Final line search alpha, max atom move = 0.5 1.8936532e-05
  Iterations, force evaluations = 166 333

MPI task timing breakdown:
Section |  min time  |  avg time  |  max time  |%varavg| %total
---------------------------------------------------------------
Pair    | 0.94519    | 2.655      | 3.4772     |  45.1 | 72.85
Neigh   | 0          | 0          | 0          |   0.0 |  0.00
Comm    | 0.046182   | 0.58473    | 1.8413     |  69.0 | 16.05
Output  | 0          | 0          | 0          |   0.0 |  0.00
Modify  | 7.4012e-05 | 0.0055659  | 0.011809   |   3.5 |  0.15
Other   |            | 0.399      |            |       | 10.95

Nlocal:        5552.90 ave        7905 max           0 min
Histogram: 4 2 2 0 2 6 4 0 15 17
Nghost:        6213.62 ave        8768 max         412 min
Histogram: 4 0 4 0 8 0 4 5 7 20
Neighs:       158427.0 ave      230383 max           0 min
Histogram: 4 2 2 0 5 3 4 4 12 16

Total # of neighbors = 8238188
Ave neighs/atom = 28.530422
Neighbor list builds = 0
Dangerous builds = 0
The dot product: -2.49793032902608e-07
Setting atom values ...
  1 settings made for x
  1 settings made for y
  1 settings made for z
Setting up cg style minimization ...
  Unit style    : metal
  Current step  : 5330
Per MPI rank memory allocation (min/avg/max) = 5.465 | 6.344 | 6.728 Mbytes
Step PotEng KinEng TotEng v_fx v_fy v_fz 
    5330   -1152448.7            0   -1152448.7 -0.036710238 -0.084994311 0.0063937015 
    5470   -1152448.7            0   -1152448.7 1.715575e-05 5.3387748e-05 -3.2692965e-06 
Loop time of 3.06583 on 52 procs for 140 steps with 288751 atoms

99.9% CPU use with 52 MPI tasks x 1 OpenMP threads

Minimization stats:
  Stopping criterion = energy tolerance
  Energy initial, next-to-last, final = 
     -1152448.67017556  -1152448.67194482  -1152448.67194482
  Force two-norm initial, final = 0.20952471 0.00034703878
  Force max component initial, final = 0.084994311 6.3252744e-05
  Final line search alpha, max atom move = 1.0000000 6.3252744e-05
  Iterations, force evaluations = 140 280

MPI task timing breakdown:
Section |  min time  |  avg time  |  max time  |%varavg| %total
---------------------------------------------------------------
Pair    | 0.79163    | 2.2313     | 2.9462     |  41.6 | 72.78
Neigh   | 0          | 0          | 0          |   0.0 |  0.00
Comm    | 0.038505   | 0.49335    | 1.5428     |  63.1 | 16.09
Output  | 0          | 0          | 0          |   0.0 |  0.00
Modify  | 5.7628e-05 | 0.0046993  | 0.010026   |   3.2 |  0.15
Other   |            | 0.3364     |            |       | 10.97

Nlocal:        5552.90 ave        7905 max           0 min
Histogram: 4 2 2 0 2 6 4 0 15 17
Nghost:        6213.63 ave        8768 max         412 min
Histogram: 4 0 4 0 8 0 4 5 7 20
Neighs:       158427.0 ave      230381 max           0 min
Histogram: 4 2 2 0 5 3 4 4 12 16

Total # of neighbors = 8238186
Ave neighs/atom = 28.530415
Neighbor list builds = 0
Dangerous builds = 0
The dot product: -3.70480417394799e-07
Setting atom values ...
  1 settings made for x
  1 settings made for y
  1 settings made for z
Setting up cg style minimization ...
  Unit style    : metal
  Current step  : 5470
Per MPI rank memory allocation (min/avg/max) = 5.465 | 6.344 | 6.728 Mbytes
Step PotEng KinEng TotEng v_fx v_fy v_fz 
    5470   -1152448.6            0   -1152448.6 -0.034016201 -0.085810393 0.0050204855 
    5628   -1152448.6            0   -1152448.6 1.8946586e-05 4.6911716e-05 -2.7859763e-06 
Loop time of 3.43424 on 52 procs for 158 steps with 288751 atoms

99.9% CPU use with 52 MPI tasks x 1 OpenMP threads

Minimization stats:
  Stopping criterion = energy tolerance
  Energy initial, next-to-last, final = 
     -1152448.64217135  -1152448.64389856  -1152448.64389856
  Force two-norm initial, final = 0.20787133 0.00015607957
  Force max component initial, final = 0.085810393 4.9129225e-05
  Final line search alpha, max atom move = 1.0000000 4.9129225e-05
  Iterations, force evaluations = 158 316

MPI task timing breakdown:
Section |  min time  |  avg time  |  max time  |%varavg| %total
---------------------------------------------------------------
Pair    | 0.89603    | 2.5131     | 3.2998     |  43.8 | 73.18
Neigh   | 0          | 0          | 0          |   0.0 |  0.00
Comm    | 0.040791   | 0.55295    | 1.7585     |  67.6 | 16.10
Output  | 0          | 0          | 0          |   0.0 |  0.00
Modify  | 6.3592e-05 | 0.0052839  | 0.011172   |   3.4 |  0.15
Other   |            | 0.3629     |            |       | 10.57

Nlocal:        5552.90 ave        7905 max           0 min
Histogram: 4 2 2 0 2 6 4 1 14 17
Nghost:        6213.67 ave        8768 max         412 min
Histogram: 4 0 4 0 8 0 4 5 7 20
Neighs:       158427.0 ave      230383 max           0 min
Histogram: 4 2 2 0 5 3 4 4 12 16

Total # of neighbors = 8238188
Ave neighs/atom = 28.530422
Neighbor list builds = 0
Dangerous builds = 0
The dot product: -3.68573953951441e-07
Setting atom values ...
  1 settings made for x
  1 settings made for y
  1 settings made for z
Setting up cg style minimization ...
  Unit style    : metal
  Current step  : 5628
Per MPI rank memory allocation (min/avg/max) = 5.465 | 6.344 | 6.728 Mbytes
Step PotEng KinEng TotEng v_fx v_fy v_fz 
    5628   -1152448.6            0   -1152448.6 -0.029553852 -0.086331349 0.0034470461 
    5788   -1152448.6            0   -1152448.6 -2.3311309e-05 -5.4704156e-05 2.6888682e-06 
Loop time of 3.53342 on 52 procs for 160 steps with 288751 atoms

99.9% CPU use with 52 MPI tasks x 1 OpenMP threads

Minimization stats:
  Stopping criterion = energy tolerance
  Energy initial, next-to-last, final = 
     -1152448.61275673  -1152448.61443964  -1152448.61443964
  Force two-norm initial, final = 0.20601606 0.00014933619
  Force max component initial, final = 0.086331349 5.7719648e-05
  Final line search alpha, max atom move = 1.0000000 5.7719648e-05
  Iterations, force evaluations = 160 320

MPI task timing breakdown:
Section |  min time  |  avg time  |  max time  |%varavg| %total
---------------------------------------------------------------
Pair    | 0.90586    | 2.5532     | 3.3868     |  44.6 | 72.26
Neigh   | 0          | 0          | 0          |   0.0 |  0.00
Comm    | 0.046442   | 0.56738    | 1.759      |  66.8 | 16.06
Output  | 0          | 0          | 0          |   0.0 |  0.00
Modify  | 6.1789e-05 | 0.0053448  | 0.011379   |   3.4 |  0.15
Other   |            | 0.4075     |            |       | 11.53

Nlocal:        5552.90 ave        7904 max           0 min
Histogram: 4 2 2 0 2 6 4 1 14 17
Nghost:        6213.71 ave        8769 max         412 min
Histogram: 4 0 4 0 8 0 4 5 7 20
Neighs:       158427.0 ave      230351 max           0 min
Histogram: 4 2 2 0 5 3 4 4 12 16

Total # of neighbors = 8238187
Ave neighs/atom = 28.530419
Neighbor list builds = 0
Dangerous builds = 0
The dot product: 4.59028926242264e-07
Setting atom values ...
  1 settings made for x
  1 settings made for y
  1 settings made for z
Setting up cg style minimization ...
  Unit style    : metal
  Current step  : 5788
Per MPI rank memory allocation (min/avg/max) = 5.465 | 6.344 | 6.728 Mbytes
Step PotEng KinEng TotEng v_fx v_fy v_fz 
    5788   -1152448.6            0   -1152448.6 -0.023730657 -0.086528585 0.0017597189 
    5931   -1152448.6            0   -1152448.6 -4.4954649e-05 -0.0001004869 3.8417772e-06 
Loop time of 3.11366 on 52 procs for 143 steps with 288751 atoms

99.9% CPU use with 52 MPI tasks x 1 OpenMP threads

Minimization stats:
  Stopping criterion = energy tolerance
  Energy initial, next-to-last, final = 
     -1152448.58198075  -1152448.58362192  -1152448.58362192
  Force two-norm initial, final = 0.20414542 0.00029330222
  Force max component initial, final = 0.086528585 0.0001004869
  Final line search alpha, max atom move = 1.0000000 0.0001004869
  Iterations, force evaluations = 143 286

MPI task timing breakdown:
Section |  min time  |  avg time  |  max time  |%varavg| %total
---------------------------------------------------------------
Pair    | 0.81107    | 2.273      | 2.9921     |  41.8 | 73.00
Neigh   | 0          | 0          | 0          |   0.0 |  0.00
Comm    | 0.037912   | 0.50159    | 1.583      |  64.0 | 16.11
Output  | 0          | 0          | 0          |   0.0 |  0.00
Modify  | 5.844e-05  | 0.0048106  | 0.010202   |   3.2 |  0.15
Other   |            | 0.3343     |            |       | 10.74

Nlocal:        5552.90 ave        7904 max           0 min
Histogram: 4 2 2 0 2 6 4 1 14 17
Nghost:        6213.71 ave        8769 max         412 min
Histogram: 4 0 4 0 8 0 4 5 7 20
Neighs:       158427.0 ave      230354 max           0 min
Histogram: 4 2 2 0 5 3 4 4 12 16

Total # of neighbors = 8238187
Ave neighs/atom = 28.530419
Neighbor list builds = 0
Dangerous builds = 0
The dot product: 8.99045789221131e-07
Setting atom values ...
  1 settings made for x
  1 settings made for y
  1 settings made for z
Setting up cg style minimization ...
  Unit style    : metal
  Current step  : 5931
Per MPI rank memory allocation (min/avg/max) = 5.465 | 6.344 | 6.728 Mbytes
Step PotEng KinEng TotEng v_fx v_fy v_fz 
    5931   -1152448.5            0   -1152448.5  -0.01558115 -0.086786856 -0.00015389918 
    6000   -1152448.6            0   -1152448.6 -0.00013715376 -0.00033626566 6.9854885e-06 
    6091   -1152448.6            0   -1152448.6 -2.4321964e-05 -4.4830873e-05 1.527383e-06 
Loop time of 3.49451 on 52 procs for 160 steps with 288751 atoms

99.9% CPU use with 52 MPI tasks x 1 OpenMP threads

Minimization stats:
  Stopping criterion = energy tolerance
  Energy initial, next-to-last, final = 
     -1152448.54997004  -1152448.55159763  -1152448.55159763
  Force two-norm initial, final = 0.20224256 0.0001482408
  Force max component initial, final = 0.088028671 4.4830873e-05
  Final line search alpha, max atom move = 1.0000000 4.4830873e-05
  Iterations, force evaluations = 160 320

MPI task timing breakdown:
Section |  min time  |  avg time  |  max time  |%varavg| %total
---------------------------------------------------------------
Pair    | 0.907      | 2.5537     | 3.3522     |  44.4 | 73.08
Neigh   | 0          | 0          | 0          |   0.0 |  0.00
Comm    | 0.044922   | 0.56119    | 1.7767     |  68.1 | 16.06
Output  | 0.00011792 | 0.00012205 | 0.00027736 |   0.0 |  0.00
Modify  | 6.0213e-05 | 0.0053711  | 0.0113     |   3.4 |  0.15
Other   |            | 0.3741     |            |       | 10.71

Nlocal:        5552.90 ave        7903 max           0 min
Histogram: 4 2 2 0 2 6 4 1 14 17
Nghost:        6213.58 ave        8769 max         412 min
Histogram: 4 0 4 0 8 0 4 5 7 20
Neighs:       158427.0 ave      230327 max           0 min
Histogram: 4 2 2 0 5 3 4 4 12 16

Total # of neighbors = 8238193
Ave neighs/atom = 28.530440
Neighbor list builds = 0
Dangerous builds = 0
The dot product: 4.80912398792517e-07
Setting atom values ...
  1 settings made for x
  1 settings made for y
  1 settings made for z
Setting up cg style minimization ...
  Unit style    : metal
  Current step  : 6091
Per MPI rank memory allocation (min/avg/max) = 5.465 | 6.344 | 6.728 Mbytes
Step PotEng KinEng TotEng v_fx v_fy v_fz 
    6091   -1152448.5            0   -1152448.5  0.012727117 -0.098822898 -0.0049563025 
    6373   -1152448.6            0   -1152448.6 9.6859591e-06 3.2103829e-05 2.0127016e-07 
Loop time of 6.19661 on 52 procs for 282 steps with 288751 atoms

99.9% CPU use with 52 MPI tasks x 1 OpenMP threads

Minimization stats:
  Stopping criterion = energy tolerance
  Energy initial, next-to-last, final = 
      -1152448.5172084  -1152448.61332482  -1152448.61332482
  Force two-norm initial, final = 0.20754122 0.00011120308
  Force max component initial, final = 0.098822898 3.2103829e-05
  Final line search alpha, max atom move = 1.0000000 3.2103829e-05
  Iterations, force evaluations = 282 564

MPI task timing breakdown:
Section |  min time  |  avg time  |  max time  |%varavg| %total
---------------------------------------------------------------
Pair    | 1.6168     | 4.489      | 5.93       |  58.6 | 72.44
Neigh   | 5.5709e-05 | 0.017181   | 0.025437   |   5.5 |  0.28
Comm    | 0.075694   | 0.99843    | 3.1193     |  89.2 | 16.11
Output  | 0          | 0          | 0          |   0.0 |  0.00
Modify  | 0.00012282 | 0.0094433  | 0.019938   |   4.5 |  0.15
Other   |            | 0.6826     |            |       | 11.02

Nlocal:        5552.90 ave        7906 max           0 min
Histogram: 4 2 2 0 2 6 4 1 14 17
Nghost:        6213.58 ave        8769 max         412 min
Histogram: 4 0 4 0 8 0 4 5 7 20
Neighs:       158427.0 ave      230444 max           0 min
Histogram: 4 2 2 0 5 3 4 4 12 16

Total # of neighbors = 8238190
Ave neighs/atom = 28.530429
Neighbor list builds = 3
Dangerous builds = 0
The dot product: -3.7498072477345e-06
Setting atom values ...
  1 settings made for x
  1 settings made for y
  1 settings made for z
Setting up cg style minimization ...
  Unit style    : metal
  Current step  : 6373
Per MPI rank memory allocation (min/avg/max) = 5.465 | 6.344 | 6.728 Mbytes
Step PotEng KinEng TotEng v_fx v_fy v_fz 
    6373   -1152448.6            0   -1152448.6  0.070149721  -0.14015419 -0.080195966 
    6705     -1152449            0     -1152449 1.6514175e-06 -1.832189e-06 -1.4059612e-06 
Loop time of 7.35478 on 52 procs for 332 steps with 288751 atoms

99.9% CPU use with 52 MPI tasks x 1 OpenMP threads

Minimization stats:
  Stopping criterion = linesearch alpha is zero
  Energy initial, next-to-last, final = 
     -1152448.60700182  -1152449.00003246  -1152449.00003246
  Force two-norm initial, final = 0.227334 5.5721829e-05
  Force max component initial, final = 0.14015419 1.4131551e-05
  Final line search alpha, max atom move = 0.5 7.0657756e-06
  Iterations, force evaluations = 332 664

MPI task timing breakdown:
Section |  min time  |  avg time  |  max time  |%varavg| %total
---------------------------------------------------------------
Pair    | 1.9189     | 5.3021     | 7.0043     |  63.4 | 72.09
Neigh   | 0.00011289 | 0.034409   | 0.051097   |   7.8 |  0.47
Comm    | 0.09617    | 1.1754     | 3.6639     |  96.7 | 15.98
Output  | 0          | 0          | 0          |   0.0 |  0.00
Modify  | 0.00013019 | 0.011093   | 0.023566   |   4.9 |  0.15
Other   |            | 0.8318     |            |       | 11.31

Nlocal:        5552.90 ave        7918 max           0 min
Histogram: 4 2 2 0 2 6 4 1 14 17
Nghost:        6213.60 ave        8769 max         412 min
Histogram: 4 0 4 0 8 0 4 5 7 20
Neighs:       158427.0 ave      230860 max           0 min
Histogram: 4 2 2 0 5 3 4 4 12 16

Total # of neighbors = 8238214
Ave neighs/atom = 28.530512
Neighbor list builds = 6
Dangerous builds = 0
The dot product: 1.43804640763659e-06
Setting atom values ...
  1 settings made for x
  1 settings made for y
  1 settings made for z
Setting up cg style minimization ...
  Unit style    : metal
  Current step  : 6705
Per MPI rank memory allocation (min/avg/max) = 5.465 | 6.344 | 6.728 Mbytes
Step PotEng KinEng TotEng v_fx v_fy v_fz 
    6705     -1152449            0     -1152449   0.19223389   0.55831945   0.80525703 
    6985   -1152449.2            0   -1152449.2 -2.1510668e-05 -6.3387941e-06 6.229991e-06 
Loop time of 6.12405 on 52 procs for 280 steps with 288751 atoms

99.9% CPU use with 52 MPI tasks x 1 OpenMP threads

Minimization stats:
  Stopping criterion = linesearch alpha is zero
  Energy initial, next-to-last, final = 
     -1152449.02368055  -1152449.18114189  -1152449.18114189
  Force two-norm initial, final = 1.0103091 8.5477812e-05
  Force max component initial, final = 0.80525703 2.1510668e-05
  Final line search alpha, max atom move = 0.5 1.0755334e-05
  Iterations, force evaluations = 280 561

MPI task timing breakdown:
Section |  min time  |  avg time  |  max time  |%varavg| %total
---------------------------------------------------------------
Pair    | 1.6036     | 4.4584     | 5.8576     |  58.2 | 72.80
Neigh   | 3.8905e-05 | 0.011446   | 0.017004   |   4.5 |  0.19
Comm    | 0.077078   | 0.9798     | 3.0942     |  89.4 | 16.00
Output  | 0          | 0          | 0          |   0.0 |  0.00
Modify  | 0.00012694 | 0.0094216  | 0.019848   |   4.5 |  0.15
Other   |            | 0.665      |            |       | 10.86

Nlocal:        5552.90 ave        7921 max           0 min
Histogram: 4 2 2 0 3 5 4 2 13 17
Nghost:        6213.52 ave        8770 max         412 min
Histogram: 4 0 4 0 8 0 4 5 7 20
Neighs:       158427.0 ave      230956 max           0 min
Histogram: 4 2 2 0 5 3 4 4 12 16

Total # of neighbors = 8238205
Ave neighs/atom = 28.530481
Neighbor list builds = 2
Dangerous builds = 0
The dot product: -2.20211371177821e-06
Setting atom values ...
  1 settings made for x
  1 settings made for y
  1 settings made for z
Setting up cg style minimization ...
  Unit style    : metal
  Current step  : 6985
Per MPI rank memory allocation (min/avg/max) = 5.465 | 6.344 | 6.728 Mbytes
Step PotEng KinEng TotEng v_fx v_fy v_fz 
    6985   -1152449.2            0   -1152449.2    -0.102124  -0.35550552  -0.24575085 
    7000   -1152449.2            0   -1152449.2 -0.0071353403 -0.0026068097 0.0026408552 
    7272   -1152449.2            0   -1152449.2 2.9685403e-06 -9.0955757e-07 -2.8756294e-06 
Loop time of 6.31087 on 52 procs for 287 steps with 288751 atoms

99.9% CPU use with 52 MPI tasks x 1 OpenMP threads

Minimization stats:
  Stopping criterion = linesearch alpha is zero
  Energy initial, next-to-last, final = 
     -1152449.20515746  -1152449.23077937  -1152449.23077937
  Force two-norm initial, final = 0.47495376 2.2343488e-05
  Force max component initial, final = 0.35550552 6.8150207e-06
  Final line search alpha, max atom move = 0.5 3.4075103e-06
  Iterations, force evaluations = 287 575

MPI task timing breakdown:
Section |  min time  |  avg time  |  max time  |%varavg| %total
---------------------------------------------------------------
Pair    | 1.6299     | 4.5778     | 6.0594     |  59.4 | 72.54
Neigh   | 1.9044e-05 | 0.0057474  | 0.0085248  |   3.2 |  0.09
Comm    | 0.08186    | 1.0113     | 3.153      |  90.1 | 16.02
Output  | 0.00011674 | 0.00012086 | 0.00026527 |   0.0 |  0.00
Modify  | 0.00012904 | 0.009608   | 0.020392   |   4.6 |  0.15
Other   |            | 0.7063     |            |       | 11.19

Nlocal:        5552.90 ave        7921 max           0 min
Histogram: 4 2 2 0 3 5 4 2 13 17
Nghost:        6213.50 ave        8770 max         412 min
Histogram: 4 0 4 0 8 0 4 5 7 20
Neighs:       158427.0 ave      230899 max           0 min
Histogram: 4 2 2 0 5 3 4 4 12 16

Total # of neighbors = 8238197
Ave neighs/atom = 28.530454
Neighbor list builds = 1
Dangerous builds = 0
The dot product: 1.43033379047141e-07
Setting atom values ...
  1 settings made for x
  1 settings made for y
  1 settings made for z
Setting up cg style minimization ...
  Unit style    : metal
  Current step  : 7272
Per MPI rank memory allocation (min/avg/max) = 5.465 | 6.344 | 6.728 Mbytes
Step PotEng KinEng TotEng v_fx v_fy v_fz 
    7272   -1152449.3            0   -1152449.3  0.038967443  0.072045662  0.052991314 
    7489   -1152449.3            0   -1152449.3 -9.1867748e-06 -7.4092302e-06 -1.8264792e-06 
Loop time of 4.75276 on 52 procs for 217 steps with 288751 atoms

99.9% CPU use with 52 MPI tasks x 1 OpenMP threads

Minimization stats:
  Stopping criterion = linesearch alpha is zero
  Energy initial, next-to-last, final = 
     -1152449.25228179  -1152449.25671053  -1152449.25671053
  Force two-norm initial, final = 0.18623582 9.6924809e-05
  Force max component initial, final = 0.088009677 1.3951015e-05
  Final line search alpha, max atom move = 0.5 6.9755073e-06
  Iterations, force evaluations = 217 435

MPI task timing breakdown:
Section |  min time  |  avg time  |  max time  |%varavg| %total
---------------------------------------------------------------
Pair    | 1.2287     | 3.4595     | 4.5656     |  51.6 | 72.79
Neigh   | 0          | 0          | 0          |   0.0 |  0.00
Comm    | 0.057142   | 0.7645     | 2.4047     |  78.8 | 16.09
Output  | 0          | 0          | 0          |   0.0 |  0.00
Modify  | 9.7132e-05 | 0.0072608  | 0.015432   |   4.0 |  0.15
Other   |            | 0.5215     |            |       | 10.97

Nlocal:        5552.90 ave        7921 max           0 min
Histogram: 4 2 2 0 3 5 4 2 13 17
Nghost:        6213.58 ave        8770 max         412 min
Histogram: 4 0 4 0 8 0 4 5 7 20
Neighs:       158427.0 ave      230926 max           0 min
Histogram: 4 2 2 0 5 3 4 4 12 16

Total # of neighbors = 8238205
Ave neighs/atom = 28.530481
Neighbor list builds = 0
Dangerous builds = 0
The dot product: -4.40192273868492e-07
Setting atom values ...
  1 settings made for x
  1 settings made for y
  1 settings made for z
Setting up cg style minimization ...
  Unit style    : metal
  Current step  : 7489
Per MPI rank memory allocation (min/avg/max) = 5.465 | 6.344 | 6.728 Mbytes
Step PotEng KinEng TotEng v_fx v_fy v_fz 
    7489   -1152449.3            0   -1152449.3 -0.025855697  -0.05915263 -0.042978942 
    7650   -1152449.3            0   -1152449.3 3.8566415e-05 1.8799052e-05 -7.6877695e-06 
Loop time of 3.58767 on 52 procs for 161 steps with 288751 atoms

99.9% CPU use with 52 MPI tasks x 1 OpenMP threads

Minimization stats:
  Stopping criterion = linesearch alpha is zero
  Energy initial, next-to-last, final = 
     -1152449.27728521  -1152449.27888722  -1152449.27888722
  Force two-norm initial, final = 0.17881753 0.00023884199
  Force max component initial, final = 0.089200782 4.1645090e-05
  Final line search alpha, max atom move = 0.125 5.2056362e-06
  Iterations, force evaluations = 161 327

MPI task timing breakdown:
Section |  min time  |  avg time  |  max time  |%varavg| %total
---------------------------------------------------------------
Pair    | 0.92621    | 2.6088     | 3.4463     |  44.9 | 72.72
Neigh   | 0          | 0          | 0          |   0.0 |  0.00
Comm    | 0.045422   | 0.57537    | 1.7986     |  68.2 | 16.04
Output  | 0          | 0          | 0          |   0.0 |  0.00
Modify  | 7.4951e-05 | 0.0054723  | 0.011532   |   3.4 |  0.15
Other   |            | 0.398      |            |       | 11.09

Nlocal:        5552.90 ave        7921 max           0 min
Histogram: 4 2 2 0 3 5 4 2 13 17
Nghost:        6213.50 ave        8770 max         412 min
Histogram: 4 0 4 0 8 0 4 5 7 20
Neighs:       158427.0 ave      230927 max           0 min
Histogram: 4 2 2 0 5 3 4 4 12 16

Total # of neighbors = 8238202
Ave neighs/atom = 28.530471
Neighbor list builds = 0
Dangerous builds = 0
The dot product: -2.96906852080773e-07
Setting atom values ...
  1 settings made for x
  1 settings made for y
  1 settings made for z
Setting up cg style minimization ...
  Unit style    : metal
  Current step  : 7650
Per MPI rank memory allocation (min/avg/max) = 5.465 | 6.344 | 6.728 Mbytes
Step PotEng KinEng TotEng v_fx v_fy v_fz 
    7650   -1152449.3            0   -1152449.3 -0.0028640208 -0.019593736 -0.018598548 
    7842   -1152449.3            0   -1152449.3 2.3806123e-05 -6.5312366e-06 -2.3560319e-05 
Loop time of 4.23184 on 52 procs for 192 steps with 288751 atoms

99.9% CPU use with 52 MPI tasks x 1 OpenMP threads

Minimization stats:
  Stopping criterion = linesearch alpha is zero
[...]
Nghost:        6213.62 ave        8769 max         412 min
Histogram: 4 0 4 0 8 0 4 5 7 20
Neighs:       158427.0 ave      230775 max           0 min
Histogram: 4 2 2 0 5 3 4 4 12 16

Total # of neighbors = 8238190
Ave neighs/atom = 28.530429
Neighbor list builds = 0
Dangerous builds = 0
The dot product: -6.06053486381269e-09
Setting atom values ...
  1 settings made for x
  1 settings made for y
  1 settings made for z
Setting up cg style minimization ...
  Unit style    : metal
  Current step  : 16484
Per MPI rank memory allocation (min/avg/max) = 5.465 | 6.344 | 6.728 Mbytes
Step PotEng KinEng TotEng v_fx v_fy v_fz 
   16484   -1152449.3            0   -1152449.3  0.043099157  0.024140072 0.0019333644 
   16676   -1152449.3            0   -1152449.3 -6.6982137e-06 3.0244806e-06 9.8169335e-06 
Loop time of 4.19445 on 52 procs for 192 steps with 288751 atoms

99.9% CPU use with 52 MPI tasks x 1 OpenMP threads

Minimization stats:
  Stopping criterion = linesearch alpha is zero
  Energy initial, next-to-last, final = 
     -1152449.33240402  -1152449.33343331  -1152449.33343331
  Force two-norm initial, final = 0.14056348 9.4936552e-05
  Force max component initial, final = 0.058501972 9.8169335e-06
  Final line search alpha, max atom move = 0.5 4.9084668e-06
  Iterations, force evaluations = 192 385

MPI task timing breakdown:
Section |  min time  |  avg time  |  max time  |%varavg| %total
---------------------------------------------------------------
Pair    | 1.0884     | 3.0615     | 4.0322     |  48.5 | 72.99
Neigh   | 0          | 0          | 0          |   0.0 |  0.00
Comm    | 0.050269   | 0.67221    | 2.1171     |  74.4 | 16.03
Output  | 0          | 0          | 0          |   0.0 |  0.00
Modify  | 7.7713e-05 | 0.0064482  | 0.013515   |   3.7 |  0.15
Other   |            | 0.4542     |            |       | 10.83

Nlocal:        5552.90 ave        7916 max           0 min
Histogram: 4 2 2 0 2 6 4 2 13 17
Nghost:        6213.62 ave        8769 max         412 min
Histogram: 4 0 4 0 8 0 4 5 7 20
Neighs:       158427.0 ave      230741 max           0 min
Histogram: 4 2 2 0 5 3 4 4 12 16

Total # of neighbors = 8238191
Ave neighs/atom = 28.530433
Neighbor list builds = 0
Dangerous builds = 0
The dot product: -9.48764361193201e-09
Setting atom values ...
  1 settings made for x
  1 settings made for y
  1 settings made for z
Setting up cg style minimization ...
  Unit style    : metal
  Current step  : 16676
Per MPI rank memory allocation (min/avg/max) = 5.465 | 6.344 | 6.728 Mbytes
Step PotEng KinEng TotEng v_fx v_fy v_fz 
   16676   -1152449.3            0   -1152449.3  0.044070091   0.02437722 0.0013907638 
   16845   -1152449.3            0   -1152449.3 -1.8459181e-05 1.5945468e-05 3.8427556e-05 
Loop time of 3.71814 on 52 procs for 169 steps with 288751 atoms

99.9% CPU use with 52 MPI tasks x 1 OpenMP threads

Minimization stats:
  Stopping criterion = linesearch alpha is zero
  Energy initial, next-to-last, final = 
     -1152449.33896862  -1152449.34001247  -1152449.34001247
  Force two-norm initial, final = 0.14147058 0.00021094763
  Force max component initial, final = 0.060206125 4.9529604e-05
  Final line search alpha, max atom move = 0.25 1.2382401e-05
  Iterations, force evaluations = 169 341

MPI task timing breakdown:
Section |  min time  |  avg time  |  max time  |%varavg| %total
---------------------------------------------------------------
Pair    | 0.96841    | 2.7128     | 3.5633     |  45.5 | 72.96
Neigh   | 0          | 0          | 0          |   0.0 |  0.00
Comm    | 0.044546   | 0.59568    | 1.8717     |  69.6 | 16.02
Output  | 0          | 0          | 0          |   0.0 |  0.00
Modify  | 6.35e-05   | 0.005704   | 0.012041   |   3.5 |  0.15
Other   |            | 0.404      |            |       | 10.86

Nlocal:        5552.90 ave        7916 max           0 min
Histogram: 4 2 2 0 2 6 4 1 14 17
Nghost:        6213.58 ave        8769 max         412 min
Histogram: 4 0 4 0 8 0 4 5 7 20
Neighs:       158427.0 ave      230750 max           0 min
Histogram: 4 2 2 0 5 3 4 4 12 16

Total # of neighbors = 8238192
Ave neighs/atom = 28.530436
Neighbor list builds = 0
Dangerous builds = 0
The dot product: -1.25822948786824e-08
Setting atom values ...
  1 settings made for x
  1 settings made for y
  1 settings made for z
Setting up cg style minimization ...
  Unit style    : metal
  Current step  : 16845
Per MPI rank memory allocation (min/avg/max) = 5.465 | 6.344 | 6.728 Mbytes
Step PotEng KinEng TotEng v_fx v_fy v_fz 
   16845   -1152449.3            0   -1152449.3    0.0444278  0.023970547 0.00036702187 
   17000   -1152449.3            0   -1152449.3 2.8570339e-05 5.0192161e-05 5.2044523e-05 
   17046   -1152449.3            0   -1152449.3 -7.4795679e-06 -2.0534021e-06 2.8910137e-06 
Loop time of 4.38278 on 52 procs for 201 steps with 288751 atoms

99.9% CPU use with 52 MPI tasks x 1 OpenMP threads

Minimization stats:
  Stopping criterion = energy tolerance
  Energy initial, next-to-last, final = 
     -1152449.34405362  -1152449.34510982  -1152449.34510982
  Force two-norm initial, final = 0.14200404 7.0589292e-05
  Force max component initial, final = 0.061861198 7.4795679e-06
  Final line search alpha, max atom move = 1.0000000 7.4795679e-06
  Iterations, force evaluations = 201 402

MPI task timing breakdown:
Section |  min time  |  avg time  |  max time  |%varavg| %total
---------------------------------------------------------------
Pair    | 1.1374     | 3.1958     | 4.2035     |  49.5 | 72.92
Neigh   | 0          | 0          | 0          |   0.0 |  0.00
Comm    | 0.055277   | 0.70002    | 2.2138     |  75.9 | 15.97
Output  | 0.00011925 | 0.00012775 | 0.00035489 |   0.0 |  0.00
Modify  | 7.8804e-05 | 0.0067514  | 0.014359   |   3.8 |  0.15
Other   |            | 0.4801     |            |       | 10.95

Nlocal:        5552.90 ave        7915 max           0 min
Histogram: 4 2 2 0 2 6 4 1 14 17
Nghost:        6213.62 ave        8769 max         412 min
Histogram: 4 0 4 0 8 0 4 5 7 20
Neighs:       158427.0 ave      230710 max           0 min
Histogram: 4 2 2 0 5 3 4 4 12 16

Total # of neighbors = 8238191
Ave neighs/atom = 28.530433
Neighbor list builds = 0
Dangerous builds = 0
The dot product: -2.21847438541923e-08
Setting atom values ...
  1 settings made for x
  1 settings made for y
  1 settings made for z
Setting up cg style minimization ...
  Unit style    : metal
  Current step  : 17046
Per MPI rank memory allocation (min/avg/max) = 5.465 | 6.344 | 6.728 Mbytes
Step PotEng KinEng TotEng v_fx v_fy v_fz 
   17046   -1152449.3            0   -1152449.3  0.044290702   0.02298376 -0.0011271643 
   17237   -1152449.3            0   -1152449.3 -1.1251026e-05 -1.0373024e-06 7.4303143e-06 
Loop time of 4.18156 on 52 procs for 191 steps with 288751 atoms

99.9% CPU use with 52 MPI tasks x 1 OpenMP threads

Minimization stats:
  Stopping criterion = linesearch alpha is zero
  Energy initial, next-to-last, final = 
      -1152449.3476644   -1152449.3487314   -1152449.3487314
  Force two-norm initial, final = 0.14227429 9.4216868e-05
  Force max component initial, final = 0.063453104 1.3246861e-05
  Final line search alpha, max atom move = 0.5 6.6234306e-06
  Iterations, force evaluations = 191 383

MPI task timing breakdown:
Section |  min time  |  avg time  |  max time  |%varavg| %total
---------------------------------------------------------------
Pair    | 1.0838     | 3.0473     | 4.0202     |  48.4 | 72.88
Neigh   | 0          | 0          | 0          |   0.0 |  0.00
Comm    | 0.050524   | 0.66922    | 2.1084     |  73.8 | 16.00
Output  | 0          | 0          | 0          |   0.0 |  0.00
Modify  | 7.241e-05  | 0.0064284  | 0.013527   |   3.8 |  0.15
Other   |            | 0.4586     |            |       | 10.97

Nlocal:        5552.90 ave        7915 max           0 min
Histogram: 4 2 2 0 2 6 4 1 14 17
Nghost:        6213.54 ave        8769 max         412 min
Histogram: 4 0 4 0 8 0 4 5 7 20
Neighs:       158427.0 ave      230708 max           0 min
Histogram: 4 2 2 0 5 3 4 4 12 16

Total # of neighbors = 8238188
Ave neighs/atom = 28.530422
Neighbor list builds = 0
Dangerous builds = 0
The dot product: -2.97733984431231e-08
Setting atom values ...
  1 settings made for x
  1 settings made for y
  1 settings made for z
Setting up cg style minimization ...
  Unit style    : metal
  Current step  : 17237
Per MPI rank memory allocation (min/avg/max) = 5.465 | 6.344 | 6.728 Mbytes
Step PotEng KinEng TotEng v_fx v_fy v_fz 
   17237   -1152449.3            0   -1152449.3  0.043807602  0.021679078 -0.0028123605 
   17445   -1152449.4            0   -1152449.4 -3.1216144e-06 -1.4630001e-07 2.2789798e-06 
Loop time of 4.52411 on 52 procs for 208 steps with 288751 atoms

99.9% CPU use with 52 MPI tasks x 1 OpenMP threads

Minimization stats:
  Stopping criterion = energy tolerance
  Energy initial, next-to-last, final = 
     -1152449.34980612  -1152449.35088236  -1152449.35088236
  Force two-norm initial, final = 0.14239812 4.7505439e-05
  Force max component initial, final = 0.0650005 5.4116974e-06
  Final line search alpha, max atom move = 1.0000000 5.4116974e-06
  Iterations, force evaluations = 208 416

MPI task timing breakdown:
Section |  min time  |  avg time  |  max time  |%varavg| %total
---------------------------------------------------------------
Pair    | 1.1756     | 3.3067     | 4.3488     |  50.4 | 73.09
Neigh   | 0          | 0          | 0          |   0.0 |  0.00
Comm    | 0.054414   | 0.72523    | 2.29       |  77.1 | 16.03
Output  | 0          | 0          | 0          |   0.0 |  0.00
Modify  | 7.9449e-05 | 0.0069921  | 0.014881   |   3.9 |  0.15
Other   |            | 0.4852     |            |       | 10.73

Nlocal:        5552.90 ave        7914 max           0 min
Histogram: 4 2 2 0 2 6 4 1 14 17
Nghost:        6213.54 ave        8769 max         412 min
Histogram: 4 0 4 0 8 0 4 5 7 20
Neighs:       158427.0 ave      230671 max           0 min
Histogram: 4 2 2 0 5 3 4 4 12 16

Total # of neighbors = 8238188
Ave neighs/atom = 28.530422
Neighbor list builds = 0
Dangerous builds = 0
The dot product: -7.97787308489754e-09
Setting atom values ...
  1 settings made for x
  1 settings made for y
  1 settings made for z
Setting up cg style minimization ...
  Unit style    : metal
  Current step  : 17445
Per MPI rank memory allocation (min/avg/max) = 5.465 | 6.344 | 6.728 Mbytes
Step PotEng KinEng TotEng v_fx v_fy v_fz 
   17445   -1152449.4            0   -1152449.4  0.043290504  0.020386462 -0.0044427548 
   17610   -1152449.4            0   -1152449.4 -1.8678763e-05 3.9075409e-07 1.5557405e-05 
Loop time of 3.60695 on 52 procs for 165 steps with 288751 atoms

99.9% CPU use with 52 MPI tasks x 1 OpenMP threads

Minimization stats:
  Stopping criterion = energy tolerance
  Energy initial, next-to-last, final = 
     -1152449.35049023   -1152449.3515727   -1152449.3515727
  Force two-norm initial, final = 0.14245695 0.00022797061
  Force max component initial, final = 0.066496928 1.9238105e-05
  Final line search alpha, max atom move = 1.0000000 1.9238105e-05
  Iterations, force evaluations = 165 330

MPI task timing breakdown:
Section |  min time  |  avg time  |  max time  |%varavg| %total
---------------------------------------------------------------
Pair    | 0.93478    | 2.627      | 3.4636     |  44.9 | 72.83
Neigh   | 0          | 0          | 0          |   0.0 |  0.00
Comm    | 0.043238   | 0.57638    | 1.8186     |  68.6 | 15.98
Output  | 0          | 0          | 0          |   0.0 |  0.00
Modify  | 6.3632e-05 | 0.0055284  | 0.011594   |   3.5 |  0.15
Other   |            | 0.3981     |            |       | 11.04

Nlocal:        5552.90 ave        7914 max           0 min
Histogram: 4 2 2 0 2 6 4 1 14 17
Nghost:        6213.54 ave        8769 max         412 min
Histogram: 4 0 4 0 8 0 4 5 7 20
Neighs:       158427.0 ave      230665 max           0 min
Histogram: 4 2 2 0 5 3 4 4 12 16

Total # of neighbors = 8238190
Ave neighs/atom = 28.530429
Neighbor list builds = 0
Dangerous builds = 0
The dot product: -4.6274473196371e-08
Setting atom values ...
  1 settings made for x
  1 settings made for y
  1 settings made for z
Setting up cg style minimization ...
  Unit style    : metal
  Current step  : 17610
Per MPI rank memory allocation (min/avg/max) = 5.465 | 6.344 | 6.728 Mbytes
Step PotEng KinEng TotEng v_fx v_fy v_fz 
   17610   -1152449.3            0   -1152449.3  0.043150597  0.019610149 -0.0056015081 
   17779   -1152449.4            0   -1152449.4 1.1373719e-05 2.6473147e-05 3.012631e-05 
Loop time of 3.67706 on 52 procs for 169 steps with 288751 atoms

99.9% CPU use with 52 MPI tasks x 1 OpenMP threads

Minimization stats:
  Stopping criterion = energy tolerance
  Energy initial, next-to-last, final = 
     -1152449.34974735  -1152449.35083376  -1152449.35083376
  Force two-norm initial, final = 0.14250033 0.00019854612
  Force max component initial, final = 0.067947504 4.0918549e-05
  Final line search alpha, max atom move = 1.0000000 4.0918549e-05
  Iterations, force evaluations = 169 338

MPI task timing breakdown:
Section |  min time  |  avg time  |  max time  |%varavg| %total
---------------------------------------------------------------
Pair    | 0.96056    | 2.6905     | 3.5333     |  45.3 | 73.17
Neigh   | 0          | 0          | 0          |   0.0 |  0.00
Comm    | 0.044075   | 0.587      | 1.8557     |  69.7 | 15.96
Output  | 0          | 0          | 0          |   0.0 |  0.00
Modify  | 5.8917e-05 | 0.0056797  | 0.012023   |   3.5 |  0.15
Other   |            | 0.3938     |            |       | 10.71

Nlocal:        5552.90 ave        7912 max           0 min
Histogram: 4 2 2 0 2 6 4 0 15 17
Nghost:        6213.58 ave        8769 max         412 min
Histogram: 4 0 4 0 8 0 4 5 7 20
Neighs:       158427.0 ave      230584 max           0 min
Histogram: 4 2 2 0 5 3 4 4 12 16

Total # of neighbors = 8238196
Ave neighs/atom = 28.530450
Neighbor list builds = 0
Dangerous builds = 0
The dot product: 7.06601189710322e-08
Setting atom values ...
  1 settings made for x
  1 settings made for y
  1 settings made for z
Setting up cg style minimization ...
  Unit style    : metal
  Current step  : 17779
Per MPI rank memory allocation (min/avg/max) = 5.465 | 6.344 | 6.728 Mbytes
Step PotEng KinEng TotEng v_fx v_fy v_fz 
   17779   -1152449.3            0   -1152449.3  0.043970974  0.019999402 -0.0058045646 
   17921   -1152449.3            0   -1152449.3 4.4681581e-05 4.8695927e-06 -2.8801075e-05 
Loop time of 3.13277 on 52 procs for 142 steps with 288751 atoms

99.8% CPU use with 52 MPI tasks x 1 OpenMP threads

Minimization stats:
  Stopping criterion = energy tolerance
  Energy initial, next-to-last, final = 
     -1152449.34765708  -1152449.34874936  -1152449.34874936
  Force two-norm initial, final = 0.14278041 0.00029835855
  Force max component initial, final = 0.069357908 4.7434570e-05
  Final line search alpha, max atom move = 1.0000000 4.7434570e-05
  Iterations, force evaluations = 142 284

MPI task timing breakdown:
Section |  min time  |  avg time  |  max time  |%varavg| %total
---------------------------------------------------------------
Pair    | 0.80733    | 2.2648     | 2.9818     |  41.6 | 72.29
Neigh   | 0          | 0          | 0          |   0.0 |  0.00
Comm    | 0.041074   | 0.50248    | 1.5927     |  63.3 | 16.04
Output  | 0          | 0          | 0          |   0.0 |  0.00
Modify  | 5.6752e-05 | 0.0047693  | 0.010033   |   3.2 |  0.15
Other   |            | 0.3607     |            |       | 11.51

Nlocal:        5552.90 ave        7909 max           0 min
Histogram: 4 2 2 0 2 6 4 0 15 17
Nghost:        6213.58 ave        8769 max         412 min
Histogram: 4 0 4 0 8 0 4 5 7 20
Neighs:       158427.0 ave      230503 max           0 min
Histogram: 4 2 2 0 5 3 4 4 12 16

Total # of neighbors = 8238193
Ave neighs/atom = 28.530440
Neighbor list builds = 0
Dangerous builds = 0
The dot product: 1.3383508085077e-07
Setting atom values ...
  1 settings made for x
  1 settings made for y
  1 settings made for z
Setting up cg style minimization ...
  Unit style    : metal
  Current step  : 17921
Per MPI rank memory allocation (min/avg/max) = 5.465 | 6.344 | 6.728 Mbytes
Step PotEng KinEng TotEng v_fx v_fy v_fz 
   17921   -1152449.3            0   -1152449.3  0.046360073  0.022280009 -0.0044912768 
   18000   -1152449.3            0   -1152449.3 2.6902328e-05 8.0251803e-05 9.7072901e-05 
   18072   -1152449.3            0   -1152449.3 2.0202098e-05 9.7348723e-06 -1.9186099e-06 
Loop time of 3.29298 on 52 procs for 151 steps with 288751 atoms

99.9% CPU use with 52 MPI tasks x 1 OpenMP threads

Minimization stats:
  Stopping criterion = energy tolerance
  Energy initial, next-to-last, final = 
     -1152449.34440125  -1152449.34553385  -1152449.34553385
  Force two-norm initial, final = 0.144165 0.0002131792
  Force max component initial, final = 0.070717249 2.3088996e-05
  Final line search alpha, max atom move = 1.0000000 2.3088996e-05
  Iterations, force evaluations = 151 302

MPI task timing breakdown:
Section |  min time  |  avg time  |  max time  |%varavg| %total
---------------------------------------------------------------
Pair    | 0.85763    | 2.4052     | 3.1588     |  42.8 | 73.04
Neigh   | 0          | 0          | 0          |   0.0 |  0.00
Comm    | 0.039514   | 0.5265     | 1.6644     |  65.9 | 15.99
Output  | 0.00011529 | 0.00011982 | 0.00031291 |   0.0 |  0.00
Modify  | 6.2535e-05 | 0.0050687  | 0.010752   |   3.3 |  0.15
Other   |            | 0.356      |            |       | 10.81

Nlocal:        5552.90 ave        7908 max           0 min
Histogram: 4 2 2 0 2 6 4 0 15 17
Nghost:        6213.58 ave        8769 max         412 min
Histogram: 4 0 4 0 8 0 4 5 7 20
Neighs:       158427.0 ave      230466 max           0 min
Histogram: 4 2 2 0 5 3 4 4 12 16

Total # of neighbors = 8238193
Ave neighs/atom = 28.530440
Neighbor list builds = 0
Dangerous builds = 0
The dot product: 9.81587716806831e-08
Setting atom values ...
  1 settings made for x
  1 settings made for y
  1 settings made for z
Setting up cg style minimization ...
  Unit style    : metal
  Current step  : 18072
Per MPI rank memory allocation (min/avg/max) = 5.465 | 6.344 | 6.728 Mbytes
Step PotEng KinEng TotEng v_fx v_fy v_fz 
   18072   -1152449.3            0   -1152449.3   0.05133888  0.027877077 -0.0004428495 
   18408   -1152449.3            0   -1152449.3 5.5155561e-07 9.3429475e-07 9.3352866e-07 
Loop time of 7.31102 on 52 procs for 336 steps with 288751 atoms

99.9% CPU use with 52 MPI tasks x 1 OpenMP threads

Minimization stats:
  Stopping criterion = linesearch alpha is zero
  Energy initial, next-to-last, final = 
     -1152449.34044777  -1152449.34921434  -1152449.34921434
  Force two-norm initial, final = 0.14973648 8.0891141e-06
  Force max component initial, final = 0.071946601 1.0850827e-06
  Final line search alpha, max atom move = 0.5 5.4254133e-07
  Iterations, force evaluations = 336 673

MPI task timing breakdown:
Section |  min time  |  avg time  |  max time  |%varavg| %total
---------------------------------------------------------------
Pair    | 1.9104     | 5.3443     | 7.0157     |  63.8 | 73.10
Neigh   | 1.8712e-05 | 0.0057265  | 0.0084401  |   3.2 |  0.08
Comm    | 0.087735   | 1.1722     | 3.6918     |  98.0 | 16.03
Output  | 0          | 0          | 0          |   0.0 |  0.00
Modify  | 0.00012821 | 0.011249   | 0.023808   |   4.9 |  0.15
Other   |            | 0.7775     |            |       | 10.64

Nlocal:        5552.90 ave        7905 max           0 min
Histogram: 4 2 2 0 2 6 4 0 15 17
Nghost:        6213.58 ave        8769 max         412 min
Histogram: 4 0 4 0 8 0 4 5 7 20
Neighs:       158427.0 ave      230373 max           0 min
Histogram: 4 2 2 0 5 3 4 4 12 16

Total # of neighbors = 8238209
Ave neighs/atom = 28.530495
Neighbor list builds = 1
Dangerous builds = 0
The dot product: 1.02189704054384e-07
