LAMMPS (29 Oct 2020)
OMP_NUM_THREADS environment is not set. Defaulting to 1 thread. (../comm.cpp:94)
  using 1 OpenMP thread(s) per MPI task
OMP_NUM_THREADS environment is not set. Defaulting to 1 thread. (../comm.cpp:94)
  using 1 OpenMP thread(s) per MPI task
Reading data file ...
  orthogonal box = (-122.39241 -121.13707 -37.090501) to (122.39241 121.13707 37.090501)
  13 by 4 by 1 MPI processor grid
  reading atoms ...
  288751 atoms
  read_data CPU = 0.439 seconds
199981 atoms in group inner
88770 atoms in group outer
1 atoms in group carbon
Neighbor list info ...
  update every 1 steps, delay 0 steps, check yes
  max neighbors/atom: 2000, page size: 100000
  master list distance cutoff = 5.6
  ghost atom cutoff = 5.6
  binsize = 2.8, bins = 88 87 27
  1 neighbor lists, perpetual/occasional/extra = 1 0 0
  (1) pair eam/alloy, perpetual
      attributes: half, newton on
      pair build: half/bin/atomonly/newton
      stencil: half/bin/3d/newton
      bin: standard
Setting up cg style minimization ...
  Unit style    : metal
  Current step  : 0
Per MPI rank memory allocation (min/avg/max) = 5.465 | 6.344 | 6.728 Mbytes
Step v_fx v_fy v_fz PotEng KinEng TotEng 
       0  0.018859677    0.1250801 -0.040666111   -1152444.6            0   -1152444.6 
     239 1.9766706e-05 -2.332276e-06 -2.3014559e-05     -1152449            0     -1152449 
Loop time of 5.3951 on 52 procs for 239 steps with 288751 atoms

99.8% CPU use with 52 MPI tasks x 1 OpenMP threads

Minimization stats:
  Stopping criterion = linesearch alpha is zero
  Energy initial, next-to-last, final = 
     -1152444.63020421  -1152448.97218896  -1152448.97218896
  Force two-norm initial, final = 23.793813 0.00011951426
  Force max component initial, final = 13.975426 2.8688458e-05
  Final line search alpha, max atom move = 0.5 1.4344229e-05
  Iterations, force evaluations = 239 476

MPI task timing breakdown:
Section |  min time  |  avg time  |  max time  |%varavg| %total
---------------------------------------------------------------
Pair    | 1.4199     | 3.8278     | 4.9875     |  52.7 | 70.95
Neigh   | 0.00018001 | 0.055323   | 0.081683   |  10.0 |  1.03
Comm    | 0.089592   | 0.86214    | 2.6784     |  81.7 | 15.98
Output  | 0          | 0          | 0          |   0.0 |  0.00
Modify  | 5.2189e-05 | 0.0053011  | 0.013394   |   4.4 |  0.10
Other   |            | 0.6445     |            |       | 11.95

Nlocal:        5552.90 ave        7900 max           0 min
Histogram: 4 2 2 0 2 6 4 1 13 18
Nghost:        6213.63 ave        8769 max         412 min
Histogram: 4 0 4 0 8 0 4 5 7 20
Neighs:       158427.0 ave      230216 max           0 min
Histogram: 4 2 2 0 5 3 4 4 12 16

Total # of neighbors = 8238209
Ave neighs/atom = 28.530495
Neighbor list builds = 9
Dangerous builds = 0
Setting atom values ...
  1 settings made for x
  1 settings made for y
  1 settings made for z
Setting up cg style minimization ...
  Unit style    : metal
  Current step  : 239
Per MPI rank memory allocation (min/avg/max) = 5.465 | 6.344 | 6.728 Mbytes
Step PotEng KinEng TotEng v_fx v_fy v_fz 
     239     -1152449            0     -1152449 -0.026786717 -0.009523339  0.028888188 
     394     -1152449            0     -1152449 5.9762189e-05 8.2707211e-06 -8.9086695e-05 
Loop time of 3.45199 on 52 procs for 155 steps with 288751 atoms

99.8% CPU use with 52 MPI tasks x 1 OpenMP threads

Minimization stats:
  Stopping criterion = energy tolerance
  Energy initial, next-to-last, final = 
     -1152448.96851022  -1152448.97107443  -1152448.97107443
  Force two-norm initial, final = 0.21732407 0.00028280272
  Force max component initial, final = 0.090358699 8.9086695e-05
  Final line search alpha, max atom move = 1.0000000 8.9086695e-05
  Iterations, force evaluations = 155 310

MPI task timing breakdown:
Section |  min time  |  avg time  |  max time  |%varavg| %total
---------------------------------------------------------------
Pair    | 0.87267    | 2.4723     | 3.2399     |  43.6 | 71.62
Neigh   | 0          | 0          | 0          |   0.0 |  0.00
Comm    | 0.053834   | 0.55251    | 1.739      |  66.5 | 16.01
Output  | 0          | 0          | 0          |   0.0 |  0.00
Modify  | 4.7145e-05 | 0.0052271  | 0.011067   |   3.3 |  0.15
Other   |            | 0.422      |            |       | 12.22

Nlocal:        5552.90 ave        7900 max           0 min
Histogram: 4 2 2 0 2 6 4 0 14 18
Nghost:        6213.67 ave        8769 max         412 min
Histogram: 4 0 4 0 8 0 4 5 7 20
Neighs:       158427.0 ave      230210 max           0 min
Histogram: 4 2 2 0 5 3 4 4 12 16

Total # of neighbors = 8238205
Ave neighs/atom = 28.530481
Neighbor list builds = 0
Dangerous builds = 0
Setting atom values ...
  1 settings made for x
  1 settings made for y
  1 settings made for z
Setting up cg style minimization ...
  Unit style    : metal
  Current step  : 394
Per MPI rank memory allocation (min/avg/max) = 5.465 | 6.344 | 6.728 Mbytes
Step PotEng KinEng TotEng v_fx v_fy v_fz 
     394     -1152449            0     -1152449 -0.0010753564 0.0061791653 0.0062062053 
     614     -1152449            0     -1152449 -3.9211753e-05 2.3407553e-06 4.3199087e-05 
Loop time of 4.92933 on 52 procs for 220 steps with 288751 atoms

99.8% CPU use with 52 MPI tasks x 1 OpenMP threads

Minimization stats:
  Stopping criterion = linesearch alpha is zero
  Energy initial, next-to-last, final = 
     -1152448.96773419  -1152448.96986382  -1152448.96986382
  Force two-norm initial, final = 0.14866965 0.00018994525
  Force max component initial, final = 0.075635917 6.1311619e-05
  Final line search alpha, max atom move = 0.25 1.5327905e-05
  Iterations, force evaluations = 220 443

MPI task timing breakdown:
Section |  min time  |  avg time  |  max time  |%varavg| %total
---------------------------------------------------------------
Pair    | 1.2397     | 3.5196     | 4.6238     |  52.0 | 71.40
Neigh   | 0          | 0          | 0          |   0.0 |  0.00
Comm    | 0.077445   | 0.79108    | 2.4752     |  79.1 | 16.05
Output  | 0          | 0          | 0          |   0.0 |  0.00
Modify  | 6.7954e-05 | 0.0074481  | 0.015799   |   4.0 |  0.15
Other   |            | 0.6112     |            |       | 12.40

Nlocal:        5552.90 ave        7899 max           0 min
Histogram: 4 2 2 0 2 6 4 0 14 18
Nghost:        6213.67 ave        8769 max         412 min
Histogram: 4 0 4 0 8 0 4 5 7 20
Neighs:       158427.0 ave      230186 max           0 min
Histogram: 4 2 2 0 5 3 4 4 12 16

Total # of neighbors = 8238198
Ave neighs/atom = 28.530457
Neighbor list builds = 0
Dangerous builds = 0
The dot product: 1.06576628493914e-06
Setting atom values ...
  1 settings made for x
  1 settings made for y
  1 settings made for z
Setting up cg style minimization ...
  Unit style    : metal
  Current step  : 614
Per MPI rank memory allocation (min/avg/max) = 5.465 | 6.344 | 6.728 Mbytes
Step PotEng KinEng TotEng v_fx v_fy v_fz 
     614     -1152449            0     -1152449  0.020202884  0.010506792 -0.0099939343 
     843     -1152449            0     -1152449 -1.2300166e-05 1.2594171e-06 6.9370602e-06 
Loop time of 5.08555 on 52 procs for 229 steps with 288751 atoms

99.9% CPU use with 52 MPI tasks x 1 OpenMP threads

Minimization stats:
  Stopping criterion = linesearch alpha is zero
  Energy initial, next-to-last, final = 
     -1152448.96645044  -1152448.96872735  -1152448.96872735
  Force two-norm initial, final = 0.16582749 7.2411760e-05
  Force max component initial, final = 0.089096569 1.2643781e-05
  Final line search alpha, max atom move = 0.5 6.3218907e-06
  Iterations, force evaluations = 229 459

MPI task timing breakdown:
Section |  min time  |  avg time  |  max time  |%varavg| %total
---------------------------------------------------------------
Pair    | 1.2852     | 3.6675     | 4.7812     |  53.1 | 72.12
Neigh   | 0          | 0          | 0          |   0.0 |  0.00
Comm    | 0.071391   | 0.814      | 2.5736     |  81.9 | 16.01
Output  | 0          | 0          | 0          |   0.0 |  0.00
Modify  | 6.2948e-05 | 0.0077079  | 0.016368   |   4.1 |  0.15
Other   |            | 0.5964     |            |       | 11.73

Nlocal:        5552.90 ave        7898 max           0 min
Histogram: 4 2 2 0 2 6 4 1 13 18
Nghost:        6213.67 ave        8769 max         412 min
Histogram: 4 0 4 0 8 0 4 5 7 20
Neighs:       158427.0 ave      230118 max           0 min
Histogram: 4 2 2 0 5 3 4 4 12 16

Total # of neighbors = 8238206
Ave neighs/atom = 28.530485
Neighbor list builds = 0
Dangerous builds = 0
The dot product: 1.6288885351126e-07
Setting atom values ...
  1 settings made for x
  1 settings made for y
  1 settings made for z
Setting up cg style minimization ...
  Unit style    : metal
  Current step  : 843
Per MPI rank memory allocation (min/avg/max) = 5.465 | 6.344 | 6.728 Mbytes
Step PotEng KinEng TotEng v_fx v_fy v_fz 
     843     -1152449            0     -1152449  0.033696679 0.0016909821 -0.013125835 
    1000   -1152449.2            0   -1152449.2 -0.0019677254 0.00027544377 0.00075265461 
    1169   -1152449.2            0   -1152449.2 -1.7519002e-05 4.4923034e-06 6.6256093e-06 
Loop time of 7.30833 on 52 procs for 326 steps with 288751 atoms

99.8% CPU use with 52 MPI tasks x 1 OpenMP threads

Minimization stats:
  Stopping criterion = linesearch alpha is zero
  Energy initial, next-to-last, final = 
     -1152448.96457431  -1152449.19788833  -1152449.19788833
  Force two-norm initial, final = 0.17666825 0.00014245211
  Force max component initial, final = 0.087543228 3.9888766e-05
  Final line search alpha, max atom move = 0.5 1.9944383e-05
  Iterations, force evaluations = 326 653

MPI task timing breakdown:
Section |  min time  |  avg time  |  max time  |%varavg| %total
---------------------------------------------------------------
Pair    | 1.8772     | 5.2079     | 6.7923     |  62.6 | 71.26
Neigh   | 0.00010135 | 0.029084   | 0.043177   |   7.2 |  0.40
Comm    | 0.11632    | 1.1691     | 3.6768     |  95.9 | 16.00
Output  | 0.00038099 | 0.00038655 | 0.00057319 |   0.0 |  0.01
Modify  | 9.2609e-05 | 0.011034   | 0.023245   |   4.8 |  0.15
Other   |            | 0.8909     |            |       | 12.19

Nlocal:        5552.90 ave        7886 max           0 min
Histogram: 4 2 2 0 2 6 4 1 12 19
Nghost:        6213.50 ave        8771 max         412 min
Histogram: 4 0 4 0 8 0 4 5 7 20
Neighs:       158429.0 ave      229690 max           0 min
Histogram: 4 2 2 0 5 3 4 4 11 17

Total # of neighbors = 8238298
Ave neighs/atom = 28.530803
Neighbor list builds = 5
Dangerous builds = 0
The dot product: 7.58927085488348e-07
Setting atom values ...
  1 settings made for x
  1 settings made for y
  1 settings made for z
Setting up cg style minimization ...
  Unit style    : metal
  Current step  : 1169
Per MPI rank memory allocation (min/avg/max) = 5.465 | 6.344 | 6.728 Mbytes
Step PotEng KinEng TotEng v_fx v_fy v_fz 
    1169   -1152449.2            0   -1152449.2   0.07699858 -0.014075626 0.0017966484 
    1395   -1152449.2            0   -1152449.2 1.0653534e-05 1.1701382e-06 -5.5443035e-08 
Loop time of 5.00899 on 52 procs for 226 steps with 288751 atoms

99.9% CPU use with 52 MPI tasks x 1 OpenMP threads

Minimization stats:
  Stopping criterion = linesearch alpha is zero
  Energy initial, next-to-last, final = 
     -1152449.19698709  -1152449.19965144  -1152449.19965144
  Force two-norm initial, final = 0.21061508 5.3148857e-05
  Force max component initial, final = 0.081123094 1.1397849e-05
  Final line search alpha, max atom move = 0.5 5.6989243e-06
  Iterations, force evaluations = 226 453

MPI task timing breakdown:
Section |  min time  |  avg time  |  max time  |%varavg| %total
---------------------------------------------------------------
Pair    | 1.2649     | 3.607      | 4.7183     |  52.7 | 72.01
Neigh   | 0          | 0          | 0          |   0.0 |  0.00
Comm    | 0.069913   | 0.80441    | 2.5378     |  80.8 | 16.06
Output  | 0          | 0          | 0          |   0.0 |  0.00
Modify  | 7.0276e-05 | 0.0075908  | 0.01616    |   4.0 |  0.15
Other   |            | 0.59       |            |       | 11.78

Nlocal:        5552.90 ave        7888 max           0 min
Histogram: 4 2 2 0 2 6 4 1 12 19
Nghost:        6213.83 ave        8773 max         412 min
Histogram: 4 0 4 0 8 0 4 5 7 20
Neighs:       158429.0 ave      229741 max           0 min
Histogram: 4 2 2 0 5 3 4 4 11 17

Total # of neighbors = 8238332
Ave neighs/atom = 28.530921
Neighbor list builds = 0
Dangerous builds = 0
The dot product: 1.50198435098854e-07
Setting atom values ...
  1 settings made for x
  1 settings made for y
  1 settings made for z
Setting up cg style minimization ...
  Unit style    : metal
  Current step  : 1395
Per MPI rank memory allocation (min/avg/max) = 5.465 | 6.344 | 6.728 Mbytes
Step PotEng KinEng TotEng v_fx v_fy v_fz 
    1395   -1152449.2            0   -1152449.2  0.038554049 -0.0038289328 -0.0040095607 
    1660   -1152449.2            0   -1152449.2 5.0930168e-06 -1.1141411e-06 -4.9266445e-07 
Loop time of 5.86536 on 52 procs for 265 steps with 288751 atoms

99.9% CPU use with 52 MPI tasks x 1 OpenMP threads

Minimization stats:
  Stopping criterion = linesearch alpha is zero
  Energy initial, next-to-last, final = 
     -1152449.19781497  -1152449.20028071  -1152449.20028071
  Force two-norm initial, final = 0.19501272 4.2717205e-05
  Force max component initial, final = 0.085968925 1.2593828e-05
  Final line search alpha, max atom move = 0.5 6.2969140e-06
  Iterations, force evaluations = 265 531

MPI task timing breakdown:
Section |  min time  |  avg time  |  max time  |%varavg| %total
---------------------------------------------------------------
Pair    | 1.4857     | 4.2245     | 5.5271     |  57.1 | 72.02
Neigh   | 0          | 0          | 0          |   0.0 |  0.00
Comm    | 0.090814   | 0.94292    | 2.9657     |  87.2 | 16.08
Output  | 0          | 0          | 0          |   0.0 |  0.00
Modify  | 7.3086e-05 | 0.0089176  | 0.01887    |   4.3 |  0.15
Other   |            | 0.689      |            |       | 11.75

Nlocal:        5552.90 ave        7886 max           0 min
Histogram: 4 2 2 0 2 6 4 1 12 19
Nghost:        6213.83 ave        8773 max         412 min
Histogram: 4 0 4 0 8 0 4 5 7 20
Neighs:       158429.0 ave      229654 max           0 min
Histogram: 4 2 2 0 5 3 4 4 11 17

Total # of neighbors = 8238324
Ave neighs/atom = 28.530893
Neighbor list builds = 0
Dangerous builds = 0
The dot product: -5.5534961426326e-09
Setting atom values ...
  1 settings made for x
  1 settings made for y
  1 settings made for z
Setting up cg style minimization ...
  Unit style    : metal
  Current step  : 1660
Per MPI rank memory allocation (min/avg/max) = 5.465 | 6.344 | 6.728 Mbytes
Step PotEng KinEng TotEng v_fx v_fy v_fz 
    1660   -1152449.2            0   -1152449.2  0.043438642 -5.1702552e-05 -0.0042393085 
    2000   -1152449.4            0   -1152449.4 -0.0001516135 5.2703122e-05 1.2794097e-05 
    2060   -1152449.4            0   -1152449.4 -8.4738454e-06 3.9784668e-06 6.7570148e-07 
Loop time of 8.93136 on 52 procs for 400 steps with 288751 atoms

99.9% CPU use with 52 MPI tasks x 1 OpenMP threads

Minimization stats:
  Stopping criterion = energy tolerance
  Energy initial, next-to-last, final = 
     -1152449.19780568  -1152449.40755153  -1152449.40755153
  Force two-norm initial, final = 0.19760941 0.00012494824
  Force max component initial, final = 0.086221916 2.9574716e-05
  Final line search alpha, max atom move = 1.0000000 2.9574716e-05
  Iterations, force evaluations = 400 800

MPI task timing breakdown:
Section |  min time  |  avg time  |  max time  |%varavg| %total
---------------------------------------------------------------
Pair    | 2.3146     | 6.3945     | 8.3282     |  69.0 | 71.60
Neigh   | 0.00018178 | 0.05251    | 0.076918   |   9.7 |  0.59
Comm    | 0.13139    | 1.4281     | 4.4951     | 107.0 | 15.99
Output  | 0.00054399 | 0.00054956 | 0.0007145  |   0.0 |  0.01
Modify  | 0.00010255 | 0.013443   | 0.028696   |   5.4 |  0.15
Other   |            | 1.042      |            |       | 11.67

Nlocal:        5552.90 ave        7890 max           0 min
Histogram: 4 2 2 0 2 6 4 1 12 19
Nghost:        6214.12 ave        8773 max         412 min
Histogram: 4 0 4 0 8 0 4 5 7 20
Neighs:       158426.0 ave      229583 max           0 min
Histogram: 4 2 2 0 5 3 4 4 11 17

Total # of neighbors = 8238159
Ave neighs/atom = 28.530322
Neighbor list builds = 9
Dangerous builds = 0
The dot product: -6.47991286670969e-07
Setting atom values ...
  1 settings made for x
  1 settings made for y
  1 settings made for z
Setting up cg style minimization ...
  Unit style    : metal
  Current step  : 2060
Per MPI rank memory allocation (min/avg/max) = 5.465 | 6.344 | 6.728 Mbytes
Step PotEng KinEng TotEng v_fx v_fy v_fz 
    2060   -1152449.4            0   -1152449.4  -0.18295272 -5.4084501e-05   0.10488379 
    2268   -1152449.4            0   -1152449.4 -4.8525341e-06 -2.4320547e-07 2.7888246e-06 
Loop time of 4.62105 on 52 procs for 208 steps with 288751 atoms

99.9% CPU use with 52 MPI tasks x 1 OpenMP threads

Minimization stats:
  Stopping criterion = linesearch alpha is zero
  Energy initial, next-to-last, final = 
      -1152449.4150953  -1152449.42284408  -1152449.42284408
  Force two-norm initial, final = 0.28683542 0.00017752093
  Force max component initial, final = 0.18295272 5.1740741e-06
  Final line search alpha, max atom move = 0.25 1.2935185e-06
  Iterations, force evaluations = 208 419

MPI task timing breakdown:
Section |  min time  |  avg time  |  max time  |%varavg| %total
---------------------------------------------------------------
Pair    | 1.1741     | 3.3334     | 4.3621     |  50.7 | 72.13
Neigh   | 0          | 0          | 0          |   0.0 |  0.00
Comm    | 0.066285   | 0.74149    | 2.3379     |  77.6 | 16.05
Output  | 0          | 0          | 0          |   0.0 |  0.00
Modify  | 5.4003e-05 | 0.0071209  | 0.015241   |   3.9 |  0.15
Other   |            | 0.5391     |            |       | 11.67

Nlocal:        5552.90 ave        7890 max           0 min
Histogram: 4 2 2 0 2 6 4 2 11 19
Nghost:        6214.02 ave        8773 max         412 min
Histogram: 4 0 4 0 8 0 4 5 7 20
Neighs:       158427.0 ave      229550 max           0 min
Histogram: 4 2 2 0 5 3 4 4 10 18

Total # of neighbors = 8238194
Ave neighs/atom = 28.530443
Neighbor list builds = 0
Dangerous builds = 0
The dot product: 3.01144611140927e-07
Setting atom values ...
  1 settings made for x
  1 settings made for y
  1 settings made for z
Setting up cg style minimization ...
  Unit style    : metal
  Current step  : 2268
Per MPI rank memory allocation (min/avg/max) = 5.465 | 6.344 | 6.728 Mbytes
Step PotEng KinEng TotEng v_fx v_fy v_fz 
    2268   -1152449.4            0   -1152449.4   0.12877625 -0.0040380978 -0.034596025 
    2481   -1152449.4            0   -1152449.4 -1.2324514e-05 2.7760926e-07 3.3122863e-06 
Loop time of 4.71006 on 52 procs for 213 steps with 288751 atoms

99.9% CPU use with 52 MPI tasks x 1 OpenMP threads

Minimization stats:
  Stopping criterion = linesearch alpha is zero
  Energy initial, next-to-last, final = 
     -1152449.42786375  -1152449.43143572  -1152449.43143572
  Force two-norm initial, final = 0.2423285 7.5842043e-05
  Force max component initial, final = 0.12877625 1.3202086e-05
  Final line search alpha, max atom move = 0.5 6.6010429e-06
  Iterations, force evaluations = 213 427

MPI task timing breakdown:
Section |  min time  |  avg time  |  max time  |%varavg| %total
---------------------------------------------------------------
Pair    | 1.1942     | 3.4115     | 4.4467     |  51.4 | 72.43
Neigh   | 0          | 0          | 0          |   0.0 |  0.00
Comm    | 0.067503   | 0.75624    | 2.4109     |  79.0 | 16.06
Output  | 0          | 0          | 0          |   0.0 |  0.00
Modify  | 6.1554e-05 | 0.0071758  | 0.015297   |   3.9 |  0.15
Other   |            | 0.5351     |            |       | 11.36

Nlocal:        5552.90 ave        7890 max           0 min
Histogram: 4 2 2 0 2 6 4 2 11 19
Nghost:        6214.10 ave        8773 max         412 min
Histogram: 4 0 4 0 8 0 4 5 7 20
Neighs:       158427.0 ave      229528 max           0 min
Histogram: 4 2 2 0 5 3 4 4 10 18

Total # of neighbors = 8238200
Ave neighs/atom = 28.530464
Neighbor list builds = 0
Dangerous builds = 0
The dot product: -3.50078897324312e-07
Setting atom values ...
  1 settings made for x
  1 settings made for y
  1 settings made for z
Setting up cg style minimization ...
  Unit style    : metal
  Current step  : 2481
Per MPI rank memory allocation (min/avg/max) = 5.465 | 6.344 | 6.728 Mbytes
Step PotEng KinEng TotEng v_fx v_fy v_fz 
    2481   -1152449.4            0   -1152449.4  -0.01045697 -0.010549503 0.0044273709 
    2628   -1152449.4            0   -1152449.4 -1.2688097e-05 6.6807992e-06 4.9403038e-06 
Loop time of 3.26521 on 52 procs for 147 steps with 288751 atoms

99.9% CPU use with 52 MPI tasks x 1 OpenMP threads

Minimization stats:
  Stopping criterion = energy tolerance
  Energy initial, next-to-last, final = 
     -1152449.43477278  -1152449.43683535  -1152449.43683535
  Force two-norm initial, final = 0.19958029 0.00019953316
  Force max component initial, final = 0.103372 2.5097996e-05
  Final line search alpha, max atom move = 1.0000000 2.5097996e-05
  Iterations, force evaluations = 147 294

MPI task timing breakdown:
Section |  min time  |  avg time  |  max time  |%varavg| %total
---------------------------------------------------------------
Pair    | 0.82237    | 2.3412     | 3.0619     |  42.4 | 71.70
Neigh   | 0          | 0          | 0          |   0.0 |  0.00
Comm    | 0.047607   | 0.52082    | 1.6474     |  65.0 | 15.95
Output  | 0          | 0          | 0          |   0.0 |  0.00
Modify  | 4.0974e-05 | 0.0049382  | 0.010534   |   3.2 |  0.15
Other   |            | 0.3983     |            |       | 12.20

Nlocal:        5552.90 ave        7890 max           0 min
Histogram: 4 2 2 0 2 6 4 2 11 19
Nghost:        6214.13 ave        8773 max         412 min
Histogram: 4 0 4 0 8 0 4 5 7 20
Neighs:       158427.0 ave      229558 max           0 min
Histogram: 4 2 2 0 5 3 4 4 10 18

Total # of neighbors = 8238198
Ave neighs/atom = 28.530457
Neighbor list builds = 0
Dangerous builds = 0
The dot product: 9.07310162314294e-08
Setting atom values ...
  1 settings made for x
  1 settings made for y
  1 settings made for z
Setting up cg style minimization ...
  Unit style    : metal
  Current step  : 2628
Per MPI rank memory allocation (min/avg/max) = 5.465 | 6.344 | 6.728 Mbytes
Step PotEng KinEng TotEng v_fx v_fy v_fz 
    2628   -1152449.4            0   -1152449.4  0.034083088 -0.00023727886 -0.012451794 
    2796   -1152449.4            0   -1152449.4 -2.8216119e-06 -3.9939357e-07 1.035785e-06 
Loop time of 3.71925 on 52 procs for 168 steps with 288751 atoms

99.9% CPU use with 52 MPI tasks x 1 OpenMP threads

Minimization stats:
  Stopping criterion = energy tolerance
  Energy initial, next-to-last, final = 
     -1152449.43825214  -1152449.44021103  -1152449.44021103
  Force two-norm initial, final = 0.20315097 0.00018249831
  Force max component initial, final = 0.10131423 1.1943884e-05
  Final line search alpha, max atom move = 1.0000000 1.1943884e-05
  Iterations, force evaluations = 168 336

MPI task timing breakdown:
Section |  min time  |  avg time  |  max time  |%varavg| %total
---------------------------------------------------------------
Pair    | 0.93969    | 2.682      | 3.5024     |  45.5 | 72.11
Neigh   | 0          | 0          | 0          |   0.0 |  0.00
Comm    | 0.05442    | 0.59707    | 1.8823     |  69.9 | 16.05
Output  | 0          | 0          | 0          |   0.0 |  0.00
Modify  | 4.2748e-05 | 0.0056404  | 0.012087   |   3.5 |  0.15
Other   |            | 0.4345     |            |       | 11.68

Nlocal:        5552.90 ave        7890 max           0 min
Histogram: 4 2 2 0 2 6 4 2 11 19
Nghost:        6214.08 ave        8773 max         412 min
Histogram: 4 0 4 0 8 0 4 5 7 20
Neighs:       158427.0 ave      229570 max           0 min
Histogram: 4 2 2 0 5 3 4 4 10 18

Total # of neighbors = 8238196
Ave neighs/atom = 28.530450
Neighbor list builds = 0
Dangerous builds = 0
The dot product: -8.21441914975329e-09
Setting atom values ...
  1 settings made for x
  1 settings made for y
  1 settings made for z
Setting up cg style minimization ...
  Unit style    : metal
  Current step  : 2796
Per MPI rank memory allocation (min/avg/max) = 5.465 | 6.344 | 6.728 Mbytes
Step PotEng KinEng TotEng v_fx v_fy v_fz 
    2796   -1152449.4            0   -1152449.4  0.029838692 0.0006969348 -0.011249154 
    2972   -1152449.4            0   -1152449.4 -1.0235434e-05 1.2144066e-06 3.8401681e-06 
Loop time of 3.89434 on 52 procs for 176 steps with 288751 atoms

99.9% CPU use with 52 MPI tasks x 1 OpenMP threads

Minimization stats:
  Stopping criterion = linesearch alpha is zero
  Energy initial, next-to-last, final = 
     -1152449.43966414  -1152449.44161796  -1152449.44161796
  Force two-norm initial, final = 0.20226755 0.00012943618
  Force max component initial, final = 0.099716041 2.9371886e-05
  Final line search alpha, max atom move = 0.5 1.4685943e-05
  Iterations, force evaluations = 176 353

MPI task timing breakdown:
Section |  min time  |  avg time  |  max time  |%varavg| %total
---------------------------------------------------------------
Pair    | 0.99132    | 2.8115     | 3.6761     |  46.7 | 72.19
Neigh   | 0          | 0          | 0          |   0.0 |  0.00
Comm    | 0.055588   | 0.62478    | 1.9798     |  71.2 | 16.04
Output  | 0          | 0          | 0          |   0.0 |  0.00
Modify  | 4.5442e-05 | 0.0059791  | 0.012743   |   3.6 |  0.15
Other   |            | 0.4521     |            |       | 11.61

Nlocal:        5552.90 ave        7890 max           0 min
Histogram: 4 2 2 0 2 6 4 2 11 19
Nghost:        6214.08 ave        8773 max         412 min
Histogram: 4 0 4 0 8 0 4 5 7 20
Neighs:       158427.0 ave      229585 max           0 min
Histogram: 4 2 2 0 5 3 4 4 10 18

Total # of neighbors = 8238199
Ave neighs/atom = 28.530461
Neighbor list builds = 0
Dangerous builds = 0
The dot product: -1.48938120076551e-08
Setting atom values ...
  1 settings made for x
  1 settings made for y
  1 settings made for z
Setting up cg style minimization ...
  Unit style    : metal
  Current step  : 2972
Per MPI rank memory allocation (min/avg/max) = 5.465 | 6.344 | 6.728 Mbytes
Step PotEng KinEng TotEng v_fx v_fy v_fz 
    2972   -1152449.4            0   -1152449.4  0.033395477 0.0019372217  -0.01278578 
    3000   -1152449.4            0   -1152449.4 0.00039622815 -7.7161813e-05 -0.00015036819 
    3121   -1152449.4            0   -1152449.4 -1.0299385e-06 5.9335388e-06 3.1463357e-07 
Loop time of 3.30829 on 52 procs for 149 steps with 288751 atoms

99.9% CPU use with 52 MPI tasks x 1 OpenMP threads

Minimization stats:
  Stopping criterion = energy tolerance
  Energy initial, next-to-last, final = 
     -1152449.43904865  -1152449.44101315  -1152449.44101315
  Force two-norm initial, final = 0.20290143 0.00025240747
  Force max component initial, final = 0.097870579 1.5937889e-05
  Final line search alpha, max atom move = 1.0000000 1.5937889e-05
  Iterations, force evaluations = 149 298

MPI task timing breakdown:
Section |  min time  |  avg time  |  max time  |%varavg| %total
---------------------------------------------------------------
Pair    | 0.83639    | 2.3782     | 3.1081     |  42.8 | 71.89
Neigh   | 0          | 0          | 0          |   0.0 |  0.00
Comm    | 0.052448   | 0.53045    | 1.67       |  65.6 | 16.03
Output  | 0.000367   | 0.00037106 | 0.00051956 |   0.0 |  0.01
Modify  | 3.9218e-05 | 0.0050201  | 0.01066    |   3.3 |  0.15
Other   |            | 0.3942     |            |       | 11.92

Nlocal:        5552.90 ave        7890 max           0 min
Histogram: 4 2 2 0 2 6 4 2 11 19
Nghost:        6214.00 ave        8773 max         412 min
Histogram: 4 0 4 0 8 0 4 5 7 20
Neighs:       158427.0 ave      229588 max           0 min
Histogram: 4 2 2 0 5 3 4 4 10 18

Total # of neighbors = 8238198
Ave neighs/atom = 28.530457
Neighbor list builds = 0
Dangerous builds = 0
The dot product: -9.97304505352651e-10
Setting atom values ...
  1 settings made for x
  1 settings made for y
  1 settings made for z
Setting up cg style minimization ...
  Unit style    : metal
  Current step  : 3121
Per MPI rank memory allocation (min/avg/max) = 5.465 | 6.344 | 6.728 Mbytes
Step PotEng KinEng TotEng v_fx v_fy v_fz 
    3121   -1152449.4            0   -1152449.4    0.0351956  0.000438449 -0.013730291 
    3282   -1152449.4            0   -1152449.4 1.6174321e-06 6.2479714e-07 -6.3949697e-07 
Loop time of 3.60776 on 52 procs for 161 steps with 288751 atoms

99.9% CPU use with 52 MPI tasks x 1 OpenMP threads

Minimization stats:
  Stopping criterion = linesearch alpha is zero
  Energy initial, next-to-last, final = 
     -1152449.43643261  -1152449.43839182  -1152449.43839182
  Force two-norm initial, final = 0.2029859 0.00018931553
  Force max component initial, final = 0.096111999 8.7901176e-06
  Final line search alpha, max atom move = 0.25 2.1975294e-06
  Iterations, force evaluations = 161 327

MPI task timing breakdown:
Section |  min time  |  avg time  |  max time  |%varavg| %total
---------------------------------------------------------------
Pair    | 0.91742    | 2.6008     | 3.4059     |  44.8 | 72.09
Neigh   | 0          | 0          | 0          |   0.0 |  0.00
Comm    | 0.053103   | 0.57944    | 1.8242     |  68.4 | 16.06
Output  | 0          | 0          | 0          |   0.0 |  0.00
Modify  | 4.6611e-05 | 0.0055524  | 0.011732   |   3.5 |  0.15
Other   |            | 0.422      |            |       | 11.70

Nlocal:        5552.90 ave        7889 max           0 min
Histogram: 4 2 2 0 2 6 4 1 12 19
Nghost:        6214.02 ave        8773 max         412 min
Histogram: 4 0 4 0 8 0 4 5 7 20
Neighs:       158427.0 ave      229559 max           0 min
Histogram: 4 2 2 0 5 3 4 4 10 18

Total # of neighbors = 8238200
Ave neighs/atom = 28.530464
Neighbor list builds = 0
Dangerous builds = 0
The dot product: 4.47597081900361e-09
Setting atom values ...
  1 settings made for x
  1 settings made for y
  1 settings made for z
Setting up cg style minimization ...
  Unit style    : metal
  Current step  : 3282
Per MPI rank memory allocation (min/avg/max) = 5.465 | 6.344 | 6.728 Mbytes
Step PotEng KinEng TotEng v_fx v_fy v_fz 
    3282   -1152449.4            0   -1152449.4  0.035522244 -0.0005305767 -0.014170247 
    3469   -1152449.4            0   -1152449.4 1.3857752e-05 -1.6215527e-06 -5.5088818e-06 
Loop time of 4.13603 on 52 procs for 187 steps with 288751 atoms

99.9% CPU use with 52 MPI tasks x 1 OpenMP threads

Minimization stats:
  Stopping criterion = linesearch alpha is zero
  Energy initial, next-to-last, final = 
     -1152449.43180952  -1152449.43375838  -1152449.43375838
  Force two-norm initial, final = 0.20264728 0.00011614184
  Force max component initial, final = 0.098513954 1.9524014e-05
  Final line search alpha, max atom move = 0.5 9.7620072e-06
  Iterations, force evaluations = 187 375

MPI task timing breakdown:
Section |  min time  |  avg time  |  max time  |%varavg| %total
---------------------------------------------------------------
Pair    | 1.0515     | 2.9865     | 3.9048     |  48.2 | 72.21
Neigh   | 0          | 0          | 0          |   0.0 |  0.00
Comm    | 0.057484   | 0.66401    | 2.1069     |  73.5 | 16.05
Output  | 0          | 0          | 0          |   0.0 |  0.00
Modify  | 5.0219e-05 | 0.0063695  | 0.013687   |   3.7 |  0.15
Other   |            | 0.4792     |            |       | 11.58

Nlocal:        5552.90 ave        7889 max           0 min
Histogram: 4 2 2 0 2 6 4 1 12 19
Nghost:        6214.02 ave        8773 max         412 min
Histogram: 4 0 4 0 8 0 4 5 7 20
Neighs:       158427.0 ave      229541 max           0 min
Histogram: 4 2 2 0 5 3 4 4 11 17

Total # of neighbors = 8238198
Ave neighs/atom = 28.530457
Neighbor list builds = 0
Dangerous builds = 0
The dot product: 4.1707241007815e-08
Setting atom values ...
  1 settings made for x
  1 settings made for y
  1 settings made for z
Setting up cg style minimization ...
  Unit style    : metal
  Current step  : 3469
Per MPI rank memory allocation (min/avg/max) = 5.465 | 6.344 | 6.728 Mbytes
Step PotEng KinEng TotEng v_fx v_fy v_fz 
    3469   -1152449.4            0   -1152449.4  0.035415576 -0.0016995734 -0.014436816 
    3638   -1152449.4            0   -1152449.4 -2.3040016e-05 2.5858961e-07 9.4029114e-06 
Loop time of 3.74024 on 52 procs for 169 steps with 288751 atoms

99.9% CPU use with 52 MPI tasks x 1 OpenMP threads

Minimization stats:
  Stopping criterion = energy tolerance
  Energy initial, next-to-last, final = 
     -1152449.42517609  -1152449.42711506  -1152449.42711506
  Force two-norm initial, final = 0.20219007 0.00019110221
  Force max component initial, final = 0.10092567 5.1897730e-05
  Final line search alpha, max atom move = 1.0000000 5.1897730e-05
  Iterations, force evaluations = 169 338

MPI task timing breakdown:
Section |  min time  |  avg time  |  max time  |%varavg| %total
---------------------------------------------------------------
Pair    | 0.9478     | 2.6902     | 3.5237     |  45.6 | 71.92
Neigh   | 0          | 0          | 0          |   0.0 |  0.00
Comm    | 0.05489    | 0.6011     | 1.8855     |  69.6 | 16.07
Output  | 0          | 0          | 0          |   0.0 |  0.00
Modify  | 4.2559e-05 | 0.0057637  | 0.012128   |   3.5 |  0.15
Other   |            | 0.4432     |            |       | 11.85

Nlocal:        5552.90 ave        7889 max           0 min
Histogram: 4 2 2 0 2 6 4 1 12 19
Nghost:        6214.06 ave        8773 max         412 min
Histogram: 4 0 4 0 8 0 4 5 7 20
Neighs:       158427.0 ave      229533 max           0 min
Histogram: 4 2 2 0 5 3 4 4 11 17

Total # of neighbors = 8238201
Ave neighs/atom = 28.530467
Neighbor list builds = 0
Dangerous builds = 0
The dot product: -7.11066898096314e-08
Setting atom values ...
  1 settings made for x
  1 settings made for y
  1 settings made for z
Setting up cg style minimization ...
  Unit style    : metal
  Current step  : 3638
Per MPI rank memory allocation (min/avg/max) = 5.465 | 6.344 | 6.728 Mbytes
Step PotEng KinEng TotEng v_fx v_fy v_fz 
    3638   -1152449.4            0   -1152449.4  0.034990602 -0.0032329912   -0.0145599 
    3792   -1152449.4            0   -1152449.4 -7.5685841e-06 -4.7741987e-06 3.2155573e-06 
Loop time of 3.45856 on 52 procs for 154 steps with 288751 atoms

99.9% CPU use with 52 MPI tasks x 1 OpenMP threads

Minimization stats:
  Stopping criterion = linesearch alpha is zero
  Energy initial, next-to-last, final = 
     -1152449.41654161  -1152449.41846956  -1152449.41846956
  Force two-norm initial, final = 0.20166241 0.00024147446
  Force max component initial, final = 0.1033712 1.2559803e-05
  Final line search alpha, max atom move = 0.125 1.5699754e-06
  Iterations, force evaluations = 154 313

MPI task timing breakdown:
Section |  min time  |  avg time  |  max time  |%varavg| %total
---------------------------------------------------------------
Pair    | 0.87653    | 2.5011     | 3.2626     |  44.0 | 72.32
Neigh   | 0          | 0          | 0          |   0.0 |  0.00
Comm    | 0.050239   | 0.55455    | 1.7646     |  67.6 | 16.03
Output  | 0          | 0          | 0          |   0.0 |  0.00
Modify  | 3.9466e-05 | 0.005269   | 0.011194   |   3.3 |  0.15
Other   |            | 0.3976     |            |       | 11.50

Nlocal:        5552.90 ave        7889 max           0 min
Histogram: 4 2 2 0 2 6 4 1 12 19
Nghost:        6214.02 ave        8772 max         412 min
Histogram: 4 0 4 0 8 0 4 5 7 20
Neighs:       158427.0 ave      229515 max           0 min
Histogram: 4 2 2 0 5 3 4 4 11 17

Total # of neighbors = 8238209
Ave neighs/atom = 28.530495
Neighbor list builds = 0
Dangerous builds = 0
The dot product: -2.22398969942785e-08
Setting atom values ...
  1 settings made for x
  1 settings made for y
  1 settings made for z
Setting up cg style minimization ...
  Unit style    : metal
  Current step  : 3792
Per MPI rank memory allocation (min/avg/max) = 5.465 | 6.344 | 6.728 Mbytes
Step PotEng KinEng TotEng v_fx v_fy v_fz 
    3792   -1152449.4            0   -1152449.4  0.034318159 -0.0051580524 -0.014557421 
    3981   -1152449.4            0   -1152449.4 -1.1739744e-05 -1.4292833e-06 5.0158794e-06 
Loop time of 4.20134 on 52 procs for 189 steps with 288751 atoms

99.9% CPU use with 52 MPI tasks x 1 OpenMP threads

Minimization stats:
  Stopping criterion = energy tolerance
  Energy initial, next-to-last, final = 
     -1152449.40591839  -1152449.40783446  -1152449.40783446
  Force two-norm initial, final = 0.20114486 0.00011071921
  Force max component initial, final = 0.10571594 2.2621184e-05
  Final line search alpha, max atom move = 1.0000000 2.2621184e-05
  Iterations, force evaluations = 189 378

MPI task timing breakdown:
Section |  min time  |  avg time  |  max time  |%varavg| %total
---------------------------------------------------------------
Pair    | 1.057      | 3.0086     | 3.9385     |  48.1 | 71.61
Neigh   | 0          | 0          | 0          |   0.0 |  0.00
Comm    | 0.063171   | 0.67361    | 2.1257     |  73.5 | 16.03
Output  | 0          | 0          | 0          |   0.0 |  0.00
Modify  | 4.7309e-05 | 0.006338   | 0.013507   |   3.7 |  0.15
Other   |            | 0.5128     |            |       | 12.21

Nlocal:        5552.90 ave        7889 max           0 min
Histogram: 4 2 2 0 2 6 4 1 12 19
Nghost:        6214.00 ave        8772 max         412 min
Histogram: 4 0 4 0 8 0 4 5 7 20
Neighs:       158427.0 ave      229515 max           0 min
Histogram: 4 2 2 0 5 3 4 4 11 17

Total # of neighbors = 8238211
Ave neighs/atom = 28.530502
Neighbor list builds = 0
Dangerous builds = 0
The dot product: -3.59802578236125e-08
Setting atom values ...
  1 settings made for x
  1 settings made for y
  1 settings made for z
Setting up cg style minimization ...
  Unit style    : metal
  Current step  : 3981
Per MPI rank memory allocation (min/avg/max) = 5.465 | 6.344 | 6.728 Mbytes
Step PotEng KinEng TotEng v_fx v_fy v_fz 
    3981   -1152449.4            0   -1152449.4  0.033311862 -0.0074934128 -0.014384038 
    4000   -1152449.4            0   -1152449.4 0.00086742414 8.6798153e-06 -0.00037664418 
    4175   -1152449.4            0   -1152449.4 -3.8363866e-06 2.1084341e-07  1.66324e-06 
Loop time of 4.29417 on 52 procs for 194 steps with 288751 atoms

99.9% CPU use with 52 MPI tasks x 1 OpenMP threads

Minimization stats:
  Stopping criterion = linesearch alpha is zero
  Energy initial, next-to-last, final = 
     -1152449.39332347   -1152449.3952268   -1152449.3952268
  Force two-norm initial, final = 0.20063576 0.00010099829
  Force max component initial, final = 0.10805092 5.5399015e-06
  Final line search alpha, max atom move = 0.5 2.7699508e-06
  Iterations, force evaluations = 194 389

MPI task timing breakdown:
Section |  min time  |  avg time  |  max time  |%varavg| %total
---------------------------------------------------------------
Pair    | 1.0885     | 3.1059     | 4.0529     |  49.0 | 72.33
Neigh   | 0          | 0          | 0          |   0.0 |  0.00
Comm    | 0.063675   | 0.68896    | 2.1894     |  75.2 | 16.04
Output  | 0.00020559 | 0.00020956 | 0.00035669 |   0.0 |  0.00
Modify  | 5.7248e-05 | 0.0065485  | 0.013928   |   3.7 |  0.15
Other   |            | 0.4925     |            |       | 11.47

Nlocal:        5552.90 ave        7889 max           0 min
Histogram: 4 2 2 0 2 6 4 1 12 19
Nghost:        6213.88 ave        8771 max         412 min
Histogram: 4 0 4 0 8 0 4 5 7 20
Neighs:       158427.0 ave      229515 max           0 min
Histogram: 4 2 2 0 5 3 4 4 11 17

Total # of neighbors = 8238211
Ave neighs/atom = 28.530502
Neighbor list builds = 0
Dangerous builds = 0
The dot product: -1.19650946866598e-08
Setting atom values ...
  1 settings made for x
  1 settings made for y
  1 settings made for z
Setting up cg style minimization ...
  Unit style    : metal
  Current step  : 4175
Per MPI rank memory allocation (min/avg/max) = 5.465 | 6.344 | 6.728 Mbytes
Step PotEng KinEng TotEng v_fx v_fy v_fz 
    4175   -1152449.4            0   -1152449.4  0.032054361 -0.010291041  -0.01407358 
    4332   -1152449.4            0   -1152449.4 -3.5660549e-05 1.6127813e-06 1.5744641e-05 
Loop time of 3.46519 on 52 procs for 157 steps with 288751 atoms

99.9% CPU use with 52 MPI tasks x 1 OpenMP threads

Minimization stats:
  Stopping criterion = energy tolerance
  Energy initial, next-to-last, final = 
      -1152449.3787792  -1152449.38067056  -1152449.38067056
  Force two-norm initial, final = 0.20020726 0.00025051087
  Force max component initial, final = 0.11031859 3.5660549e-05
  Final line search alpha, max atom move = 1.0000000 3.5660549e-05
  Iterations, force evaluations = 157 314

MPI task timing breakdown:
Section |  min time  |  avg time  |  max time  |%varavg| %total
---------------------------------------------------------------
Pair    | 0.88009    | 2.5037     | 3.2723     |  44.0 | 72.25
Neigh   | 0          | 0          | 0          |   0.0 |  0.00
Comm    | 0.052505   | 0.55617    | 1.7603     |  67.2 | 16.05
Output  | 0          | 0          | 0          |   0.0 |  0.00
Modify  | 3.8308e-05 | 0.0053315  | 0.011207   |   3.4 |  0.15
Other   |            | 0.4        |            |       | 11.54

Nlocal:        5552.90 ave        7889 max           0 min
Histogram: 4 2 2 0 2 6 4 1 12 19
Nghost:        6213.81 ave        8771 max         412 min
Histogram: 4 0 4 0 8 0 4 5 7 20
Neighs:       158427.0 ave      229521 max           0 min
Histogram: 4 2 2 0 5 3 4 4 11 17

Total # of neighbors = 8238211
Ave neighs/atom = 28.530502
Neighbor list builds = 0
Dangerous builds = 0
The dot product: -1.09349918904815e-07
Setting atom values ...
  1 settings made for x
  1 settings made for y
  1 settings made for z
Setting up cg style minimization ...
  Unit style    : metal
  Current step  : 4332
Per MPI rank memory allocation (min/avg/max) = 5.465 | 6.344 | 6.728 Mbytes
Step PotEng KinEng TotEng v_fx v_fy v_fz 
    4332   -1152449.4            0   -1152449.4  0.030595104 -0.013417176 -0.013650783 
    4467   -1152449.4            0   -1152449.4 -1.9057728e-05 5.9908545e-06 8.5197447e-06 
Loop time of 2.98603 on 52 procs for 135 steps with 288751 atoms

99.9% CPU use with 52 MPI tasks x 1 OpenMP threads

Minimization stats:
  Stopping criterion = energy tolerance
  Energy initial, next-to-last, final = 
      -1152449.3623154  -1152449.36419267  -1152449.36419267
  Force two-norm initial, final = 0.19988779 0.00040778572
  Force max component initial, final = 0.11254164 1.9057728e-05
  Final line search alpha, max atom move = 1.0000000 1.9057728e-05
  Iterations, force evaluations = 135 270

MPI task timing breakdown:
Section |  min time  |  avg time  |  max time  |%varavg| %total
---------------------------------------------------------------
Pair    | 0.7563     | 2.1521     | 2.8155     |  40.6 | 72.07
Neigh   | 0          | 0          | 0          |   0.0 |  0.00
Comm    | 0.041412   | 0.48033    | 1.5138     |  62.4 | 16.09
Output  | 0          | 0          | 0          |   0.0 |  0.00
Modify  | 3.5716e-05 | 0.0045349  | 0.0096641  |   3.1 |  0.15
Other   |            | 0.3491     |            |       | 11.69

Nlocal:        5552.90 ave        7889 max           0 min
Histogram: 4 2 2 0 2 6 4 1 12 19
Nghost:        6213.85 ave        8771 max         412 min
Histogram: 4 0 4 0 8 0 4 5 7 20
Neighs:       158427.0 ave      229510 max           0 min
Histogram: 4 2 2 0 5 3 4 4 11 17

Total # of neighbors = 8238210
Ave neighs/atom = 28.530499
Neighbor list builds = 0
Dangerous builds = 0
The dot product: -6.16731527260624e-08
Setting atom values ...
  1 settings made for x
  1 settings made for y
  1 settings made for z
Setting up cg style minimization ...
  Unit style    : metal
  Current step  : 4467
Per MPI rank memory allocation (min/avg/max) = 5.465 | 6.344 | 6.728 Mbytes
Step PotEng KinEng TotEng v_fx v_fy v_fz 
    4467   -1152449.3            0   -1152449.3   0.02991316  -0.01618334 -0.013568338 
    4644   -1152449.3            0   -1152449.3 -5.2029993e-06 7.8942066e-08 2.3719264e-06 
Loop time of 3.92441 on 52 procs for 177 steps with 288751 atoms

99.9% CPU use with 52 MPI tasks x 1 OpenMP threads

Minimization stats:
  Stopping criterion = energy tolerance
  Energy initial, next-to-last, final = 
     -1152449.34397325  -1152449.34582888  -1152449.34582888
  Force two-norm initial, final = 0.19976997 0.00012882183
  Force max component initial, final = 0.11470412 8.0656972e-06
  Final line search alpha, max atom move = 1.0000000 8.0656972e-06
  Iterations, force evaluations = 177 354

MPI task timing breakdown:
Section |  min time  |  avg time  |  max time  |%varavg| %total
---------------------------------------------------------------
Pair    | 0.99958    | 2.8226     | 3.6885     |  46.5 | 71.92
Neigh   | 0          | 0          | 0          |   0.0 |  0.00
Comm    | 0.060493   | 0.62946    | 1.987      |  71.1 | 16.04
Output  | 0          | 0          | 0          |   0.0 |  0.00
Modify  | 4.6517e-05 | 0.0060394  | 0.013036   |   3.6 |  0.15
Other   |            | 0.4663     |            |       | 11.88

Nlocal:        5552.90 ave        7889 max           0 min
Histogram: 4 2 2 0 2 6 4 1 12 19
Nghost:        6213.98 ave        8772 max         412 min
Histogram: 4 0 4 0 8 0 4 5 7 20
Neighs:       158427.0 ave      229509 max           0 min
Histogram: 4 2 2 0 5 3 4 4 11 17

Total # of neighbors = 8238214
Ave neighs/atom = 28.530512
Neighbor list builds = 0
Dangerous builds = 0
The dot product: -1.55309047102278e-08
Setting atom values ...
  1 settings made for x
  1 settings made for y
  1 settings made for z
Setting up cg style minimization ...
  Unit style    : metal
  Current step  : 4644
Per MPI rank memory allocation (min/avg/max) = 5.465 | 6.344 | 6.728 Mbytes
Step PotEng KinEng TotEng v_fx v_fy v_fz 
    4644   -1152449.3            0   -1152449.3   0.02914099 -0.020375274  -0.01345741 
    4788   -1152449.3            0   -1152449.3 1.8895794e-05 -2.0374593e-06 -8.7384071e-06 
Loop time of 3.18954 on 52 procs for 144 steps with 288751 atoms

99.9% CPU use with 52 MPI tasks x 1 OpenMP threads

Minimization stats:
  Stopping criterion = energy tolerance
  Energy initial, next-to-last, final = 
     -1152449.32381685  -1152449.32564938  -1152449.32564938
  Force two-norm initial, final = 0.20005916 0.00028676011
  Force max component initial, final = 0.11688725 1.8895794e-05
  Final line search alpha, max atom move = 1.0000000 1.8895794e-05
  Iterations, force evaluations = 144 288

MPI task timing breakdown:
Section |  min time  |  avg time  |  max time  |%varavg| %total
---------------------------------------------------------------
Pair    | 0.80701    | 2.3012     | 3.0039     |  42.2 | 72.15
Neigh   | 0          | 0          | 0          |   0.0 |  0.00
Comm    | 0.046442   | 0.51059    | 1.6223     |  64.8 | 16.01
Output  | 0          | 0          | 0          |   0.0 |  0.00
Modify  | 4.5203e-05 | 0.0048327  | 0.01032    |   3.2 |  0.15
Other   |            | 0.3729     |            |       | 11.69

Nlocal:        5552.90 ave        7889 max           0 min
Histogram: 4 2 2 0 2 6 4 1 12 19
Nghost:        6213.98 ave        8772 max         412 min
Histogram: 4 0 4 0 8 0 4 5 7 20
Neighs:       158427.0 ave      229499 max           0 min
Histogram: 4 2 2 0 5 3 4 4 11 17

Total # of neighbors = 8238215
Ave neighs/atom = 28.530516
Neighbor list builds = 0
Dangerous builds = 0
The dot product: 6.3595783856004e-08
Setting atom values ...
  1 settings made for x
  1 settings made for y
  1 settings made for z
Setting up cg style minimization ...
  Unit style    : metal
  Current step  : 4788
Per MPI rank memory allocation (min/avg/max) = 5.465 | 6.344 | 6.728 Mbytes
Step PotEng KinEng TotEng v_fx v_fy v_fz 
    4788   -1152449.3            0   -1152449.3  0.027476193 -0.028560207 -0.013030895 
    5000   -1152449.3            0   -1152449.3 -8.7135276e-07 -4.8822649e-07 4.0643259e-07 
    5005   -1152449.3            0   -1152449.3 9.669619e-06 4.1729896e-07 -4.5347366e-06 
Loop time of 4.79821 on 52 procs for 217 steps with 288751 atoms

99.9% CPU use with 52 MPI tasks x 1 OpenMP threads

Minimization stats:
  Stopping criterion = energy tolerance
  Energy initial, next-to-last, final = 
     -1152449.30194925  -1152449.30547389  -1152449.30547389
  Force two-norm initial, final = 0.20134299 0.00010043309
  Force max component initial, final = 0.11908097 9.8230800e-06
  Final line search alpha, max atom move = 1.0000000 9.8230800e-06
  Iterations, force evaluations = 217 434

MPI task timing breakdown:
Section |  min time  |  avg time  |  max time  |%varavg| %total
---------------------------------------------------------------
Pair    | 1.2227     | 3.4547     | 4.5173     |  51.5 | 72.00
Neigh   | 1.9253e-05 | 0.0058025  | 0.008558   |   3.2 |  0.12
Comm    | 0.071123   | 0.76961    | 2.4213     |  78.8 | 16.04
Output  | 0.00021025 | 0.00021469 | 0.00038202 |   0.0 |  0.00
Modify  | 6.2712e-05 | 0.0073543  | 0.015457   |   3.9 |  0.15
Other   |            | 0.5605     |            |       | 11.68

Nlocal:        5552.90 ave        7890 max           0 min
Histogram: 4 2 2 0 2 6 4 1 12 19
Nghost:        6214.00 ave        8772 max         412 min
Histogram: 4 0 4 0 8 0 4 5 7 20
Neighs:       158427.0 ave      229524 max           0 min
Histogram: 4 2 2 0 5 3 4 4 11 17

Total # of neighbors = 8238209
Ave neighs/atom = 28.530495
Neighbor list builds = 1
Dangerous builds = 0
The dot product: -1.76246971690653e-07
Setting atom values ...
  1 settings made for x
  1 settings made for y
  1 settings made for z
Setting up cg style minimization ...
  Unit style    : metal
  Current step  : 5005
Per MPI rank memory allocation (min/avg/max) = 5.465 | 6.344 | 6.728 Mbytes
Step PotEng KinEng TotEng v_fx v_fy v_fz 
    5005   -1152449.3            0   -1152449.3 -0.027101687    -0.204724 -0.023515878 
    5235   -1152449.3            0   -1152449.3 6.2227707e-05 -1.8406731e-05 -3.0504562e-05 
Loop time of 5.16022 on 52 procs for 230 steps with 288751 atoms

99.9% CPU use with 52 MPI tasks x 1 OpenMP threads

Minimization stats:
  Stopping criterion = linesearch alpha is zero
  Energy initial, next-to-last, final = 
     -1152449.28394502  -1152449.33947605  -1152449.33947605
  Force two-norm initial, final = 0.28316152 0.00020014982
  Force max component initial, final = 0.204724 6.2227707e-05
  Final line search alpha, max atom move = 0.25 1.5556927e-05
  Iterations, force evaluations = 230 464

MPI task timing breakdown:
Section |  min time  |  avg time  |  max time  |%varavg| %total
---------------------------------------------------------------
Pair    | 1.3275     | 3.7149     | 4.8325     |  53.1 | 71.99
Neigh   | 4.0545e-05 | 0.011618   | 0.01705    |   4.6 |  0.23
Comm    | 0.082655   | 0.82584    | 2.6202     |  81.8 | 16.00
Output  | 0          | 0          | 0          |   0.0 |  0.00
Modify  | 5.8455e-05 | 0.0078403  | 0.016651   |   4.1 |  0.15
Other   |            | 0.6        |            |       | 11.63

Nlocal:        5552.90 ave        7889 max           0 min
Histogram: 4 2 2 0 2 6 4 1 12 19
Nghost:        6213.98 ave        8772 max         412 min
Histogram: 4 0 4 0 8 0 4 5 7 20
Neighs:       158427.0 ave      229489 max           0 min
Histogram: 4 2 2 0 5 3 4 4 11 17

Total # of neighbors = 8238195
Ave neighs/atom = 28.530447
Neighbor list builds = 2
Dangerous builds = 0
The dot product: -5.63246503491057e-07
Setting atom values ...
  1 settings made for x
  1 settings made for y
  1 settings made for z
Setting up cg style minimization ...
  Unit style    : metal
  Current step  : 5235
Per MPI rank memory allocation (min/avg/max) = 5.465 | 6.344 | 6.728 Mbytes
Step PotEng KinEng TotEng v_fx v_fy v_fz 
    5235   -1152449.3            0   -1152449.3 -0.039368767  -0.10925737 -0.062259743 
    5408   -1152449.3            0   -1152449.3 -1.3469615e-05 4.0845063e-06 6.4261336e-06 
Loop time of 3.85269 on 52 procs for 173 steps with 288751 atoms

99.9% CPU use with 52 MPI tasks x 1 OpenMP threads

Minimization stats:
  Stopping criterion = linesearch alpha is zero
  Energy initial, next-to-last, final = 
     -1152449.33442809  -1152449.33644887  -1152449.33644887
  Force two-norm initial, final = 0.19570155 0.00017511725
  Force max component initial, final = 0.10925737 3.2743778e-05
  Final line search alpha, max atom move = 0.25 8.1859444e-06
  Iterations, force evaluations = 173 349

MPI task timing breakdown:
Section |  min time  |  avg time  |  max time  |%varavg| %total
---------------------------------------------------------------
Pair    | 0.97426    | 2.7755     | 3.636      |  46.2 | 72.04
Neigh   | 0          | 0          | 0          |   0.0 |  0.00
Comm    | 0.053803   | 0.61991    | 1.9428     |  71.0 | 16.09
Output  | 0          | 0          | 0          |   0.0 |  0.00
Modify  | 4.4613e-05 | 0.0058478  | 0.012446   |   3.5 |  0.15
Other   |            | 0.4515     |            |       | 11.72

Nlocal:        5552.90 ave        7892 max           0 min
Histogram: 4 2 2 0 2 6 4 2 11 19
Nghost:        6214.02 ave        8773 max         412 min
Histogram: 4 0 4 0 8 0 4 5 7 20
Neighs:       158427.0 ave      229615 max           0 min
Histogram: 4 2 2 0 5 3 4 4 10 18

Total # of neighbors = 8238189
Ave neighs/atom = 28.530426
Neighbor list builds = 0
Dangerous builds = 0
The dot product: 4.50487509272821e-09
Setting atom values ...
  1 settings made for x
  1 settings made for y
  1 settings made for z
Setting up cg style minimization ...
  Unit style    : metal
  Current step  : 5408
Per MPI rank memory allocation (min/avg/max) = 5.465 | 6.344 | 6.728 Mbytes
Step PotEng KinEng TotEng v_fx v_fy v_fz 
    5408   -1152449.3            0   -1152449.3 -0.0094896253 -0.054417783 -0.036081502 
    5583   -1152449.3            0   -1152449.3 -2.6645969e-05 -9.0153132e-06 5.8011246e-07 
Loop time of 3.86427 on 52 procs for 175 steps with 288751 atoms

99.9% CPU use with 52 MPI tasks x 1 OpenMP threads

Minimization stats:
  Stopping criterion = energy tolerance
  Energy initial, next-to-last, final = 
     -1152449.33021845  -1152449.33139065  -1152449.33139065
  Force two-norm initial, final = 0.15580034 0.00015082251
  Force max component initial, final = 0.061804018 2.6645969e-05
  Final line search alpha, max atom move = 1.0000000 2.6645969e-05
  Iterations, force evaluations = 175 350

MPI task timing breakdown:
Section |  min time  |  avg time  |  max time  |%varavg| %total
---------------------------------------------------------------
Pair    | 0.98062    | 2.7979     | 3.6467     |  46.5 | 72.40
Neigh   | 0          | 0          | 0          |   0.0 |  0.00
Comm    | 0.058059   | 0.62144    | 1.9797     |  71.6 | 16.08
Output  | 0          | 0          | 0          |   0.0 |  0.00
Modify  | 4.3084e-05 | 0.0058989  | 0.012477   |   3.5 |  0.15
Other   |            | 0.4391     |            |       | 11.36

Nlocal:        5552.90 ave        7891 max           0 min
Histogram: 4 2 2 0 2 6 4 1 12 19
Nghost:        6214.02 ave        8773 max         412 min
Histogram: 4 0 4 0 8 0 4 5 7 20
Neighs:       158427.0 ave      229583 max           0 min
Histogram: 4 2 2 0 5 3 4 4 11 17

Total # of neighbors = 8238186
Ave neighs/atom = 28.530415
Neighbor list builds = 0
Dangerous builds = 0
The dot product: 7.62522422988063e-08
Setting atom values ...
  1 settings made for x
  1 settings made for y
  1 settings made for z
Setting up cg style minimization ...
  Unit style    : metal
  Current step  : 5583
Per MPI rank memory allocation (min/avg/max) = 5.465 | 6.344 | 6.728 Mbytes
Step PotEng KinEng TotEng v_fx v_fy v_fz 
    5583   -1152449.3            0   -1152449.3 -0.0076042772  -0.04988482 -0.033899066 
    5730   -1152449.3            0   -1152449.3 -6.6963339e-05 3.6824743e-05 4.3864692e-05 
Loop time of 3.24509 on 52 procs for 147 steps with 288751 atoms

99.9% CPU use with 52 MPI tasks x 1 OpenMP threads

Minimization stats:
  Stopping criterion = energy tolerance
  Energy initial, next-to-last, final = 
     -1152449.32371616  -1152449.32484192  -1152449.32484192
  Force two-norm initial, final = 0.15213822 0.0002913444
  Force max component initial, final = 0.059872652 7.3784243e-05
  Final line search alpha, max atom move = 1.0000000 7.3784243e-05
  Iterations, force evaluations = 147 294

MPI task timing breakdown:
Section |  min time  |  avg time  |  max time  |%varavg| %total
---------------------------------------------------------------
Pair    | 0.82334    | 2.3451     | 3.0642     |  42.6 | 72.26
Neigh   | 0          | 0          | 0          |   0.0 |  0.00
Comm    | 0.047904   | 0.52167    | 1.6543     |  65.1 | 16.08
Output  | 0          | 0          | 0          |   0.0 |  0.00
Modify  | 3.9061e-05 | 0.0049653  | 0.010495   |   3.2 |  0.15
Other   |            | 0.3734     |            |       | 11.51

Nlocal:        5552.90 ave        7891 max           0 min
Histogram: 4 2 2 0 2 6 4 1 12 19
Nghost:        6214.02 ave        8773 max         412 min
Histogram: 4 0 4 0 8 0 4 5 7 20
Neighs:       158427.0 ave      229579 max           0 min
Histogram: 4 2 2 0 5 3 4 4 11 17

Total # of neighbors = 8238188
Ave neighs/atom = 28.530422
Neighbor list builds = 0
Dangerous builds = 0
The dot product: -1.234154406484e-07
Setting atom values ...
  1 settings made for x
  1 settings made for y
  1 settings made for z
Setting up cg style minimization ...
  Unit style    : metal
  Current step  : 5730
Per MPI rank memory allocation (min/avg/max) = 5.465 | 6.344 | 6.728 Mbytes
Step PotEng KinEng TotEng v_fx v_fy v_fz 
    5730   -1152449.3            0   -1152449.3 -0.0073977722 -0.048563503 -0.033410081 
    5898   -1152449.3            0   -1152449.3 -1.6901638e-05 -1.6189281e-05 -7.4059977e-06 
Loop time of 3.74254 on 52 procs for 168 steps with 288751 atoms

99.9% CPU use with 52 MPI tasks x 1 OpenMP threads

Minimization stats:
  Stopping criterion = linesearch alpha is zero
  Energy initial, next-to-last, final = 
     -1152449.31569119   -1152449.3167952   -1152449.3167952
  Force two-norm initial, final = 0.15036734 0.00018406195
  Force max component initial, final = 0.057934815 2.3950358e-05
  Final line search alpha, max atom move = 0.25 5.9875896e-06
  Iterations, force evaluations = 168 339

MPI task timing breakdown:
Section |  min time  |  avg time  |  max time  |%varavg| %total
---------------------------------------------------------------
Pair    | 0.94622    | 2.6994     | 3.5321     |  45.6 | 72.13
Neigh   | 0          | 0          | 0          |   0.0 |  0.00
Comm    | 0.053618   | 0.60286    | 1.908      |  69.9 | 16.11
Output  | 0          | 0          | 0          |   0.0 |  0.00
Modify  | 4.3511e-05 | 0.0056885  | 0.012142   |   3.5 |  0.15
Other   |            | 0.4346     |            |       | 11.61

Nlocal:        5552.90 ave        7891 max           0 min
Histogram: 4 2 2 0 2 6 4 1 12 19
Nghost:        6214.04 ave        8773 max         412 min
Histogram: 4 0 4 0 8 0 4 5 7 20
Neighs:       158427.0 ave      229557 max           0 min
Histogram: 4 2 2 0 5 3 4 4 11 17

Total # of neighbors = 8238189
Ave neighs/atom = 28.530426
Neighbor list builds = 0
Dangerous builds = 0
The dot product: 7.69070327506509e-08
Setting atom values ...
  1 settings made for x
  1 settings made for y
  1 settings made for z
Setting up cg style minimization ...
  Unit style    : metal
  Current step  : 5898
Per MPI rank memory allocation (min/avg/max) = 5.465 | 6.344 | 6.728 Mbytes
Step PotEng KinEng TotEng v_fx v_fy v_fz 
    5898   -1152449.3            0   -1152449.3 -0.0067561041 -0.047464511 -0.033146593 
    6000   -1152449.3            0   -1152449.3 -3.0610599e-05 3.3275584e-05 3.2342385e-05 
    6088   -1152449.3            0   -1152449.3 1.924443e-06 -9.0117009e-06 -7.1193643e-06 
Loop time of 4.19256 on 52 procs for 190 steps with 288751 atoms

99.9% CPU use with 52 MPI tasks x 1 OpenMP threads

Minimization stats:
  Stopping criterion = energy tolerance
  Energy initial, next-to-last, final = 
     -1152449.30614149  -1152449.30723003  -1152449.30723003
  Force two-norm initial, final = 0.14904321 0.00010118416
  Force max component initial, final = 0.055966782 1.1587532e-05
  Final line search alpha, max atom move = 1.0000000 1.1587532e-05
  Iterations, force evaluations = 190 380

MPI task timing breakdown:
Section |  min time  |  avg time  |  max time  |%varavg| %total
---------------------------------------------------------------
Pair    | 1.0679     | 3.0243     | 3.9558     |  48.3 | 72.14
Neigh   | 0          | 0          | 0          |   0.0 |  0.00
Comm    | 0.061954   | 0.67346    | 2.1301     |  73.6 | 16.06
Output  | 0.00032991 | 0.0003346  | 0.00049092 |   0.0 |  0.01
Modify  | 4.7828e-05 | 0.0064449  | 0.013632   |   3.7 |  0.15
Other   |            | 0.488      |            |       | 11.64

Nlocal:        5552.90 ave        7891 max           0 min
Histogram: 4 2 2 0 2 6 4 1 12 19
Nghost:        6214.04 ave        8773 max         412 min
Histogram: 4 0 4 0 8 0 4 5 7 20
Neighs:       158427.0 ave      229568 max           0 min
Histogram: 4 2 2 0 5 3 4 4 11 17

Total # of neighbors = 8238189
Ave neighs/atom = 28.530426
Neighbor list builds = 0
Dangerous builds = 0
The dot product: 3.62771107228284e-08
Setting atom values ...
  1 settings made for x
  1 settings made for y
  1 settings made for z
Setting up cg style minimization ...
  Unit style    : metal
  Current step  : 6088
Per MPI rank memory allocation (min/avg/max) = 5.465 | 6.344 | 6.728 Mbytes
Step PotEng KinEng TotEng v_fx v_fy v_fz 
    6088   -1152449.3            0   -1152449.3 -0.0056979356 -0.046289239 -0.032897124 
    6233   -1152449.3            0   -1152449.3 4.8898287e-05 -1.8187637e-05 -2.6059754e-05 
Loop time of 3.20458 on 52 procs for 145 steps with 288751 atoms

99.9% CPU use with 52 MPI tasks x 1 OpenMP threads

Minimization stats:
  Stopping criterion = energy tolerance
  Energy initial, next-to-last, final = 
     -1152449.29504631  -1152449.29612159  -1152449.29612159
  Force two-norm initial, final = 0.14787474 0.0003284387
  Force max component initial, final = 0.054005963 6.0351358e-05
  Final line search alpha, max atom move = 1.0000000 6.0351358e-05
  Iterations, force evaluations = 145 290

MPI task timing breakdown:
Section |  min time  |  avg time  |  max time  |%varavg| %total
---------------------------------------------------------------
Pair    | 0.80859    | 2.3093     | 3.0241     |  42.2 | 72.06
Neigh   | 0          | 0          | 0          |   0.0 |  0.00
Comm    | 0.04403    | 0.51602    | 1.6328     |  64.8 | 16.10
Output  | 0          | 0          | 0          |   0.0 |  0.00
Modify  | 4.0308e-05 | 0.0048638  | 0.010318   |   3.2 |  0.15
Other   |            | 0.3744     |            |       | 11.68

Nlocal:        5552.90 ave        7890 max           0 min
Histogram: 4 2 2 0 2 6 4 1 12 19
Nghost:        6214.02 ave        8773 max         412 min
Histogram: 4 0 4 0 8 0 4 5 7 20
Neighs:       158427.0 ave      229547 max           0 min
Histogram: 4 2 2 0 5 3 4 4 11 17

Total # of neighbors = 8238189
Ave neighs/atom = 28.530426
Neighbor list builds = 0
Dangerous builds = 0
The dot product: 6.01320469055376e-08
Setting atom values ...
  1 settings made for x
  1 settings made for y
  1 settings made for z
Setting up cg style minimization ...
  Unit style    : metal
  Current step  : 6233
Per MPI rank memory allocation (min/avg/max) = 5.465 | 6.344 | 6.728 Mbytes
Step PotEng KinEng TotEng v_fx v_fy v_fz 
    6233   -1152449.3            0   -1152449.3 -0.0041894538 -0.045190369 -0.032787776 
    6413   -1152449.3            0   -1152449.3 -2.7492772e-05 3.0387613e-05 2.9817898e-05 
Loop time of 3.99321 on 52 procs for 180 steps with 288751 atoms

99.9% CPU use with 52 MPI tasks x 1 OpenMP threads

Minimization stats:
  Stopping criterion = linesearch alpha is zero
  Energy initial, next-to-last, final = 
     -1152449.28238184   -1152449.2834465   -1152449.2834465
  Force two-norm initial, final = 0.14695355 0.00014935256
  Force max component initial, final = 0.052043559 4.1410119e-05
  Final line search alpha, max atom move = 0.5 2.0705060e-05
  Iterations, force evaluations = 180 361

MPI task timing breakdown:
Section |  min time  |  avg time  |  max time  |%varavg| %total
---------------------------------------------------------------
Pair    | 1.0129     | 2.8727     | 3.7605     |  47.1 | 71.94
Neigh   | 0          | 0          | 0          |   0.0 |  0.00
Comm    | 0.058644   | 0.64303    | 2.0176     |  71.7 | 16.10
Output  | 0          | 0          | 0          |   0.0 |  0.00
Modify  | 4.4312e-05 | 0.0061165  | 0.012917   |   3.6 |  0.15
Other   |            | 0.4714     |            |       | 11.80

Nlocal:        5552.90 ave        7890 max           0 min
Histogram: 4 2 2 0 2 6 4 1 12 19
Nghost:        6214.02 ave        8773 max         412 min
Histogram: 4 0 4 0 8 0 4 5 7 20
Neighs:       158427.0 ave      229554 max           0 min
Histogram: 4 2 2 0 5 3 4 4 11 17

Total # of neighbors = 8238188
Ave neighs/atom = 28.530422
Neighbor list builds = 0
Dangerous builds = 0
The dot product: -1.15083431043641e-07
Setting atom values ...
  1 settings made for x
  1 settings made for y
  1 settings made for z
Setting up cg style minimization ...
  Unit style    : metal
  Current step  : 6413
Per MPI rank memory allocation (min/avg/max) = 5.465 | 6.344 | 6.728 Mbytes
Step PotEng KinEng TotEng v_fx v_fy v_fz 
    6413   -1152449.3            0   -1152449.3 -0.0024201506 -0.044162403 -0.032763547 
    6595   -1152449.3            0   -1152449.3 -2.6802552e-05 -2.2102465e-05 -9.8429524e-06 
Loop time of 4.05796 on 52 procs for 182 steps with 288751 atoms

99.8% CPU use with 52 MPI tasks x 1 OpenMP threads

Minimization stats:
  Stopping criterion = energy tolerance
  Energy initial, next-to-last, final = 
     -1152449.26813198  -1152449.26918517  -1152449.26918517
  Force two-norm initial, final = 0.14617678 0.00014414434
  Force max component initial, final = 0.050037944 2.8735512e-05
  Final line search alpha, max atom move = 1.0000000 2.8735512e-05
  Iterations, force evaluations = 182 364

MPI task timing breakdown:
Section |  min time  |  avg time  |  max time  |%varavg| %total
---------------------------------------------------------------
Pair    | 1.0237     | 2.9176     | 3.8082     |  47.6 | 71.90
Neigh   | 0          | 0          | 0          |   0.0 |  0.00
Comm    | 0.06439    | 0.64975    | 2.072      |  72.5 | 16.01
Output  | 0          | 0          | 0          |   0.0 |  0.00
Modify  | 4.5152e-05 | 0.0061322  | 0.01302    |   3.6 |  0.15
Other   |            | 0.4845     |            |       | 11.94

Nlocal:        5552.90 ave        7890 max           0 min
Histogram: 4 2 2 0 2 6 4 1 12 19
Nghost:        6214.06 ave        8773 max         412 min
Histogram: 4 0 4 0 8 0 4 5 7 20
Neighs:       158427.0 ave      229556 max           0 min
Histogram: 4 2 2 0 5 3 4 4 11 17

Total # of neighbors = 8238189
Ave neighs/atom = 28.530426
Neighbor list builds = 0
Dangerous builds = 0
The dot product: 8.42007297944733e-08
Setting atom values ...
  1 settings made for x
  1 settings made for y
  1 settings made for z
Setting up cg style minimization ...
  Unit style    : metal
  Current step  : 6595
Per MPI rank memory allocation (min/avg/max) = 5.465 | 6.344 | 6.728 Mbytes
Step PotEng KinEng TotEng v_fx v_fy v_fz 
    6595   -1152449.3            0   -1152449.3 -0.00032168864 -0.043557352 -0.033121725 
    6829   -1152449.3            0   -1152449.3 -3.6383665e-06 -2.3273701e-06 -8.4200734e-07 
Loop time of 5.16831 on 52 procs for 234 steps with 288751 atoms

99.9% CPU use with 52 MPI tasks x 1 OpenMP threads

Minimization stats:
  Stopping criterion = energy tolerance
  Energy initial, next-to-last, final = 
     -1152449.25228196  -1152449.25332383  -1152449.25332383
  Force two-norm initial, final = 0.14580153 1.9032545e-05
  Force max component initial, final = 0.048030819 3.6383665e-06
  Final line search alpha, max atom move = 1.0000000 3.6383665e-06
  Iterations, force evaluations = 234 468

MPI task timing breakdown:
Section |  min time  |  avg time  |  max time  |%varavg| %total
---------------------------------------------------------------
Pair    | 1.3066     | 3.7202     | 4.8745     |  53.5 | 71.98
Neigh   | 0          | 0          | 0          |   0.0 |  0.00
Comm    | 0.072681   | 0.8323     | 2.6106     |  81.7 | 16.10
Output  | 0          | 0          | 0          |   0.0 |  0.00
Modify  | 5.9373e-05 | 0.0078474  | 0.016724   |   4.1 |  0.15
Other   |            | 0.6079     |            |       | 11.76

Nlocal:        5552.90 ave        7889 max           0 min
Histogram: 4 2 2 0 2 6 4 1 12 19
Nghost:        6214.02 ave        8773 max         412 min
Histogram: 4 0 4 0 8 0 4 5 7 20
Neighs:       158427.0 ave      229526 max           0 min
Histogram: 4 2 2 0 5 3 4 4 11 17

Total # of neighbors = 8238189
Ave neighs/atom = 28.530426
Neighbor list builds = 0
Dangerous builds = 0
The dot product: 8.25399775306489e-09
Setting atom values ...
  1 settings made for x
  1 settings made for y
  1 settings made for z
Setting up cg style minimization ...
  Unit style    : metal
  Current step  : 6829
Per MPI rank memory allocation (min/avg/max) = 5.465 | 6.344 | 6.728 Mbytes
Step PotEng KinEng TotEng v_fx v_fy v_fz 
    6829   -1152449.2            0   -1152449.2 0.0020299467 -0.043422313 -0.033892616 
    7000   -1152449.2            0   -1152449.2 -1.5698303e-05 -1.430461e-05 -6.9666051e-06 
    7027   -1152449.2            0   -1152449.2 2.0105512e-05 -1.2780706e-05 -1.4980181e-05 
Loop time of 4.36669 on 52 procs for 198 steps with 288751 atoms

99.9% CPU use with 52 MPI tasks x 1 OpenMP threads

Minimization stats:
  Stopping criterion = energy tolerance
  Energy initial, next-to-last, final = 
      -1152449.2348252  -1152449.23585269  -1152449.23585269
  Force two-norm initial, final = 0.14567752 0.00010475348
  Force max component initial, final = 0.046989061 2.6301530e-05
  Final line search alpha, max atom move = 1.0000000 2.6301530e-05
  Iterations, force evaluations = 198 396

MPI task timing breakdown:
Section |  min time  |  avg time  |  max time  |%varavg| %total
---------------------------------------------------------------
Pair    | 1.1086     | 3.1584     | 4.1226     |  49.4 | 72.33
Neigh   | 0          | 0          | 0          |   0.0 |  0.00
Comm    | 0.059537   | 0.69985    | 2.2331     |  75.8 | 16.03
Output  | 0.00021103 | 0.00021537 | 0.00037985 |   0.0 |  0.00
Modify  | 5.0827e-05 | 0.0066749  | 0.014158   |   3.8 |  0.15
Other   |            | 0.5015     |            |       | 11.49

Nlocal:        5552.90 ave        7889 max           0 min
Histogram: 4 2 2 0 2 6 4 1 12 19
Nghost:        6213.85 ave        8772 max         412 min
Histogram: 4 0 4 0 8 0 4 5 7 20
Neighs:       158427.0 ave      229528 max           0 min
Histogram: 4 2 2 0 5 3 4 4 11 17

Total # of neighbors = 8238188
Ave neighs/atom = 28.530422
Neighbor list builds = 0
Dangerous builds = 0
The dot product: 5.83866391128295e-08
Setting atom values ...
  1 settings made for x
  1 settings made for y
  1 settings made for z
Setting up cg style minimization ...
  Unit style    : metal
  Current step  : 7027
Per MPI rank memory allocation (min/avg/max) = 5.465 | 6.344 | 6.728 Mbytes
Step PotEng KinEng TotEng v_fx v_fy v_fz 
    7027   -1152449.2            0   -1152449.2 0.0046751042 -0.044204336 -0.035453061 
    7234   -1152449.2            0   -1152449.2 -2.3838375e-05 5.9922401e-06 1.077225e-05 
Loop time of 4.58984 on 52 procs for 207 steps with 288751 atoms

99.9% CPU use with 52 MPI tasks x 1 OpenMP threads

Minimization stats:
  Stopping criterion = linesearch alpha is zero
  Energy initial, next-to-last, final = 
     -1152449.21576551  -1152449.21677806  -1152449.21677806
  Force two-norm initial, final = 0.14610093 8.7657902e-05
  Force max component initial, final = 0.050003624 2.9810419e-05
  Final line search alpha, max atom move = 0.5 1.4905209e-05
  Iterations, force evaluations = 207 415

MPI task timing breakdown:
Section |  min time  |  avg time  |  max time  |%varavg| %total
---------------------------------------------------------------
Pair    | 1.1622     | 3.3023     | 4.3191     |  50.5 | 71.95
Neigh   | 0          | 0          | 0          |   0.0 |  0.00
Comm    | 0.067471   | 0.73663    | 2.3195     |  77.0 | 16.05
Output  | 0          | 0          | 0          |   0.0 |  0.00
Modify  | 5.5797e-05 | 0.0070337  | 0.014853   |   3.8 |  0.15
Other   |            | 0.5439     |            |       | 11.85

Nlocal:        5552.90 ave        7887 max           0 min
Histogram: 4 2 2 0 2 6 4 1 12 19
Nghost:        6213.87 ave        8771 max         412 min
Histogram: 4 0 4 0 8 0 4 5 7 20
Neighs:       158427.0 ave      229448 max           0 min
Histogram: 4 2 2 0 4 4 4 4 11 17

Total # of neighbors = 8238189
Ave neighs/atom = 28.530426
Neighbor list builds = 0
Dangerous builds = 0
The dot product: -4.04797253665992e-08
Setting atom values ...
  1 settings made for x
  1 settings made for y
  1 settings made for z
Setting up cg style minimization ...
  Unit style    : metal
  Current step  : 7234
Per MPI rank memory allocation (min/avg/max) = 5.465 | 6.344 | 6.728 Mbytes
Step PotEng KinEng TotEng v_fx v_fy v_fz 
    7234   -1152449.2            0   -1152449.2 0.0075379799  -0.04626572 -0.038101886 
    7453   -1152449.2            0   -1152449.2 3.6511544e-07 2.3472775e-06 1.7401679e-06 
Loop time of 4.84007 on 52 procs for 219 steps with 288751 atoms

99.9% CPU use with 52 MPI tasks x 1 OpenMP threads

Minimization stats:
  Stopping criterion = linesearch alpha is zero
  Energy initial, next-to-last, final = 
     -1152449.19513592  -1152449.19613512  -1152449.19613512
  Force two-norm initial, final = 0.14727605 4.8285905e-05
  Force max component initial, final = 0.053209068 8.1679649e-06
  Final line search alpha, max atom move = 0.5 4.0839824e-06
  Iterations, force evaluations = 219 439

MPI task timing breakdown:
Section |  min time  |  avg time  |  max time  |%varavg| %total
---------------------------------------------------------------
Pair    | 1.2241     | 3.4983     | 4.5729     |  51.9 | 72.28
Neigh   | 0          | 0          | 0          |   0.0 |  0.00
Comm    | 0.064842   | 0.7802     | 2.4674     |  79.6 | 16.12
Output  | 0          | 0          | 0          |   0.0 |  0.00
Modify  | 5.942e-05  | 0.0073511  | 0.015703   |   4.0 |  0.15
Other   |            | 0.5543     |            |       | 11.45

Nlocal:        5552.90 ave        7886 max           0 min
Histogram: 4 2 2 0 2 6 4 1 12 19
Nghost:        6213.94 ave        8772 max         412 min
Histogram: 4 0 4 0 8 0 4 5 7 20
Neighs:       158427.0 ave      229414 max           0 min
Histogram: 4 2 2 0 4 4 4 4 11 17

Total # of neighbors = 8238190
Ave neighs/atom = 28.530429
Neighbor list builds = 0
Dangerous builds = 0
The dot product: -1.15447982978819e-08
Setting atom values ...
  1 settings made for x
  1 settings made for y
  1 settings made for z
Setting up cg style minimization ...
  Unit style    : metal
  Current step  : 7453
Per MPI rank memory allocation (min/avg/max) = 5.465 | 6.344 | 6.728 Mbytes
Step PotEng KinEng TotEng v_fx v_fy v_fz 
    7453   -1152449.2            0   -1152449.2  0.010699488 -0.050418001 -0.042566668 
    7599   -1152449.2            0   -1152449.2 8.0675737e-05 2.3158057e-05 -2.665032e-06 
Loop time of 3.22403 on 52 procs for 146 steps with 288751 atoms

99.9% CPU use with 52 MPI tasks x 1 OpenMP threads

Minimization stats:
  Stopping criterion = energy tolerance
  Energy initial, next-to-last, final = 
     -1152449.17301785  -1152449.17402143  -1152449.17402143
  Force two-norm initial, final = 0.15001672 0.00034217805
  Force max component initial, final = 0.056422879 8.0675737e-05
  Final line search alpha, max atom move = 1.0000000 8.0675737e-05
  Iterations, force evaluations = 146 292

MPI task timing breakdown:
Section |  min time  |  avg time  |  max time  |%varavg| %total
---------------------------------------------------------------
Pair    | 0.81934    | 2.3264     | 3.0434     |  42.4 | 72.16
Neigh   | 0          | 0          | 0          |   0.0 |  0.00
Comm    | 0.048489   | 0.51802    | 1.6286     |  64.6 | 16.07
Output  | 0          | 0          | 0          |   0.0 |  0.00
Modify  | 3.791e-05  | 0.0049604  | 0.010424   |   3.3 |  0.15
Other   |            | 0.3747     |            |       | 11.62

Nlocal:        5552.90 ave        7886 max           0 min
Histogram: 4 2 2 0 2 6 4 1 12 19
Nghost:        6213.98 ave        8772 max         412 min
Histogram: 4 0 4 0 8 0 4 5 7 20
Neighs:       158427.0 ave      229406 max           0 min
Histogram: 4 2 2 0 4 4 4 4 11 17

Total # of neighbors = 8238193
Ave neighs/atom = 28.530440
Neighbor list builds = 0
Dangerous builds = 0
The dot product: -3.10254375706769e-08
Setting atom values ...
  1 settings made for x
  1 settings made for y
  1 settings made for z
Setting up cg style minimization ...
  Unit style    : metal
  Current step  : 7599
Per MPI rank memory allocation (min/avg/max) = 5.465 | 6.344 | 6.728 Mbytes
Step PotEng KinEng TotEng v_fx v_fy v_fz 
    7599   -1152449.1            0   -1152449.1  0.015152848 -0.058854185 -0.051036202 
    7882   -1152449.3            0   -1152449.3 -4.5712928e-07 -1.5957725e-05 -1.2641674e-05 
Loop time of 6.25621 on 52 procs for 283 steps with 288751 atoms

99.9% CPU use with 52 MPI tasks x 1 OpenMP threads

Minimization stats:
  Stopping criterion = energy tolerance
  Energy initial, next-to-last, final = 
     -1152449.14962933  -1152449.31815544  -1152449.31815544
  Force two-norm initial, final = 0.15667277 6.0448664e-05
  Force max component initial, final = 0.059688844 1.5957725e-05
  Final line search alpha, max atom move = 1.0000000 1.5957725e-05
  Iterations, force evaluations = 283 565

MPI task timing breakdown:
Section |  min time  |  avg time  |  max time  |%varavg| %total
---------------------------------------------------------------
Pair    | 1.6022     | 4.5121     | 5.8819     |  58.5 | 72.12
Neigh   | 5.8951e-05 | 0.017528   | 0.025876   |   5.6 |  0.28
Comm    | 0.090704   | 1.0049     | 3.1823     |  90.2 | 16.06
Output  | 0          | 0          | 0          |   0.0 |  0.00
Modify  | 7.5139e-05 | 0.0094658  | 0.02015    |   4.5 |  0.15
Other   |            | 0.7122     |            |       | 11.38

Nlocal:        5552.90 ave        7892 max           0 min
Histogram: 4 2 2 0 2 6 4 1 12 19
Nghost:        6213.98 ave        8772 max         412 min
Histogram: 4 0 4 0 8 0 4 5 7 20
Neighs:       158426.0 ave      229581 max           0 min
Histogram: 4 2 2 0 5 3 4 4 11 17

Total # of neighbors = 8238177
Ave neighs/atom = 28.530384
Neighbor list builds = 3
Dangerous builds = 0
The dot product: 5.51543459006782e-06
Setting atom values ...
  1 settings made for x
  1 settings made for y
  1 settings made for z
Setting up cg style minimization ...
  Unit style    : metal
  Current step  : 7882
Per MPI rank memory allocation (min/avg/max) = 5.465 | 6.344 | 6.728 Mbytes
Step PotEng KinEng TotEng v_fx v_fy v_fz 
    7882   -1152449.3            0   -1152449.3 -0.020020951  0.075366176    0.1298677 
    8000   -1152449.3            0   -1152449.3 0.00014471506 -0.00031696727 -0.00059127345 
    8056   -1152449.3            0   -1152449.3 3.2060834e-05 5.2995643e-05 5.6940745e-05 
Loop time of 3.85282 on 52 procs for 174 steps with 288751 atoms

[...]

Nlocal:        5552.90 ave        7876 max           0 min
Histogram: 4 2 2 0 2 6 4 1 12 19
Nghost:        6213.87 ave        8773 max         412 min
Histogram: 4 0 4 0 8 0 4 5 7 20
Neighs:       158427.0 ave      229125 max           0 min
Histogram: 4 2 2 0 4 4 4 4 10 18

Total # of neighbors = 8238212
Ave neighs/atom = 28.530506
Neighbor list builds = 0
Dangerous builds = 0
The dot product: -1.35019607771757e-07
Setting atom values ...
  1 settings made for x
  1 settings made for y
  1 settings made for z
Setting up cg style minimization ...
  Unit style    : metal
  Current step  : 17063
Per MPI rank memory allocation (min/avg/max) = 5.465 | 6.344 | 6.728 Mbytes
Step PotEng KinEng TotEng v_fx v_fy v_fz 
   17063   -1152448.8            0   -1152448.8 -0.0068219027 -0.026185807 -0.028352158 
   17207   -1152448.8            0   -1152448.8 8.9482733e-06 -9.3568608e-06 -1.9174581e-05 
Loop time of 3.23262 on 52 procs for 144 steps with 288751 atoms

99.9% CPU use with 52 MPI tasks x 1 OpenMP threads

Minimization stats:
  Stopping criterion = linesearch alpha is zero
  Energy initial, next-to-last, final = 
     -1152448.80454122  -1152448.80568135  -1152448.80568135
  Force two-norm initial, final = 0.15249943 0.00024715933
  Force max component initial, final = 0.08140898 4.4962922e-05
  Final line search alpha, max atom move = 0.125 5.6203652e-06
  Iterations, force evaluations = 144 293

MPI task timing breakdown:
Section |  min time  |  avg time  |  max time  |%varavg| %total
---------------------------------------------------------------
Pair    | 0.83069    | 2.3392     | 3.0529     |  42.4 | 72.36
Neigh   | 0          | 0          | 0          |   0.0 |  0.00
Comm    | 0.043961   | 0.52734    | 1.6569     |  64.4 | 16.31
Output  | 0          | 0          | 0          |   0.0 |  0.00
Modify  | 5.2785e-05 | 0.0049439  | 0.010458   |   3.2 |  0.15
Other   |            | 0.3611     |            |       | 11.17

Nlocal:        5552.90 ave        7875 max           0 min
Histogram: 4 2 2 0 2 6 4 1 12 19
Nghost:        6213.81 ave        8773 max         412 min
Histogram: 4 0 4 0 8 0 4 5 7 20
Neighs:       158427.0 ave      229093 max           0 min
Histogram: 4 2 2 0 4 4 4 4 10 18

Total # of neighbors = 8238212
Ave neighs/atom = 28.530506
Neighbor list builds = 0
Dangerous builds = 0
The dot product: 5.61548333448088e-08
Setting atom values ...
  1 settings made for x
  1 settings made for y
  1 settings made for z
Setting up cg style minimization ...
  Unit style    : metal
  Current step  : 17207
Per MPI rank memory allocation (min/avg/max) = 5.465 | 6.344 | 6.728 Mbytes
Step PotEng KinEng TotEng v_fx v_fy v_fz 
   17207   -1152448.8            0   -1152448.8 -0.012445841 -0.037604663  -0.03896314 
   17390   -1152448.8            0   -1152448.8 3.6916909e-05 -3.0764491e-05 -6.9142655e-05 
Loop time of 4.04017 on 52 procs for 183 steps with 288751 atoms

99.9% CPU use with 52 MPI tasks x 1 OpenMP threads

Minimization stats:
  Stopping criterion = energy tolerance
  Energy initial, next-to-last, final = 
     -1152448.76224849  -1152448.76474549  -1152448.76474549
  Force two-norm initial, final = 0.15827056 0.00029509229
  Force max component initial, final = 0.081243015 6.9142655e-05
  Final line search alpha, max atom move = 1.0000000 6.9142655e-05
  Iterations, force evaluations = 183 366

MPI task timing breakdown:
Section |  min time  |  avg time  |  max time  |%varavg| %total
---------------------------------------------------------------
Pair    | 1.0302     | 2.9161     | 3.8143     |  47.1 | 72.18
Neigh   | 0          | 0          | 0          |   0.0 |  0.00
Comm    | 0.055275   | 0.65706    | 2.0643     |  72.0 | 16.26
Output  | 0          | 0          | 0          |   0.0 |  0.00
Modify  | 6.095e-05  | 0.0061393  | 0.013017   |   3.6 |  0.15
Other   |            | 0.4609     |            |       | 11.41

Nlocal:        5552.90 ave        7874 max           0 min
Histogram: 4 2 2 0 2 6 4 1 12 19
Nghost:        6213.81 ave        8773 max         412 min
Histogram: 4 0 4 0 8 0 4 5 7 20
Neighs:       158427.0 ave      229059 max           0 min
Histogram: 4 2 2 0 4 4 4 4 9 19

Total # of neighbors = 8238213
Ave neighs/atom = 28.530509
Neighbor list builds = 0
Dangerous builds = 0
The dot product: 1.72422415426652e-06
Setting atom values ...
  1 settings made for x
  1 settings made for y
  1 settings made for z
Setting up cg style minimization ...
  Unit style    : metal
  Current step  : 17390
Per MPI rank memory allocation (min/avg/max) = 5.465 | 6.344 | 6.728 Mbytes
Step PotEng KinEng TotEng v_fx v_fy v_fz 
   17390   -1152448.7            0   -1152448.7 -0.025726726 -0.060400895 -0.060961907 
   17554   -1152448.7            0   -1152448.7 -6.6088708e-06 1.3006739e-05 2.276264e-05 
Loop time of 3.6692 on 52 procs for 164 steps with 288751 atoms

99.8% CPU use with 52 MPI tasks x 1 OpenMP threads

Minimization stats:
  Stopping criterion = linesearch alpha is zero
  Energy initial, next-to-last, final = 
     -1152448.72374386  -1152448.72611567  -1152448.72611567
  Force two-norm initial, final = 0.17155002 0.00022227953
  Force max component initial, final = 0.081080607 4.4093585e-05
  Final line search alpha, max atom move = 0.25 1.1023396e-05
  Iterations, force evaluations = 164 331

MPI task timing breakdown:
Section |  min time  |  avg time  |  max time  |%varavg| %total
---------------------------------------------------------------
Pair    | 0.93493    | 2.643      | 3.4544     |  45.1 | 72.03
Neigh   | 0          | 0          | 0          |   0.0 |  0.00
Comm    | 0.049534   | 0.59749    | 1.8696     |  68.4 | 16.28
Output  | 0          | 0          | 0          |   0.0 |  0.00
Modify  | 5.4467e-05 | 0.0055926  | 0.01178    |   3.4 |  0.15
Other   |            | 0.4231     |            |       | 11.53

Nlocal:        5552.90 ave        7875 max           0 min
Histogram: 4 2 2 0 2 6 4 1 12 19
Nghost:        6213.83 ave        8773 max         412 min
Histogram: 4 0 4 0 8 0 4 5 7 20
Neighs:       158427.0 ave      229092 max           0 min
Histogram: 4 2 2 0 4 4 4 4 10 18

Total # of neighbors = 8238214
Ave neighs/atom = 28.530512
Neighbor list builds = 0
Dangerous builds = 0
The dot product: -5.59298702036734e-07
Setting atom values ...
  1 settings made for x
  1 settings made for y
  1 settings made for z
Setting up cg style minimization ...
  Unit style    : metal
  Current step  : 17554
Per MPI rank memory allocation (min/avg/max) = 5.465 | 6.344 | 6.728 Mbytes
Step PotEng KinEng TotEng v_fx v_fy v_fz 
   17554   -1152448.7            0   -1152448.7 -0.023851892 -0.052422767  -0.05373057 
   17677   -1152448.7            0   -1152448.7 -2.5403377e-05 -2.6650377e-05 -1.6772854e-05 
Loop time of 2.71785 on 52 procs for 123 steps with 288751 atoms

99.9% CPU use with 52 MPI tasks x 1 OpenMP threads

Minimization stats:
  Stopping criterion = energy tolerance
  Energy initial, next-to-last, final = 
     -1152448.68601285  -1152448.68765406  -1152448.68765406
  Force two-norm initial, final = 0.16307261 0.00038138822
  Force max component initial, final = 0.080651435 3.1302232e-05
  Final line search alpha, max atom move = 1.0000000 3.1302232e-05
  Iterations, force evaluations = 123 246

MPI task timing breakdown:
Section |  min time  |  avg time  |  max time  |%varavg| %total
---------------------------------------------------------------
Pair    | 0.69102    | 1.9598     | 2.5679     |  38.7 | 72.11
Neigh   | 0          | 0          | 0          |   0.0 |  0.00
Comm    | 0.037094   | 0.4406     | 1.3832     |  59.1 | 16.21
Output  | 0          | 0          | 0          |   0.0 |  0.00
Modify  | 4.0927e-05 | 0.0041323  | 0.0087656  |   3.0 |  0.15
Other   |            | 0.3133     |            |       | 11.53

Nlocal:        5552.90 ave        7875 max           0 min
Histogram: 4 2 2 0 2 6 4 1 12 19
Nghost:        6213.83 ave        8773 max         412 min
Histogram: 4 0 4 0 8 0 4 5 7 20
Neighs:       158427.0 ave      229092 max           0 min
Histogram: 4 2 2 0 4 4 4 4 10 18

Total # of neighbors = 8238215
Ave neighs/atom = 28.530516
Neighbor list builds = 0
Dangerous builds = 0
The dot product: 8.00820739400134e-07
Setting atom values ...
  1 settings made for x
  1 settings made for y
  1 settings made for z
Setting up cg style minimization ...
  Unit style    : metal
  Current step  : 17677
Per MPI rank memory allocation (min/avg/max) = 5.465 | 6.344 | 6.728 Mbytes
Step PotEng KinEng TotEng v_fx v_fy v_fz 
   17677   -1152448.6            0   -1152448.6 -0.023446076 -0.048157616 -0.049459617 
   17976   -1152448.7            0   -1152448.7 -3.4138564e-06 8.0689874e-07 3.848906e-06 
Loop time of 6.66517 on 52 procs for 299 steps with 288751 atoms

99.9% CPU use with 52 MPI tasks x 1 OpenMP threads

Minimization stats:
  Stopping criterion = linesearch alpha is zero
  Energy initial, next-to-last, final = 
     -1152448.64786032  -1152448.66788063  -1152448.66788063
  Force two-norm initial, final = 0.1589515 2.0251917e-05
  Force max component initial, final = 0.079932256 5.0804629e-06
  Final line search alpha, max atom move = 0.5 2.5402314e-06
  Iterations, force evaluations = 299 602

MPI task timing breakdown:
Section |  min time  |  avg time  |  max time  |%varavg| %total
---------------------------------------------------------------
Pair    | 1.7182     | 4.8032     | 6.2604     |  60.4 | 72.06
Neigh   | 1.8562e-05 | 0.005843   | 0.0085585  |   3.2 |  0.09
Comm    | 0.092184   | 1.0877     | 3.3895     |  91.8 | 16.32
Output  | 0          | 0          | 0          |   0.0 |  0.00
Modify  | 0.00010511 | 0.01023    | 0.021367   |   4.6 |  0.15
Other   |            | 0.7582     |            |       | 11.38

Nlocal:        5552.90 ave        7876 max           0 min
Histogram: 4 2 2 0 2 6 4 1 12 19
Nghost:        6213.90 ave        8773 max         412 min
Histogram: 4 0 4 0 8 0 4 5 7 20
Neighs:       158428.0 ave      229098 max           0 min
Histogram: 4 2 2 0 4 4 4 4 10 18

Total # of neighbors = 8238233
Ave neighs/atom = 28.530578
Neighbor list builds = 1
Dangerous builds = 0
The dot product: -1.43613352064313e-07
Setting atom values ...
  1 settings made for x
  1 settings made for y
  1 settings made for z
Setting up cg style minimization ...
  Unit style    : metal
  Current step  : 17976
Per MPI rank memory allocation (min/avg/max) = 5.465 | 6.344 | 6.728 Mbytes
Step PotEng KinEng TotEng v_fx v_fy v_fz 
   17976   -1152448.6            0   -1152448.6 -0.056315799 -0.083674787 -0.088518437 
   18000   -1152448.6            0   -1152448.6 -0.00049905611 -0.00016364017 0.00013505683 
   18119   -1152448.6            0   -1152448.6 -5.2274786e-05 -5.2926015e-06 3.299953e-05 
Loop time of 3.22433 on 52 procs for 143 steps with 288751 atoms

99.8% CPU use with 52 MPI tasks x 1 OpenMP threads

Minimization stats:
  Stopping criterion = linesearch alpha is zero
  Energy initial, next-to-last, final = 
     -1152448.64377761   -1152448.6455263   -1152448.6455263
  Force two-norm initial, final = 0.18920398 0.00023239289
  Force max component initial, final = 0.088518437 7.9759452e-05
  Final line search alpha, max atom move = 0.125 9.9699316e-06
  Iterations, force evaluations = 143 291

MPI task timing breakdown:
Section |  min time  |  avg time  |  max time  |%varavg| %total
---------------------------------------------------------------
Pair    | 0.84089    | 2.3186     | 3.0378     |  41.6 | 71.91
Neigh   | 0          | 0          | 0          |   0.0 |  0.00
Comm    | 0.044975   | 0.51946    | 1.6279     |  64.1 | 16.11
Output  | 0.00033529 | 0.00033952 | 0.00051282 |   0.0 |  0.01
Modify  | 4.6255e-05 | 0.0049333  | 0.010466   |   3.2 |  0.15
Other   |            | 0.381      |            |       | 11.82

Nlocal:        5552.90 ave        7885 max           0 min
Histogram: 4 2 2 0 2 6 4 1 12 19
Nghost:        6214.17 ave        8775 max         412 min
Histogram: 4 0 4 0 8 0 4 5 7 20
Neighs:       158427.0 ave      229375 max           0 min
Histogram: 4 2 2 0 4 4 4 4 11 17

Total # of neighbors = 8238219
Ave neighs/atom = 28.530530
Neighbor list builds = 0
Dangerous builds = 0
The dot product: 3.74129917608681e-07
Setting atom values ...
  1 settings made for x
  1 settings made for y
  1 settings made for z
Setting up cg style minimization ...
  Unit style    : metal
  Current step  : 18119
Per MPI rank memory allocation (min/avg/max) = 5.465 | 6.344 | 6.728 Mbytes
Step PotEng KinEng TotEng v_fx v_fy v_fz 
   18119   -1152448.6            0   -1152448.6 -0.029161369 -0.048180246 -0.054934232 
   18263   -1152448.6            0   -1152448.6 -1.1426417e-05 1.0483122e-05 2.5956915e-05 
Loop time of 3.20094 on 52 procs for 144 steps with 288751 atoms

99.9% CPU use with 52 MPI tasks x 1 OpenMP threads

Minimization stats:
  Stopping criterion = energy tolerance
  Energy initial, next-to-last, final = 
     -1152448.62067951  -1152448.62169942  -1152448.62169942
  Force two-norm initial, final = 0.15399842 0.00013736528
  Force max component initial, final = 0.07091204 4.3323806e-05
  Final line search alpha, max atom move = 1.0000000 4.3323806e-05
  Iterations, force evaluations = 144 290

MPI task timing breakdown:
Section |  min time  |  avg time  |  max time  |%varavg| %total
---------------------------------------------------------------
Pair    | 0.82082    | 2.3148     | 3.0201     |  42.1 | 72.32
Neigh   | 0          | 0          | 0          |   0.0 |  0.00
Comm    | 0.043358   | 0.52234    | 1.6342     |  64.2 | 16.32
Output  | 0          | 0          | 0          |   0.0 |  0.00
Modify  | 4.8615e-05 | 0.004897   | 0.010321   |   3.2 |  0.15
Other   |            | 0.3589     |            |       | 11.21

Nlocal:        5552.90 ave        7883 max           0 min
Histogram: 4 2 2 0 2 6 4 1 12 19
Nghost:        6214.17 ave        8775 max         412 min
Histogram: 4 0 4 0 8 0 4 5 7 20
Neighs:       158427.0 ave      229311 max           0 min
Histogram: 4 2 2 0 4 4 4 4 10 18

Total # of neighbors = 8238219
Ave neighs/atom = 28.530530
Neighbor list builds = 0
Dangerous builds = 0
The dot product: -2.18752979500485e-08
Setting atom values ...
  1 settings made for x
  1 settings made for y
  1 settings made for z
Setting up cg style minimization ...
  Unit style    : metal
  Current step  : 18263
Per MPI rank memory allocation (min/avg/max) = 5.465 | 6.344 | 6.728 Mbytes
Step PotEng KinEng TotEng v_fx v_fy v_fz 
   18263   -1152448.6            0   -1152448.6 -0.023236043 -0.043025775 -0.051660069 
   18408   -1152448.6            0   -1152448.6 1.1713322e-05 2.3030474e-05 2.8219756e-05 
Loop time of 3.20126 on 52 procs for 145 steps with 288751 atoms

99.9% CPU use with 52 MPI tasks x 1 OpenMP threads

Minimization stats:
  Stopping criterion = energy tolerance
  Energy initial, next-to-last, final = 
     -1152448.59592213  -1152448.59687256  -1152448.59687256
  Force two-norm initial, final = 0.14875111 0.00024815619
  Force max component initial, final = 0.069651287 2.8219756e-05
  Final line search alpha, max atom move = 1.0000000 2.8219756e-05
  Iterations, force evaluations = 145 290

MPI task timing breakdown:
Section |  min time  |  avg time  |  max time  |%varavg| %total
---------------------------------------------------------------
Pair    | 0.81647    | 2.3078     | 3.0245     |  41.9 | 72.09
Neigh   | 0          | 0          | 0          |   0.0 |  0.00
Comm    | 0.043743   | 0.51956    | 1.6229     |  64.1 | 16.23
Output  | 0          | 0          | 0          |   0.0 |  0.00
Modify  | 5.0024e-05 | 0.0048711  | 0.01032    |   3.2 |  0.15
Other   |            | 0.369      |            |       | 11.53

Nlocal:        5552.90 ave        7881 max           0 min
Histogram: 4 2 2 0 2 6 4 1 12 19
Nghost:        6214.17 ave        8775 max         412 min
Histogram: 4 0 4 0 8 0 4 5 7 20
Neighs:       158427.0 ave      229265 max           0 min
Histogram: 4 2 2 0 4 4 4 4 10 18

Total # of neighbors = 8238221
Ave neighs/atom = 28.530537
Neighbor list builds = 0
Dangerous builds = 0
The dot product: -1.55524047751907e-07
Setting atom values ...
  1 settings made for x
  1 settings made for y
  1 settings made for z
Setting up cg style minimization ...
  Unit style    : metal
  Current step  : 18408
Per MPI rank memory allocation (min/avg/max) = 5.465 | 6.344 | 6.728 Mbytes
Step PotEng KinEng TotEng v_fx v_fy v_fz 
   18408   -1152448.6            0   -1152448.6 -0.019119454 -0.041227435 -0.052225775 
   18589   -1152448.6            0   -1152448.6 1.7735951e-06 9.1870171e-06 1.3577247e-05 
Loop time of 4.00282 on 52 procs for 181 steps with 288751 atoms

99.9% CPU use with 52 MPI tasks x 1 OpenMP threads

Minimization stats:
  Stopping criterion = linesearch alpha is zero
  Energy initial, next-to-last, final = 
     -1152448.57020594  -1152448.57110426  -1152448.57110426
  Force two-norm initial, final = 0.14623727 0.00011297742
  Force max component initial, final = 0.068526682 1.3577247e-05
  Final line search alpha, max atom move = 0.5 6.7886236e-06
  Iterations, force evaluations = 181 363

MPI task timing breakdown:
Section |  min time  |  avg time  |  max time  |%varavg| %total
---------------------------------------------------------------
Pair    | 1.036      | 2.9017     | 3.7786     |  47.1 | 72.49
Neigh   | 0          | 0          | 0          |   0.0 |  0.00
Comm    | 0.055435   | 0.65134    | 2.041      |  71.8 | 16.27
Output  | 0          | 0          | 0          |   0.0 |  0.00
Modify  | 5.8742e-05 | 0.0061837  | 0.012901   |   3.6 |  0.15
Other   |            | 0.4436     |            |       | 11.08

Nlocal:        5552.90 ave        7879 max           0 min
Histogram: 4 2 2 0 2 6 4 1 12 19
Nghost:        6214.13 ave        8775 max         412 min
Histogram: 4 0 4 0 8 0 4 5 7 20
Neighs:       158427.0 ave      229207 max           0 min
Histogram: 4 2 2 0 4 4 4 4 10 18

Total # of neighbors = 8238223
Ave neighs/atom = 28.530544
Neighbor list builds = 0
Dangerous builds = 0
The dot product: -4.9667708205125e-08
Setting atom values ...
  1 settings made for x
  1 settings made for y
  1 settings made for z
Setting up cg style minimization ...
  Unit style    : metal
  Current step  : 18589
Per MPI rank memory allocation (min/avg/max) = 5.465 | 6.344 | 6.728 Mbytes
Step PotEng KinEng TotEng v_fx v_fy v_fz 
   18589   -1152448.5            0   -1152448.5 -0.014065931 -0.039624838 -0.053779208 
   18696   -1152448.5            0   -1152448.5 -2.3689142e-05 -1.4328457e-05 -4.9929468e-06 
Loop time of 2.40331 on 52 procs for 107 steps with 288751 atoms

99.8% CPU use with 52 MPI tasks x 1 OpenMP threads

Minimization stats:
  Stopping criterion = energy tolerance
  Energy initial, next-to-last, final = 
     -1152448.54366032  -1152448.54453408  -1152448.54453408
  Force two-norm initial, final = 0.1444502 0.00026187222
  Force max component initial, final = 0.067729109 7.4778649e-05
  Final line search alpha, max atom move = 1.0000000 7.4778649e-05
  Iterations, force evaluations = 107 216

MPI task timing breakdown:
Section |  min time  |  avg time  |  max time  |%varavg| %total
---------------------------------------------------------------
Pair    | 0.61194    | 1.7253     | 2.2582     |  36.2 | 71.79
Neigh   | 0          | 0          | 0          |   0.0 |  0.00
Comm    | 0.035749   | 0.38833    | 1.2123     |  55.2 | 16.16
Output  | 0          | 0          | 0          |   0.0 |  0.00
Modify  | 3.8424e-05 | 0.0036438  | 0.0077509  |   2.8 |  0.15
Other   |            | 0.2861     |            |       | 11.90

Nlocal:        5552.90 ave        7878 max           0 min
Histogram: 4 2 2 0 2 6 4 1 12 19
Nghost:        6214.13 ave        8775 max         412 min
Histogram: 4 0 4 0 8 0 4 5 7 20
Neighs:       158427.0 ave      229171 max           0 min
Histogram: 4 2 2 0 4 4 4 4 10 18

Total # of neighbors = 8238223
Ave neighs/atom = 28.530544
Neighbor list builds = 0
Dangerous builds = 0
The dot product: 8.85779002225488e-08
