LAMMPS (29 Oct 2020)
OMP_NUM_THREADS environment is not set. Defaulting to 1 thread. (../comm.cpp:94)
  using 1 OpenMP thread(s) per MPI task
OMP_NUM_THREADS environment is not set. Defaulting to 1 thread. (../comm.cpp:94)
  using 1 OpenMP thread(s) per MPI task
Reading data file ...
  orthogonal box = (-122.39241 -121.13707 -37.090501) to (122.39241 121.13707 37.090501)
  13 by 4 by 2 MPI processor grid
  reading atoms ...
  288751 atoms
  read_data CPU = 0.381 seconds
199981 atoms in group inner
88770 atoms in group outer
1 atoms in group carbon
Neighbor list info ...
  update every 1 steps, delay 0 steps, check yes
  max neighbors/atom: 2000, page size: 100000
  master list distance cutoff = 5.6
  ghost atom cutoff = 5.6
  binsize = 2.8, bins = 88 87 27
  1 neighbor lists, perpetual/occasional/extra = 1 0 0
  (1) pair eam/alloy, perpetual
      attributes: half, newton on
      pair build: half/bin/atomonly/newton
      stencil: half/bin/3d/newton
      bin: standard
Setting up cg style minimization ...
  Unit style    : metal
  Current step  : 0
Per MPI rank memory allocation (min/avg/max) = 5.441 | 5.816 | 6.074 Mbytes
Step v_fx v_fy v_fz PotEng KinEng TotEng 
       0    1.7008961   -0.7409166   -2.5076712   -1152447.8            0   -1152447.8 
     169 8.531898e-06 -4.8230947e-08 -1.2795121e-05   -1152449.5            0   -1152449.5 
Loop time of 1.99008 on 104 procs for 169 steps with 288751 atoms

99.8% CPU use with 104 MPI tasks x 1 OpenMP threads

Minimization stats:
  Stopping criterion = energy tolerance
  Energy initial, next-to-last, final = 
     -1152447.78621312  -1152449.45035286  -1152449.45035286
  Force two-norm initial, final = 10.138210 7.9405423e-05
  Force max component initial, final = 6.1632848 1.6679260e-05
  Final line search alpha, max atom move = 1.0000000 1.6679260e-05
  Iterations, force evaluations = 169 337

MPI task timing breakdown:
Section |  min time  |  avg time  |  max time  |%varavg| %total
---------------------------------------------------------------
Pair    | 0.53001    | 1.4224     | 1.8413     |  31.7 | 71.48
Neigh   | 3.1102e-05 | 0.0087857  | 0.012966   |   3.9 |  0.44
Comm    | 0.032838   | 0.32027    | 0.96352    |  47.4 | 16.09
Output  | 0          | 0          | 0          |   0.0 |  0.00
Modify  | 2.0637e-05 | 0.001814   | 0.0047148  |   2.7 |  0.09
Other   |            | 0.2368     |            |       | 11.90

Nlocal:        2776.45 ave        3960 max           0 min
Histogram: 8 4 4 0 4 12 8 2 28 34
Nghost:        3879.02 ave        5424 max         232 min
Histogram: 8 0 8 0 16 0 8 8 16 40
Neighs:        79213.5 ave      115432 max           0 min
Histogram: 8 4 4 0 10 6 8 8 24 32

Total # of neighbors = 8238206
Ave neighs/atom = 28.530485
Neighbor list builds = 3
Dangerous builds = 0
Setting atom values ...
  1 settings made for x
  1 settings made for y
  1 settings made for z
Setting up cg style minimization ...
  Unit style    : metal
  Current step  : 169
Per MPI rank memory allocation (min/avg/max) = 5.441 | 5.816 | 6.074 Mbytes
Step PotEng KinEng TotEng v_fx v_fy v_fz 
     169   -1152449.4            0   -1152449.4  0.012433016  -0.01621645 -0.020775677 
     361   -1152449.5            0   -1152449.5 -6.6003521e-06 2.928086e-06 -7.1081307e-06 
Loop time of 2.2417 on 104 procs for 192 steps with 288751 atoms

99.9% CPU use with 104 MPI tasks x 1 OpenMP threads

Minimization stats:
  Stopping criterion = energy tolerance
  Energy initial, next-to-last, final = 
     -1152449.44947018  -1152449.45002047  -1152449.45002047
  Force two-norm initial, final = 0.10822623 4.6113823e-05
  Force max component initial, final = 0.047633664 7.1081307e-06
  Final line search alpha, max atom move = 1.0000000 7.1081307e-06
  Iterations, force evaluations = 192 384

MPI task timing breakdown:
Section |  min time  |  avg time  |  max time  |%varavg| %total
---------------------------------------------------------------
Pair    | 0.58856    | 1.6215     | 2.1136     |  34.2 | 72.33
Neigh   | 0          | 0          | 0          |   0.0 |  0.00
Comm    | 0.038076   | 0.36322    | 1.1059     |  51.0 | 16.20
Output  | 0          | 0          | 0          |   0.0 |  0.00
Modify  | 2.7335e-05 | 0.003166   | 0.0067675  |   2.7 |  0.14
Other   |            | 0.2538     |            |       | 11.32

Nlocal:        2776.45 ave        3961 max           0 min
Histogram: 8 4 4 0 6 10 8 2 28 34
Nghost:        3879.01 ave        5424 max         232 min
Histogram: 8 0 8 0 16 0 8 8 16 40
Neighs:        79213.4 ave      115455 max           0 min
Histogram: 8 4 4 0 10 6 8 8 24 32

Total # of neighbors = 8238197
Ave neighs/atom = 28.530454
Neighbor list builds = 0
Dangerous builds = 0
Setting atom values ...
  1 settings made for x
  1 settings made for y
  1 settings made for z
Setting up cg style minimization ...
  Unit style    : metal
  Current step  : 361
Per MPI rank memory allocation (min/avg/max) = 5.441 | 5.816 | 6.074 Mbytes
Step PotEng KinEng TotEng v_fx v_fy v_fz 
     361   -1152449.4            0   -1152449.4  0.021628996 -0.023328989 -0.033967351 
     517   -1152449.4            0   -1152449.4 -6.8019925e-06 8.321418e-10 -2.5206635e-05 
Loop time of 1.82241 on 104 procs for 156 steps with 288751 atoms

99.9% CPU use with 104 MPI tasks x 1 OpenMP threads

Minimization stats:
  Stopping criterion = energy tolerance
  Energy initial, next-to-last, final = 
     -1152449.44665666  -1152449.44808452  -1152449.44808452
  Force two-norm initial, final = 0.17480607 9.9669913e-05
  Force max component initial, final = 0.07948906 2.5206635e-05
  Final line search alpha, max atom move = 1.0000000 2.5206635e-05
  Iterations, force evaluations = 156 312

MPI task timing breakdown:
Section |  min time  |  avg time  |  max time  |%varavg| %total
---------------------------------------------------------------
Pair    | 0.48662    | 1.314      | 1.7027     |  30.8 | 72.10
Neigh   | 0          | 0          | 0          |   0.0 |  0.00
Comm    | 0.027409   | 0.29459    | 0.88866    |  45.6 | 16.16
Output  | 0          | 0          | 0          |   0.0 |  0.00
Modify  | 1.9745e-05 | 0.0025698  | 0.0055034  |   2.4 |  0.14
Other   |            | 0.2112     |            |       | 11.59

Nlocal:        2776.45 ave        3960 max           0 min
Histogram: 8 4 4 0 4 12 8 2 28 34
Nghost:        3879.01 ave        5424 max         232 min
Histogram: 8 0 8 0 16 0 8 8 16 40
Neighs:        79213.5 ave      115426 max           0 min
Histogram: 8 4 4 0 10 6 8 8 24 32

Total # of neighbors = 8238199
Ave neighs/atom = 28.530461
Neighbor list builds = 0
Dangerous builds = 0
The dot product: 6.14816719359087e-08
Setting atom values ...
  1 settings made for x
  1 settings made for y
  1 settings made for z
Setting up cg style minimization ...
  Unit style    : metal
  Current step  : 517
Per MPI rank memory allocation (min/avg/max) = 5.441 | 5.816 | 6.074 Mbytes
Step PotEng KinEng TotEng v_fx v_fy v_fz 
     517   -1152449.4            0   -1152449.4  0.020997261 -0.019129468  -0.03218442 
     672   -1152449.4            0   -1152449.4 -3.6706587e-06 3.2888145e-06 5.1080595e-06 
Loop time of 1.80732 on 104 procs for 155 steps with 288751 atoms

99.9% CPU use with 104 MPI tasks x 1 OpenMP threads

Minimization stats:
  Stopping criterion = energy tolerance
  Energy initial, next-to-last, final = 
     -1152449.44327805  -1152449.44465919  -1152449.44465919
  Force two-norm initial, final = 0.17158614 2.5136705e-05
  Force max component initial, final = 0.079133077 5.1080595e-06
  Final line search alpha, max atom move = 1.0000000 5.1080595e-06
  Iterations, force evaluations = 155 310

MPI task timing breakdown:
Section |  min time  |  avg time  |  max time  |%varavg| %total
---------------------------------------------------------------
Pair    | 0.47488    | 1.3108     | 1.7063     |  30.8 | 72.52
Neigh   | 0          | 0          | 0          |   0.0 |  0.00
Comm    | 0.029083   | 0.2934     | 0.89882    |  46.3 | 16.23
Output  | 0          | 0          | 0          |   0.0 |  0.00
Modify  | 2.054e-05  | 0.0025555  | 0.0054913  |   2.4 |  0.14
Other   |            | 0.2006     |            |       | 11.10

Nlocal:        2776.45 ave        3960 max           0 min
Histogram: 8 4 4 0 4 12 8 2 28 34
Nghost:        3879.01 ave        5424 max         232 min
Histogram: 8 0 8 0 16 0 8 8 16 40
Neighs:        79213.5 ave      115426 max           0 min
Histogram: 8 4 4 0 10 6 8 8 24 32

Total # of neighbors = 8238199
Ave neighs/atom = 28.530461
Neighbor list builds = 0
Dangerous builds = 0
The dot product: -1.47986387327437e-08
Setting atom values ...
  1 settings made for x
  1 settings made for y
  1 settings made for z
Setting up cg style minimization ...
  Unit style    : metal
  Current step  : 672
Per MPI rank memory allocation (min/avg/max) = 5.441 | 5.816 | 6.074 Mbytes
Step PotEng KinEng TotEng v_fx v_fy v_fz 
     672   -1152449.4            0   -1152449.4  0.019608729 -0.015646527 -0.026473742 
     804   -1152449.4            0   -1152449.4 2.542621e-05 -1.9793155e-05 -1.5168728e-05 
Loop time of 1.51973 on 104 procs for 132 steps with 288751 atoms

99.9% CPU use with 104 MPI tasks x 1 OpenMP threads

Minimization stats:
  Stopping criterion = energy tolerance
  Energy initial, next-to-last, final = 
     -1152449.43854392  -1152449.43990821  -1152449.43990821
  Force two-norm initial, final = 0.16889964 0.00015201511
  Force max component initial, final = 0.077240579 3.3598985e-05
  Final line search alpha, max atom move = 1.0000000 3.3598985e-05
  Iterations, force evaluations = 132 264

MPI task timing breakdown:
Section |  min time  |  avg time  |  max time  |%varavg| %total
---------------------------------------------------------------
Pair    | 0.40271    | 1.1078     | 1.4383     |  28.4 | 72.90
Neigh   | 0          | 0          | 0          |   0.0 |  0.00
Comm    | 0.023668   | 0.24577    | 0.75307    |  42.4 | 16.17
Output  | 0          | 0          | 0          |   0.0 |  0.00
Modify  | 1.662e-05  | 0.0021784  | 0.0046767  |   2.2 |  0.14
Other   |            | 0.164      |            |       | 10.79

Nlocal:        2776.45 ave        3959 max           0 min
Histogram: 8 4 4 0 4 12 8 2 28 34
Nghost:        3879.01 ave        5424 max         232 min
Histogram: 8 0 8 0 16 0 8 8 16 40
Neighs:        79213.5 ave      115400 max           0 min
Histogram: 8 4 4 0 10 6 8 8 24 32

Total # of neighbors = 8238201
Ave neighs/atom = 28.530467
Neighbor list builds = 0
Dangerous builds = 0
The dot product: 7.97469597756627e-09
Setting atom values ...
  1 settings made for x
  1 settings made for y
  1 settings made for z
Setting up cg style minimization ...
  Unit style    : metal
  Current step  : 804
Per MPI rank memory allocation (min/avg/max) = 5.441 | 5.816 | 6.074 Mbytes
Step PotEng KinEng TotEng v_fx v_fy v_fz 
     804   -1152449.4            0   -1152449.4  0.017915938 -0.013537848 -0.019709109 
    1000   -1152449.4            0   -1152449.4 2.0649777e-07 2.3598466e-07 -1.1642287e-05 
    1007   -1152449.4            0   -1152449.4 -4.659749e-06 3.6418269e-06 1.6093753e-06 
Loop time of 2.37134 on 104 procs for 203 steps with 288751 atoms

99.9% CPU use with 104 MPI tasks x 1 OpenMP threads

Minimization stats:
  Stopping criterion = energy tolerance
  Energy initial, next-to-last, final = 
     -1152449.43243929  -1152449.43379594  -1152449.43379594
  Force two-norm initial, final = 0.16734325 4.8486326e-05
  Force max component initial, final = 0.074588212 8.1755485e-06
  Final line search alpha, max atom move = 1.0000000 8.1755485e-06
  Iterations, force evaluations = 203 406

MPI task timing breakdown:
Section |  min time  |  avg time  |  max time  |%varavg| %total
---------------------------------------------------------------
Pair    | 0.62006    | 1.7127     | 2.2347     |  35.2 | 72.23
Neigh   | 0          | 0          | 0          |   0.0 |  0.00
Comm    | 0.042092   | 0.38184    | 1.1611     |  52.5 | 16.10
Output  | 0.0001643  | 0.00016708 | 0.00031453 |   0.0 |  0.01
Modify  | 2.5159e-05 | 0.0033431  | 0.0071712  |   2.7 |  0.14
Other   |            | 0.2733     |            |       | 11.52

Nlocal:        2776.45 ave        3959 max           0 min
Histogram: 8 4 4 0 4 12 8 2 28 34
Nghost:        3879.01 ave        5424 max         232 min
Histogram: 8 0 8 0 16 0 8 8 16 40
Neighs:        79213.5 ave      115400 max           0 min
Histogram: 8 4 4 0 10 6 8 8 24 32

Total # of neighbors = 8238202
Ave neighs/atom = 28.530471
Neighbor list builds = 0
Dangerous builds = 0
The dot product: 7.35468240577594e-09
Setting atom values ...
  1 settings made for x
  1 settings made for y
  1 settings made for z
Setting up cg style minimization ...
  Unit style    : metal
  Current step  : 1007
Per MPI rank memory allocation (min/avg/max) = 5.441 | 5.816 | 6.074 Mbytes
Step PotEng KinEng TotEng v_fx v_fy v_fz 
    1007   -1152449.4            0   -1152449.4  0.016188909 -0.012377976 -0.013683968 
    1137   -1152449.4            0   -1152449.4 1.747908e-05 -9.4186998e-06 -6.5113173e-05 
Loop time of 1.50065 on 104 procs for 130 steps with 288751 atoms

99.9% CPU use with 104 MPI tasks x 1 OpenMP threads

Minimization stats:
  Stopping criterion = energy tolerance
  Energy initial, next-to-last, final = 
     -1152449.42492473  -1152449.42628161  -1152449.42628161
  Force two-norm initial, final = 0.16676854 0.00020153235
  Force max component initial, final = 0.074401722 6.5113173e-05
  Final line search alpha, max atom move = 1.0000000 6.5113173e-05
  Iterations, force evaluations = 130 260

MPI task timing breakdown:
Section |  min time  |  avg time  |  max time  |%varavg| %total
---------------------------------------------------------------
Pair    | 0.39883    | 1.092      | 1.4163     |  28.1 | 72.77
Neigh   | 0          | 0          | 0          |   0.0 |  0.00
Comm    | 0.024293   | 0.24323    | 0.7458     |  42.2 | 16.21
Output  | 0          | 0          | 0          |   0.0 |  0.00
Modify  | 1.654e-05  | 0.0021412  | 0.0046226  |   2.2 |  0.14
Other   |            | 0.1633     |            |       | 10.88

Nlocal:        2776.45 ave        3958 max           0 min
Histogram: 8 4 4 0 4 12 8 2 28 34
Nghost:        3879.01 ave        5424 max         232 min
Histogram: 8 0 8 0 16 0 8 8 16 40
Neighs:        79213.5 ave      115378 max           0 min
Histogram: 8 4 4 0 10 6 8 8 24 32

Total # of neighbors = 8238201
Ave neighs/atom = 28.530467
Neighbor list builds = 0
Dangerous builds = 0
The dot product: 1.14919145016393e-07
Setting atom values ...
  1 settings made for x
  1 settings made for y
  1 settings made for z
Setting up cg style minimization ...
  Unit style    : metal
  Current step  : 1137
Per MPI rank memory allocation (min/avg/max) = 5.441 | 5.816 | 6.074 Mbytes
Step PotEng KinEng TotEng v_fx v_fy v_fz 
    1137   -1152449.4            0   -1152449.4  0.014802449 -0.011933778 -0.0087542409 
    1335   -1152449.4            0   -1152449.4 3.6900633e-06 -4.2427006e-06 9.3299893e-06 
Loop time of 2.35228 on 104 procs for 198 steps with 288751 atoms

99.9% CPU use with 104 MPI tasks x 1 OpenMP threads

Minimization stats:
  Stopping criterion = energy tolerance
  Energy initial, next-to-last, final = 
     -1152449.41597057  -1152449.41733459  -1152449.41733459
  Force two-norm initial, final = 0.16680528 5.5265877e-05
  Force max component initial, final = 0.074690989 9.3299893e-06
  Final line search alpha, max atom move = 1.0000000 9.3299893e-06
  Iterations, force evaluations = 198 396

MPI task timing breakdown:
Section |  min time  |  avg time  |  max time  |%varavg| %total
---------------------------------------------------------------
Pair    | 0.60604    | 1.6692     | 2.1791     |  34.7 | 70.96
Neigh   | 0          | 0          | 0          |   0.0 |  0.00
Comm    | 0.038726   | 0.37402    | 1.1481     |  51.7 | 15.90
Output  | 0          | 0          | 0          |   0.0 |  0.00
Modify  | 2.4901e-05 | 0.0032589  | 0.0069861  |   2.7 |  0.14
Other   |            | 0.3058     |            |       | 13.00

Nlocal:        2776.45 ave        3956 max           0 min
Histogram: 8 4 4 0 4 12 8 1 29 34
Nghost:        3879.01 ave        5424 max         232 min
Histogram: 8 0 8 0 16 0 8 8 16 40
Neighs:        79213.5 ave      115316 max           0 min
Histogram: 8 4 4 0 10 6 8 8 24 32

Total # of neighbors = 8238203
Ave neighs/atom = 28.530474
Neighbor list builds = 0
Dangerous builds = 0
The dot product: -3.67223180777438e-08
Setting atom values ...
  1 settings made for x
  1 settings made for y
  1 settings made for z
Setting up cg style minimization ...
  Unit style    : metal
  Current step  : 1335
Per MPI rank memory allocation (min/avg/max) = 5.441 | 5.816 | 6.074 Mbytes
Step PotEng KinEng TotEng v_fx v_fy v_fz 
    1335   -1152449.4            0   -1152449.4  0.013948542 -0.012021856 -0.0051768263 
    1493   -1152449.4            0   -1152449.4 -6.3052343e-06 3.1704576e-07 4.0389148e-05 
Loop time of 1.81964 on 104 procs for 158 steps with 288751 atoms

99.9% CPU use with 104 MPI tasks x 1 OpenMP threads

Minimization stats:
  Stopping criterion = energy tolerance
  Energy initial, next-to-last, final = 
     -1152449.40555688  -1152449.40692872  -1152449.40692872
  Force two-norm initial, final = 0.16713287 0.00017759834
  Force max component initial, final = 0.07469554 4.0389148e-05
  Final line search alpha, max atom move = 1.0000000 4.0389148e-05
  Iterations, force evaluations = 158 316

MPI task timing breakdown:
Section |  min time  |  avg time  |  max time  |%varavg| %total
---------------------------------------------------------------
Pair    | 0.48478    | 1.3271     | 1.7182     |  31.0 | 72.93
Neigh   | 0          | 0          | 0          |   0.0 |  0.00
Comm    | 0.028455   | 0.2939     | 0.9024     |  46.7 | 16.15
Output  | 0          | 0          | 0          |   0.0 |  0.00
Modify  | 1.9787e-05 | 0.0025982  | 0.0056077  |   2.4 |  0.14
Other   |            | 0.1961     |            |       | 10.78

Nlocal:        2776.45 ave        3955 max           0 min
Histogram: 8 4 4 0 4 12 8 2 28 34
Nghost:        3879.01 ave        5424 max         232 min
Histogram: 8 0 8 0 16 0 8 8 16 40
Neighs:        79213.5 ave      115276 max           0 min
Histogram: 8 4 4 0 10 6 8 8 24 32

Total # of neighbors = 8238201
Ave neighs/atom = 28.530467
Neighbor list builds = 0
Dangerous builds = 0
The dot product: -5.84668291252662e-08
Setting atom values ...
  1 settings made for x
  1 settings made for y
  1 settings made for z
Setting up cg style minimization ...
  Unit style    : metal
  Current step  : 1493
Per MPI rank memory allocation (min/avg/max) = 5.441 | 5.816 | 6.074 Mbytes
Step PotEng KinEng TotEng v_fx v_fy v_fz 
    1493   -1152449.4            0   -1152449.4  0.013868848 -0.012788047 -0.0024543354 
    1709   -1152449.4            0   -1152449.4 -1.5078007e-06 -3.3793412e-07 1.1526075e-05 
Loop time of 2.51734 on 104 procs for 216 steps with 288751 atoms

99.9% CPU use with 104 MPI tasks x 1 OpenMP threads

Minimization stats:
  Stopping criterion = energy tolerance
  Energy initial, next-to-last, final = 
      -1152449.3936627  -1152449.39504122  -1152449.39504122
  Force two-norm initial, final = 0.16755193 3.6440551e-05
  Force max component initial, final = 0.074524322 1.1526075e-05
  Final line search alpha, max atom move = 1.0000000 1.1526075e-05
  Iterations, force evaluations = 216 432

MPI task timing breakdown:
Section |  min time  |  avg time  |  max time  |%varavg| %total
---------------------------------------------------------------
Pair    | 0.66094    | 1.8248     | 2.3741     |  36.3 | 72.49
Neigh   | 0          | 0          | 0          |   0.0 |  0.00
Comm    | 0.037649   | 0.40725    | 1.2588     |  54.6 | 16.18
Output  | 0          | 0          | 0          |   0.0 |  0.00
Modify  | 2.7877e-05 | 0.0035569  | 0.0076137  |   2.8 |  0.14
Other   |            | 0.2818     |            |       | 11.19

Nlocal:        2776.45 ave        3953 max           0 min
Histogram: 8 4 4 0 4 12 8 2 28 34
Nghost:        3879.01 ave        5424 max         232 min
Histogram: 8 0 8 0 16 0 8 8 16 40
Neighs:        79213.5 ave      115201 max           0 min
Histogram: 8 4 4 0 10 6 8 8 24 32

Total # of neighbors = 8238202
Ave neighs/atom = 28.530471
Neighbor list builds = 0
Dangerous builds = 0
The dot product: -1.64115352131409e-08
Setting atom values ...
  1 settings made for x
  1 settings made for y
  1 settings made for z
Setting up cg style minimization ...
  Unit style    : metal
  Current step  : 1709
Per MPI rank memory allocation (min/avg/max) = 5.441 | 5.816 | 6.074 Mbytes
Step PotEng KinEng TotEng v_fx v_fy v_fz 
    1709   -1152449.4            0   -1152449.4  0.014541987 -0.014144382 -0.00075610594 
    1853   -1152449.4            0   -1152449.4 -1.5180692e-05 7.8251869e-06 4.1772232e-05 
Loop time of 1.65963 on 104 procs for 144 steps with 288751 atoms

99.9% CPU use with 104 MPI tasks x 1 OpenMP threads

Minimization stats:
  Stopping criterion = energy tolerance
  Energy initial, next-to-last, final = 
     -1152449.38026881  -1152449.38165238  -1152449.38165238
  Force two-norm initial, final = 0.16798501 0.00016297026
  Force max component initial, final = 0.07436943 4.1772232e-05
  Final line search alpha, max atom move = 1.0000000 4.1772232e-05
  Iterations, force evaluations = 144 288

MPI task timing breakdown:
Section |  min time  |  avg time  |  max time  |%varavg| %total
---------------------------------------------------------------
Pair    | 0.44154    | 1.2138     | 1.5706     |  29.7 | 73.13
Neigh   | 0          | 0          | 0          |   0.0 |  0.00
Comm    | 0.026902   | 0.27009    | 0.82952    |  44.3 | 16.27
Output  | 0          | 0          | 0          |   0.0 |  0.00
Modify  | 1.8429e-05 | 0.0023689  | 0.0051035  |   2.3 |  0.14
Other   |            | 0.1734     |            |       | 10.45

Nlocal:        2776.45 ave        3952 max           0 min
Histogram: 8 4 4 0 4 12 8 2 28 34
Nghost:        3879.01 ave        5424 max         232 min
Histogram: 8 0 8 0 16 0 8 8 16 40
Neighs:        79213.5 ave      115168 max           0 min
Histogram: 8 4 4 0 10 6 8 8 24 32

Total # of neighbors = 8238203
Ave neighs/atom = 28.530474
Neighbor list builds = 0
Dangerous builds = 0
The dot product: -2.31784712652418e-08
Setting atom values ...
  1 settings made for x
  1 settings made for y
  1 settings made for z
Setting up cg style minimization ...
  Unit style    : metal
  Current step  : 1853
Per MPI rank memory allocation (min/avg/max) = 5.441 | 5.816 | 6.074 Mbytes
Step PotEng KinEng TotEng v_fx v_fy v_fz 
    1853   -1152449.4            0   -1152449.4  0.015544646 -0.015743737 0.00044100012 
    1983   -1152449.4            0   -1152449.4 -1.3150152e-05 1.4881249e-05 -8.9133956e-06 
Loop time of 1.50189 on 104 procs for 130 steps with 288751 atoms

99.9% CPU use with 104 MPI tasks x 1 OpenMP threads

Minimization stats:
  Stopping criterion = energy tolerance
  Energy initial, next-to-last, final = 
     -1152449.36535773   -1152449.3667457   -1152449.3667457
  Force two-norm initial, final = 0.16835279 0.0002366986
  Force max component initial, final = 0.074329103 5.0171081e-05
  Final line search alpha, max atom move = 1.0000000 5.0171081e-05
  Iterations, force evaluations = 130 260

MPI task timing breakdown:
Section |  min time  |  avg time  |  max time  |%varavg| %total
---------------------------------------------------------------
Pair    | 0.39912    | 1.0987     | 1.4213     |  28.2 | 73.15
Neigh   | 0          | 0          | 0          |   0.0 |  0.00
Comm    | 0.023168   | 0.24385    | 0.74684    |  42.2 | 16.24
Output  | 0          | 0          | 0          |   0.0 |  0.00
Modify  | 1.6299e-05 | 0.0021392  | 0.0046193  |   2.2 |  0.14
Other   |            | 0.1572     |            |       | 10.47

Nlocal:        2776.45 ave        3950 max           0 min
Histogram: 8 4 4 0 4 12 8 2 26 36
Nghost:        3879.01 ave        5424 max         232 min
Histogram: 8 0 8 0 16 0 8 8 16 40
Neighs:        79213.5 ave      115101 max           0 min
Histogram: 8 4 4 0 10 6 8 8 24 32

Total # of neighbors = 8238204
Ave neighs/atom = 28.530478
Neighbor list builds = 0
Dangerous builds = 0
The dot product: 5.77893769008505e-08
Setting atom values ...
  1 settings made for x
  1 settings made for y
  1 settings made for z
Setting up cg style minimization ...
  Unit style    : metal
  Current step  : 1983
Per MPI rank memory allocation (min/avg/max) = 5.441 | 5.816 | 6.074 Mbytes
Step PotEng KinEng TotEng v_fx v_fy v_fz 
    1983   -1152449.3            0   -1152449.3  0.016233715 -0.016834121 0.00067468116 
    2000   -1152449.4            0   -1152449.4 0.00021559958 -0.00026846836 0.00023825965 
    2124   -1152449.4            0   -1152449.4 1.2735424e-05 3.4287619e-06 -8.4434669e-05 
Loop time of 1.61733 on 104 procs for 141 steps with 288751 atoms

99.9% CPU use with 104 MPI tasks x 1 OpenMP threads

Minimization stats:
  Stopping criterion = energy tolerance
  Energy initial, next-to-last, final = 
     -1152449.34890656  -1152449.35029906  -1152449.35029906
  Force two-norm initial, final = 0.16862713 0.00027031023
  Force max component initial, final = 0.074449143 8.4434669e-05
  Final line search alpha, max atom move = 1.0000000 8.4434669e-05
  Iterations, force evaluations = 141 282

MPI task timing breakdown:
Section |  min time  |  avg time  |  max time  |%varavg| %total
---------------------------------------------------------------
Pair    | 0.43097    | 1.1828     | 1.533      |  29.2 | 73.13
Neigh   | 0          | 0          | 0          |   0.0 |  0.00
Comm    | 0.024538   | 0.26178    | 0.80609    |  43.9 | 16.19
Output  | 9.7215e-05 | 0.00010341 | 0.00018568 |   0.0 |  0.01
Modify  | 1.7651e-05 | 0.0023198  | 0.0049906  |   2.3 |  0.14
Other   |            | 0.1703     |            |       | 10.53

Nlocal:        2776.45 ave        3947 max           0 min
Histogram: 8 4 4 0 4 12 8 2 26 36
Nghost:        3879.01 ave        5424 max         232 min
Histogram: 8 0 8 0 16 0 8 8 16 40
Neighs:        79213.5 ave      114997 max           0 min
Histogram: 8 4 4 0 10 6 8 8 24 32

Total # of neighbors = 8238204
Ave neighs/atom = 28.530478
Neighbor list builds = 0
Dangerous builds = 0
The dot product: 1.47873495986628e-07
Setting atom values ...
  1 settings made for x
  1 settings made for y
  1 settings made for z
Setting up cg style minimization ...
  Unit style    : metal
  Current step  : 2124
Per MPI rank memory allocation (min/avg/max) = 5.441 | 5.816 | 6.074 Mbytes
Step PotEng KinEng TotEng v_fx v_fy v_fz 
    2124   -1152449.3            0   -1152449.3  0.016156762 -0.016898227 -0.00016374304 
    2371   -1152449.3            0   -1152449.3 4.8060737e-07 1.3303242e-07 -3.0363607e-06 
Loop time of 2.85694 on 104 procs for 247 steps with 288751 atoms

99.9% CPU use with 104 MPI tasks x 1 OpenMP threads

Minimization stats:
  Stopping criterion = energy tolerance
  Energy initial, next-to-last, final = 
     -1152449.33088796  -1152449.33229955  -1152449.33229955
  Force two-norm initial, final = 0.16871744 1.2358627e-05
  Force max component initial, final = 0.074461462 3.0363607e-06
  Final line search alpha, max atom move = 1.0000000 3.0363607e-06
  Iterations, force evaluations = 247 494

MPI task timing breakdown:
Section |  min time  |  avg time  |  max time  |%varavg| %total
---------------------------------------------------------------
Pair    | 0.75157    | 2.079      | 2.7035     |  38.7 | 72.77
Neigh   | 0          | 0          | 0          |   0.0 |  0.00
Comm    | 0.042005   | 0.46109    | 1.4167     |  58.3 | 16.14
Output  | 0          | 0          | 0          |   0.0 |  0.00
Modify  | 3.108e-05  | 0.0040611  | 0.0086983  |   3.0 |  0.14
Other   |            | 0.3128     |            |       | 10.95

Nlocal:        2776.45 ave        3943 max           0 min
Histogram: 8 4 4 0 4 12 8 2 26 36
Nghost:        3879.05 ave        5424 max         232 min
Histogram: 8 0 8 0 16 0 8 8 16 40
Neighs:        79213.5 ave      114890 max           0 min
Histogram: 8 4 4 0 10 6 8 8 22 34

Total # of neighbors = 8238202
Ave neighs/atom = 28.530471
Neighbor list builds = 0
Dangerous builds = 0
The dot product: 8.64179648175423e-09
Setting atom values ...
  1 settings made for x
  1 settings made for y
  1 settings made for z
Setting up cg style minimization ...
  Unit style    : metal
  Current step  : 2371
Per MPI rank memory allocation (min/avg/max) = 5.441 | 5.816 | 6.074 Mbytes
Step PotEng KinEng TotEng v_fx v_fy v_fz 
    2371   -1152449.3            0   -1152449.3  0.013905122  -0.01390996 -0.0043429703 
    2561   -1152449.3            0   -1152449.3 -1.2064285e-05 3.5550397e-06 4.0743264e-05 
Loop time of 2.17613 on 104 procs for 190 steps with 288751 atoms

99.9% CPU use with 104 MPI tasks x 1 OpenMP threads

Minimization stats:
  Stopping criterion = energy tolerance
  Energy initial, next-to-last, final = 
     -1152449.31129877  -1152449.31286582  -1152449.31286582
  Force two-norm initial, final = 0.16865008 0.00013273097
  Force max component initial, final = 0.074328162 4.0743264e-05
  Final line search alpha, max atom move = 1.0000000 4.0743264e-05
  Iterations, force evaluations = 190 380

MPI task timing breakdown:
Section |  min time  |  avg time  |  max time  |%varavg| %total
---------------------------------------------------------------
Pair    | 0.57887    | 1.5936     | 2.0627     |  34.0 | 73.23
Neigh   | 0          | 0          | 0          |   0.0 |  0.00
Comm    | 0.033383   | 0.35188    | 1.0805     |  51.3 | 16.17
Output  | 0          | 0          | 0          |   0.0 |  0.00
Modify  | 2.3589e-05 | 0.0031217  | 0.0067203  |   2.6 |  0.14
Other   |            | 0.2275     |            |       | 10.45

Nlocal:        2776.45 ave        3936 max           0 min
Histogram: 8 4 4 0 4 12 8 0 28 36
Nghost:        3879.05 ave        5424 max         232 min
Histogram: 8 0 8 0 16 0 8 8 16 40
Neighs:        79213.4 ave      114672 max           0 min
Histogram: 8 4 4 0 8 8 8 8 22 34

Total # of neighbors = 8238196
Ave neighs/atom = 28.530450
Neighbor list builds = 0
Dangerous builds = 0
The dot product: -2.6204189189638e-07
Setting atom values ...
  1 settings made for x
  1 settings made for y
  1 settings made for z
Setting up cg style minimization ...
  Unit style    : metal
  Current step  : 2561
Per MPI rank memory allocation (min/avg/max) = 5.441 | 5.816 | 6.074 Mbytes
Step PotEng KinEng TotEng v_fx v_fy v_fz 
    2561   -1152449.3            0   -1152449.3 -0.0018327358  0.010031722 -0.027488958 
    2749   -1152449.3            0   -1152449.3 1.8246019e-05 -1.2445591e-06 -6.8153422e-05 
Loop time of 2.1831 on 104 procs for 188 steps with 288751 atoms

99.9% CPU use with 104 MPI tasks x 1 OpenMP threads

Minimization stats:
  Stopping criterion = energy tolerance
  Energy initial, next-to-last, final = 
     -1152449.29038524  -1152449.29270413  -1152449.29270413
  Force two-norm initial, final = 0.17082698 0.00018078722
  Force max component initial, final = 0.072043106 6.8153422e-05
  Final line search alpha, max atom move = 1.0000000 6.8153422e-05
  Iterations, force evaluations = 188 376

MPI task timing breakdown:
Section |  min time  |  avg time  |  max time  |%varavg| %total
---------------------------------------------------------------
Pair    | 0.57472    | 1.5834     | 2.0607     |  33.8 | 72.53
Neigh   | 0          | 0          | 0          |   0.0 |  0.00
Comm    | 0.033066   | 0.35176    | 1.0719     |  50.7 | 16.11
Output  | 0          | 0          | 0          |   0.0 |  0.00
Modify  | 2.3512e-05 | 0.0030983  | 0.0066309  |   2.6 |  0.14
Other   |            | 0.2449     |            |       | 11.22

Nlocal:        2776.45 ave        3930 max           0 min
Histogram: 8 4 4 0 4 12 8 0 26 38
Nghost:        3879.05 ave        5424 max         232 min
Histogram: 8 0 8 0 16 0 8 8 16 40
Neighs:        79213.5 ave      114452 max           0 min
Histogram: 8 4 4 0 8 8 8 8 20 36

Total # of neighbors = 8238199
Ave neighs/atom = 28.530461
Neighbor list builds = 0
Dangerous builds = 0
The dot product: 9.16061270135675e-07
Setting atom values ...
  1 settings made for x
  1 settings made for y
  1 settings made for z
Setting up cg style minimization ...
  Unit style    : metal
  Current step  : 2749
Per MPI rank memory allocation (min/avg/max) = 5.441 | 5.816 | 6.074 Mbytes
Step PotEng KinEng TotEng v_fx v_fy v_fz 
    2749   -1152449.3            0   -1152449.3 -0.025281971  0.058327141 -0.059032557 
    2933   -1152449.3            0   -1152449.3 3.6792152e-05 -5.8233921e-06 -0.00010363164 
Loop time of 2.10546 on 104 procs for 184 steps with 288751 atoms

99.9% CPU use with 104 MPI tasks x 1 OpenMP threads

Minimization stats:
  Stopping criterion = energy tolerance
  Energy initial, next-to-last, final = 
     -1152449.26907607  -1152449.27259303  -1152449.27259303
  Force two-norm initial, final = 0.19066502 0.00030613562
  Force max component initial, final = 0.07890082 0.00010363164
  Final line search alpha, max atom move = 1.0000000 0.00010363164
  Iterations, force evaluations = 184 368

MPI task timing breakdown:
Section |  min time  |  avg time  |  max time  |%varavg| %total
---------------------------------------------------------------
Pair    | 0.56072    | 1.5418     | 1.9947     |  33.4 | 73.23
Neigh   | 0          | 0          | 0          |   0.0 |  0.00
Comm    | 0.031633   | 0.34101    | 1.0489     |  50.5 | 16.20
Output  | 0          | 0          | 0          |   0.0 |  0.00
Modify  | 2.2863e-05 | 0.0030296  | 0.0065142  |   2.6 |  0.14
Other   |            | 0.2196     |            |       | 10.43

Nlocal:        2776.45 ave        3930 max           0 min
Histogram: 8 4 4 0 4 12 8 0 26 38
Nghost:        3879.09 ave        5425 max         232 min
Histogram: 8 0 8 0 16 0 8 8 16 40
Neighs:        79213.4 ave      114452 max           0 min
Histogram: 8 4 4 0 8 8 8 8 20 36

Total # of neighbors = 8238195
Ave neighs/atom = 28.530447
Neighbor list builds = 0
Dangerous builds = 0
The dot product: 1.3489718552647e-06
Setting atom values ...
  1 settings made for x
  1 settings made for y
  1 settings made for z
Setting up cg style minimization ...
  Unit style    : metal
  Current step  : 2933
Per MPI rank memory allocation (min/avg/max) = 5.441 | 5.816 | 6.074 Mbytes
Step PotEng KinEng TotEng v_fx v_fy v_fz 
    2933   -1152449.2            0   -1152449.2 -0.031735413  0.091156914  -0.06450978 
    3000   -1152449.3            0   -1152449.3 6.1448649e-05 9.0653856e-06 -0.00018041048 
    3192   -1152449.3            0   -1152449.3 -2.052942e-06 -3.5444706e-07 6.112212e-06 
Loop time of 2.99918 on 104 procs for 259 steps with 288751 atoms

99.9% CPU use with 104 MPI tasks x 1 OpenMP threads

Minimization stats:
  Stopping criterion = energy tolerance
  Energy initial, next-to-last, final = 
     -1152449.24797675  -1152449.25210279  -1152449.25210279
  Force two-norm initial, final = 0.20677248 1.6186948e-05
  Force max component initial, final = 0.091156914 6.1122120e-06
  Final line search alpha, max atom move = 1.0000000 6.1122120e-06
  Iterations, force evaluations = 259 518

MPI task timing breakdown:
Section |  min time  |  avg time  |  max time  |%varavg| %total
---------------------------------------------------------------
Pair    | 0.78784    | 2.1844     | 2.8381     |  39.7 | 72.83
Neigh   | 0          | 0          | 0          |   0.0 |  0.00
Comm    | 0.045331   | 0.48511    | 1.4992     |  60.1 | 16.17
Output  | 9.4365e-05 | 9.724e-05  | 0.00022958 |   0.0 |  0.00
Modify  | 3.1868e-05 | 0.0042563  | 0.0091181  |   3.1 |  0.14
Other   |            | 0.3253     |            |       | 10.85

Nlocal:        2776.45 ave        3936 max           0 min
Histogram: 8 4 4 0 4 12 8 0 28 36
Nghost:        3879.12 ave        5425 max         232 min
Histogram: 8 0 8 0 16 0 8 8 16 40
Neighs:        79213.4 ave      114656 max           0 min
Histogram: 8 4 4 0 8 8 8 8 22 34

Total # of neighbors = 8238198
Ave neighs/atom = 28.530457
Neighbor list builds = 0
Dangerous builds = 0
The dot product: -1.02962514774922e-07
Setting atom values ...
  1 settings made for x
  1 settings made for y
  1 settings made for z
Setting up cg style minimization ...
  Unit style    : metal
  Current step  : 3192
Per MPI rank memory allocation (min/avg/max) = 5.441 | 5.816 | 6.074 Mbytes
Step PotEng KinEng TotEng v_fx v_fy v_fz 
    3192   -1152449.2            0   -1152449.2 -0.025515656   0.10296592 -0.057045252 
    3427   -1152449.2            0   -1152449.2 -5.224078e-07 -1.5354017e-07 1.4100145e-06 
Loop time of 2.70982 on 104 procs for 235 steps with 288751 atoms

99.9% CPU use with 104 MPI tasks x 1 OpenMP threads

Minimization stats:
  Stopping criterion = energy tolerance
  Energy initial, next-to-last, final = 
     -1152449.22676668  -1152449.23079208  -1152449.23079208
  Force two-norm initial, final = 0.20962638 4.4214939e-05
  Force max component initial, final = 0.10296592 4.9831486e-06
  Final line search alpha, max atom move = 1.0000000 4.9831486e-06
  Iterations, force evaluations = 235 470

MPI task timing breakdown:
Section |  min time  |  avg time  |  max time  |%varavg| %total
---------------------------------------------------------------
Pair    | 0.71827    | 1.9746     | 2.5582     |  37.9 | 72.87
Neigh   | 0          | 0          | 0          |   0.0 |  0.00
Comm    | 0.042252   | 0.44032    | 1.353      |  56.7 | 16.25
Output  | 0          | 0          | 0          |   0.0 |  0.00
Modify  | 2.9969e-05 | 0.0038694  | 0.0083897  |   3.0 |  0.14
Other   |            | 0.291      |            |       | 10.74

Nlocal:        2776.45 ave        3946 max           0 min
Histogram: 8 4 4 0 4 12 8 2 26 36
Nghost:        3879.05 ave        5425 max         232 min
Histogram: 8 0 8 0 16 0 8 8 16 40
Neighs:        79213.5 ave      114957 max           0 min
Histogram: 8 4 4 0 10 6 8 8 22 34

Total # of neighbors = 8238203
Ave neighs/atom = 28.530474
Neighbor list builds = 0
Dangerous builds = 0
The dot product: -2.36480477168089e-08
Setting atom values ...
  1 settings made for x
  1 settings made for y
  1 settings made for z
Setting up cg style minimization ...
  Unit style    : metal
  Current step  : 3427
Per MPI rank memory allocation (min/avg/max) = 5.441 | 5.816 | 6.074 Mbytes
Step PotEng KinEng TotEng v_fx v_fy v_fz 
    3427   -1152449.2            0   -1152449.2  -0.01542395  0.094071469 -0.043277776 
    3629   -1152449.2            0   -1152449.2 4.9538713e-06 -1.4559573e-07 -1.0510965e-05 
Loop time of 2.33581 on 104 procs for 202 steps with 288751 atoms

99.9% CPU use with 104 MPI tasks x 1 OpenMP threads

Minimization stats:
  Stopping criterion = energy tolerance
  Energy initial, next-to-last, final = 
     -1152449.20474837  -1152449.20819623  -1152449.20819623
  Force two-norm initial, final = 0.20091129 0.00015700487
  Force max component initial, final = 0.11010444 1.5666208e-05
  Final line search alpha, max atom move = 1.0000000 1.5666208e-05
  Iterations, force evaluations = 202 404

MPI task timing breakdown:
Section |  min time  |  avg time  |  max time  |%varavg| %total
---------------------------------------------------------------
Pair    | 0.61616    | 1.7053     | 2.2153     |  35.1 | 73.01
Neigh   | 0          | 0          | 0          |   0.0 |  0.00
Comm    | 0.033261   | 0.38033    | 1.1732     |  52.9 | 16.28
Output  | 0          | 0          | 0          |   0.0 |  0.00
Modify  | 2.5478e-05 | 0.0033226  | 0.0071576  |   2.7 |  0.14
Other   |            | 0.2468     |            |       | 10.57

Nlocal:        2776.45 ave        3952 max           0 min
Histogram: 8 4 4 0 4 12 8 2 28 34
Nghost:        3879.03 ave        5425 max         232 min
Histogram: 8 0 8 0 16 0 8 8 16 40
Neighs:        79213.5 ave      115141 max           0 min
Histogram: 8 4 4 0 10 6 8 8 24 32

Total # of neighbors = 8238207
Ave neighs/atom = 28.530488
Neighbor list builds = 0
Dangerous builds = 0
The dot product: 1.33212990784156e-07
Setting atom values ...
  1 settings made for x
  1 settings made for y
  1 settings made for z
Setting up cg style minimization ...
  Unit style    : metal
  Current step  : 3629
Per MPI rank memory allocation (min/avg/max) = 5.441 | 5.816 | 6.074 Mbytes
Step PotEng KinEng TotEng v_fx v_fy v_fz 
    3629   -1152449.2            0   -1152449.2 -0.0059944285  0.077730242 -0.034140008 
    3952   -1152449.2            0   -1152449.2 -8.2591659e-08 -3.3559203e-08 1.8316195e-07 
Loop time of 3.74348 on 104 procs for 323 steps with 288751 atoms

99.9% CPU use with 104 MPI tasks x 1 OpenMP threads

Minimization stats:
  Stopping criterion = energy tolerance
  Energy initial, next-to-last, final = 
     -1152449.18154756  -1152449.18463994  -1152449.18463994
  Force two-norm initial, final = 0.19075999 1.9741606e-06
  Force max component initial, final = 0.1159079 3.7921679e-07
  Final line search alpha, max atom move = 1.0000000 3.7921679e-07
  Iterations, force evaluations = 323 646

MPI task timing breakdown:
Section |  min time  |  avg time  |  max time  |%varavg| %total
---------------------------------------------------------------
Pair    | 1.0024     | 2.7232     | 3.5285     |  44.2 | 72.75
Neigh   | 0          | 0          | 0          |   0.0 |  0.00
Comm    | 0.059469   | 0.60812    | 1.8468     |  66.1 | 16.24
Output  | 0          | 0          | 0          |   0.0 |  0.00
Modify  | 3.9849e-05 | 0.0053048  | 0.011337   |   3.4 |  0.14
Other   |            | 0.4068     |            |       | 10.87

Nlocal:        2776.45 ave        3956 max           0 min
Histogram: 8 4 4 0 4 12 8 2 28 34
Nghost:        3879.01 ave        5426 max         232 min
Histogram: 8 0 8 0 16 0 8 8 16 40
Neighs:        79213.5 ave      115299 max           0 min
Histogram: 8 4 4 0 10 6 8 8 24 32

Total # of neighbors = 8238206
Ave neighs/atom = 28.530485
Neighbor list builds = 0
Dangerous builds = 0
The dot product: -3.35099417998668e-09
Setting atom values ...
  1 settings made for x
  1 settings made for y
  1 settings made for z
Setting up cg style minimization ...
  Unit style    : metal
  Current step  : 3952
Per MPI rank memory allocation (min/avg/max) = 5.441 | 5.816 | 6.074 Mbytes
Step PotEng KinEng TotEng v_fx v_fy v_fz 
    3952   -1152449.2            0   -1152449.2 0.0025188395  0.063914876 -0.032461762 
    4000   -1152449.2            0   -1152449.2 0.00014289694 7.9111193e-06 -0.00026434208 
    4153   -1152449.2            0   -1152449.2 -1.2274973e-05 -8.5769688e-07 2.278487e-05 
Loop time of 2.33408 on 104 procs for 201 steps with 288751 atoms

99.9% CPU use with 104 MPI tasks x 1 OpenMP threads

Minimization stats:
  Stopping criterion = energy tolerance
  Energy initial, next-to-last, final = 
     -1152449.15752833  -1152449.16026404  -1152449.16026404
  Force two-norm initial, final = 0.18406214 0.00013398678
  Force max component initial, final = 0.1200237 3.2960852e-05
  Final line search alpha, max atom move = 1.0000000 3.2960852e-05
  Iterations, force evaluations = 201 402

MPI task timing breakdown:
Section |  min time  |  avg time  |  max time  |%varavg| %total
---------------------------------------------------------------
Pair    | 0.61248    | 1.6903     | 2.2091     |  34.9 | 72.42
Neigh   | 0          | 0          | 0          |   0.0 |  0.00
Comm    | 0.034731   | 0.37606    | 1.1539     |  52.3 | 16.11
Output  | 0.0001041  | 0.0001066  | 0.00022414 |   0.0 |  0.00
Modify  | 2.5265e-05 | 0.0033052  | 0.0070894  |   2.7 |  0.14
Other   |            | 0.2643     |            |       | 11.32

Nlocal:        2776.45 ave        3957 max           0 min
Histogram: 8 4 4 0 4 12 8 2 28 34
Nghost:        3878.97 ave        5425 max         232 min
Histogram: 8 0 8 0 16 0 8 8 16 40
Neighs:        79213.6 ave      115333 max           0 min
Histogram: 8 4 4 0 10 6 8 8 24 32

Total # of neighbors = 8238211
Ave neighs/atom = 28.530502
Neighbor list builds = 0
Dangerous builds = 0
The dot product: -3.7867931352085e-07
Setting atom values ...
  1 settings made for x
  1 settings made for y
  1 settings made for z
Setting up cg style minimization ...
  Unit style    : metal
  Current step  : 4153
Per MPI rank memory allocation (min/avg/max) = 5.441 | 5.816 | 6.074 Mbytes
Step PotEng KinEng TotEng v_fx v_fy v_fz 
    4153   -1152449.1            0   -1152449.1 0.0087152725  0.056053036 -0.032660327 
    4330   -1152449.1            0   -1152449.1 -4.7350365e-06 4.9610181e-06 6.4074929e-06 
Loop time of 2.04616 on 104 procs for 177 steps with 288751 atoms

99.9% CPU use with 104 MPI tasks x 1 OpenMP threads

Minimization stats:
  Stopping criterion = energy tolerance
  Energy initial, next-to-last, final = 
     -1152449.13243216  -1152449.13490105  -1152449.13490105
  Force two-norm initial, final = 0.18139763 0.00024148969
  Force max component initial, final = 0.12420751 3.3875944e-05
  Final line search alpha, max atom move = 1.0000000 3.3875944e-05
  Iterations, force evaluations = 177 354

MPI task timing breakdown:
Section |  min time  |  avg time  |  max time  |%varavg| %total
---------------------------------------------------------------
Pair    | 0.54445    | 1.4872     | 1.9362     |  32.8 | 72.68
Neigh   | 0          | 0          | 0          |   0.0 |  0.00
Comm    | 0.030562   | 0.33081    | 1.0119     |  49.0 | 16.17
Output  | 0          | 0          | 0          |   0.0 |  0.00
Modify  | 2.2603e-05 | 0.0029023  | 0.0062176  |   2.5 |  0.14
Other   |            | 0.2252     |            |       | 11.01

Nlocal:        2776.45 ave        3958 max           0 min
Histogram: 8 4 4 0 4 12 8 2 28 34
Nghost:        3878.97 ave        5425 max         232 min
Histogram: 8 0 8 0 16 0 8 8 16 40
Neighs:        79213.6 ave      115363 max           0 min
Histogram: 8 4 4 0 10 6 8 8 24 32

Total # of neighbors = 8238214
Ave neighs/atom = 28.530512
Neighbor list builds = 0
Dangerous builds = 0
The dot product: -2.99408023932021e-08
Setting atom values ...
  1 settings made for x
  1 settings made for y
  1 settings made for z
Setting up cg style minimization ...
  Unit style    : metal
  Current step  : 4330
Per MPI rank memory allocation (min/avg/max) = 5.441 | 5.816 | 6.074 Mbytes
Step PotEng KinEng TotEng v_fx v_fy v_fz 
    4330   -1152449.1            0   -1152449.1   0.01135966  0.046585867 -0.028903956 
    4557   -1152449.1            0   -1152449.1 1.538727e-06 -8.7773808e-07 -2.2146656e-06 
Loop time of 2.6634 on 104 procs for 227 steps with 288751 atoms

99.9% CPU use with 104 MPI tasks x 1 OpenMP threads

Minimization stats:
  Stopping criterion = energy tolerance
  Energy initial, next-to-last, final = 
     -1152449.10614837   -1152449.1082865   -1152449.1082865
  Force two-norm initial, final = 0.17860499 3.0719331e-05
  Force max component initial, final = 0.12821738 5.3811128e-06
  Final line search alpha, max atom move = 1.0000000 5.3811128e-06
  Iterations, force evaluations = 227 454

MPI task timing breakdown:
Section |  min time  |  avg time  |  max time  |%varavg| %total
---------------------------------------------------------------
Pair    | 0.68946    | 1.9128     | 2.5039     |  37.3 | 71.82
Neigh   | 0          | 0          | 0          |   0.0 |  0.00
Comm    | 0.040711   | 0.4286     | 1.2925     |  55.0 | 16.09
Output  | 0          | 0          | 0          |   0.0 |  0.00
Modify  | 2.8537e-05 | 0.0037398  | 0.0080661  |   2.9 |  0.14
Other   |            | 0.3182     |            |       | 11.95

Nlocal:        2776.45 ave        3959 max           0 min
Histogram: 8 4 4 0 4 12 8 2 28 34
Nghost:        3878.95 ave        5425 max         232 min
Histogram: 8 0 8 0 16 0 8 8 16 40
Neighs:        79213.6 ave      115389 max           0 min
Histogram: 8 4 4 0 10 6 8 8 24 32

Total # of neighbors = 8238213
Ave neighs/atom = 28.530509
Neighbor list builds = 0
Dangerous builds = 0
The dot product: 2.19415248332854e-08
Setting atom values ...
  1 settings made for x
  1 settings made for y
  1 settings made for z
Setting up cg style minimization ...
  Unit style    : metal
  Current step  : 4557
Per MPI rank memory allocation (min/avg/max) = 5.441 | 5.816 | 6.074 Mbytes
Step PotEng KinEng TotEng v_fx v_fy v_fz 
    4557   -1152449.1            0   -1152449.1  0.010856475  0.035987934  -0.02259327 
    4747   -1152449.1            0   -1152449.1 -5.4952752e-06 -8.163856e-07 8.3137222e-06 
Loop time of 2.20637 on 104 procs for 190 steps with 288751 atoms

99.9% CPU use with 104 MPI tasks x 1 OpenMP threads

Minimization stats:
  Stopping criterion = energy tolerance
  Energy initial, next-to-last, final = 
     -1152449.07841648  -1152449.08031789  -1152449.08031789
  Force two-norm initial, final = 0.17611758 0.00012305779
  Force max component initial, final = 0.13179097 1.6118710e-05
  Final line search alpha, max atom move = 1.0000000 1.6118710e-05
  Iterations, force evaluations = 190 380

MPI task timing breakdown:
Section |  min time  |  avg time  |  max time  |%varavg| %total
---------------------------------------------------------------
Pair    | 0.58309    | 1.596      | 2.0805     |  34.0 | 72.33
Neigh   | 0          | 0          | 0          |   0.0 |  0.00
Comm    | 0.033038   | 0.3569     | 1.0831     |  50.6 | 16.18
Output  | 0          | 0          | 0          |   0.0 |  0.00
Modify  | 2.3635e-05 | 0.0031378  | 0.0067053  |   2.6 |  0.14
Other   |            | 0.2504     |            |       | 11.35

Nlocal:        2776.45 ave        3960 max           0 min
Histogram: 8 4 4 0 4 12 8 2 28 34
Nghost:        3878.95 ave        5425 max         232 min
Histogram: 8 0 8 0 16 0 8 8 16 40
Neighs:        79213.6 ave      115417 max           0 min
Histogram: 8 4 4 0 10 6 8 8 24 32

Total # of neighbors = 8238212
Ave neighs/atom = 28.530506
Neighbor list builds = 0
Dangerous builds = 0
The dot product: -1.10094892819255e-07
Setting atom values ...
  1 settings made for x
  1 settings made for y
  1 settings made for z
Setting up cg style minimization ...
  Unit style    : metal
  Current step  : 4747
Per MPI rank memory allocation (min/avg/max) = 5.441 | 5.816 | 6.074 Mbytes
Step PotEng KinEng TotEng v_fx v_fy v_fz 
    4747     -1152449            0     -1152449 0.0089161815  0.026461545 -0.016393795 
    4932   -1152449.1            0   -1152449.1 2.3362008e-05 -5.6565338e-06 -3.2368611e-05 
Loop time of 2.16399 on 104 procs for 185 steps with 288751 atoms

99.9% CPU use with 104 MPI tasks x 1 OpenMP threads

Minimization stats:
  Stopping criterion = energy tolerance
  Energy initial, next-to-last, final = 
     -1152449.04925704  -1152449.05101283  -1152449.05101283
  Force two-norm initial, final = 0.17482992 0.00013947366
  Force max component initial, final = 0.13495548 3.2368611e-05
  Final line search alpha, max atom move = 1.0000000 3.2368611e-05
  Iterations, force evaluations = 185 370

MPI task timing breakdown:
Section |  min time  |  avg time  |  max time  |%varavg| %total
---------------------------------------------------------------
Pair    | 0.56438    | 1.5661     | 2.0471     |  33.8 | 72.37
Neigh   | 0          | 0          | 0          |   0.0 |  0.00
Comm    | 0.03183    | 0.34958    | 1.0679     |  50.5 | 16.15
Output  | 0          | 0          | 0          |   0.0 |  0.00
Modify  | 2.2994e-05 | 0.0030405  | 0.0065306  |   2.6 |  0.14
Other   |            | 0.2453     |            |       | 11.34

Nlocal:        2776.45 ave        3960 max           0 min
Histogram: 8 4 4 0 4 12 8 2 28 34
Nghost:        3878.97 ave        5425 max         232 min
Histogram: 8 0 8 0 16 0 8 8 16 40
Neighs:        79213.6 ave      115417 max           0 min
Histogram: 8 4 4 0 10 6 8 8 24 32

Total # of neighbors = 8238215
Ave neighs/atom = 28.530516
Neighbor list builds = 0
Dangerous builds = 0
The dot product: 3.10404084708039e-07
Setting atom values ...
  1 settings made for x
  1 settings made for y
  1 settings made for z
Setting up cg style minimization ...
  Unit style    : metal
  Current step  : 4932
Per MPI rank memory allocation (min/avg/max) = 5.441 | 5.816 | 6.074 Mbytes
Step PotEng KinEng TotEng v_fx v_fy v_fz 
    4932     -1152449            0     -1152449 0.0066750475  0.018756797 -0.011306046 
    5000     -1152449            0     -1152449 -0.00018462743 4.7866435e-05 0.00024716185 
    5121     -1152449            0     -1152449 1.1698334e-05 -2.111316e-06 -1.5767246e-05 
Loop time of 2.19817 on 104 procs for 189 steps with 288751 atoms

99.9% CPU use with 104 MPI tasks x 1 OpenMP threads

Minimization stats:
  Stopping criterion = energy tolerance
  Energy initial, next-to-last, final = 
     -1152449.01875876  -1152449.02047761  -1152449.02047761
  Force two-norm initial, final = 0.1746005 0.00012581543
  Force max component initial, final = 0.13769727 1.5767246e-05
  Final line search alpha, max atom move = 1.0000000 1.5767246e-05
  Iterations, force evaluations = 189 378

MPI task timing breakdown:
Section |  min time  |  avg time  |  max time  |%varavg| %total
---------------------------------------------------------------
Pair    | 0.57952    | 1.5873     | 2.0697     |  33.9 | 72.21
Neigh   | 0          | 0          | 0          |   0.0 |  0.00
Comm    | 0.033033   | 0.35528    | 1.0808     |  50.3 | 16.16
Output  | 0.00011021 | 0.00011488 | 0.00024104 |   0.0 |  0.01
Modify  | 2.3804e-05 | 0.0031098  | 0.0067082  |   2.6 |  0.14
Other   |            | 0.2523     |            |       | 11.48

Nlocal:        2776.45 ave        3960 max           0 min
Histogram: 8 4 4 0 4 12 8 2 28 34
Nghost:        3878.97 ave        5425 max         232 min
Histogram: 8 0 8 0 16 0 8 8 16 40
Neighs:        79213.6 ave      115417 max           0 min
Histogram: 8 4 4 0 10 6 8 8 24 32

Total # of neighbors = 8238218
Ave neighs/atom = 28.530526
Neighbor list builds = 0
Dangerous builds = 0
The dot product: 1.40780368060834e-07
Setting atom values ...
  1 settings made for x
  1 settings made for y
  1 settings made for z
Setting up cg style minimization ...
  Unit style    : metal
  Current step  : 5121
Per MPI rank memory allocation (min/avg/max) = 5.441 | 5.816 | 6.074 Mbytes
Step PotEng KinEng TotEng v_fx v_fy v_fz 
    5121     -1152449            0     -1152449 0.0048190411  0.012985359 -0.0076778342 
    5305     -1152449            0     -1152449 -8.8407685e-06 3.1944457e-06 1.1419714e-05 
Loop time of 2.15494 on 104 procs for 184 steps with 288751 atoms

99.9% CPU use with 104 MPI tasks x 1 OpenMP threads

Minimization stats:
  Stopping criterion = energy tolerance
  Energy initial, next-to-last, final = 
     -1152448.98714036  -1152448.98882332  -1152448.98882332
  Force two-norm initial, final = 0.17494902 0.00014863459
  Force max component initial, final = 0.14002255 1.9299150e-05
  Final line search alpha, max atom move = 1.0000000 1.9299150e-05
  Iterations, force evaluations = 184 368

MPI task timing breakdown:
Section |  min time  |  avg time  |  max time  |%varavg| %total
---------------------------------------------------------------
Pair    | 0.56088    | 1.5554     | 2.0238     |  33.4 | 72.18
Neigh   | 0          | 0          | 0          |   0.0 |  0.00
Comm    | 0.034822   | 0.35083    | 1.0875     |  50.3 | 16.28
Output  | 0          | 0          | 0          |   0.0 |  0.00
Modify  | 2.31e-05   | 0.0030309  | 0.0064981  |   2.6 |  0.14
Other   |            | 0.2457     |            |       | 11.40

Nlocal:        2776.45 ave        3960 max           0 min
Histogram: 8 4 4 0 4 12 8 2 28 34
Nghost:        3878.97 ave        5425 max         232 min
Histogram: 8 0 8 0 16 0 8 8 16 40
Neighs:        79213.6 ave      115426 max           0 min
Histogram: 8 4 4 0 10 6 8 8 24 32

Total # of neighbors = 8238215
Ave neighs/atom = 28.530516
Neighbor list builds = 0
Dangerous builds = 0
The dot product: -8.71509303654522e-08
Setting atom values ...
  1 settings made for x
  1 settings made for y
  1 settings made for z
Setting up cg style minimization ...
  Unit style    : metal
  Current step  : 5305
Per MPI rank memory allocation (min/avg/max) = 5.441 | 5.816 | 6.074 Mbytes
Step PotEng KinEng TotEng v_fx v_fy v_fz 
    5305     -1152449            0     -1152449 0.0027644124 0.0087886695 -0.0043447123 
    5545     -1152449            0     -1152449 -1.165264e-06 7.8244594e-07 1.4389787e-06 
Loop time of 2.77558 on 104 procs for 240 steps with 288751 atoms

99.9% CPU use with 104 MPI tasks x 1 OpenMP threads

Minimization stats:
  Stopping criterion = energy tolerance
  Energy initial, next-to-last, final = 
      -1152448.9544376  -1152448.95614532  -1152448.95614532
  Force two-norm initial, final = 0.17566691 2.4477476e-05
  Force max component initial, final = 0.14212151 4.6219575e-06
  Final line search alpha, max atom move = 1.0000000 4.6219575e-06
  Iterations, force evaluations = 240 480

MPI task timing breakdown:
Section |  min time  |  avg time  |  max time  |%varavg| %total
---------------------------------------------------------------
Pair    | 0.73242    | 2.0209     | 2.6266     |  38.4 | 72.81
Neigh   | 0          | 0          | 0          |   0.0 |  0.00
Comm    | 0.042592   | 0.4514     | 1.3815     |  57.2 | 16.26
Output  | 0          | 0          | 0          |   0.0 |  0.00
Modify  | 3.0039e-05 | 0.0039511  | 0.0084531  |   3.0 |  0.14
Other   |            | 0.2993     |            |       | 10.78

Nlocal:        2776.45 ave        3960 max           0 min
Histogram: 8 4 4 0 4 12 8 2 28 34
Nghost:        3878.97 ave        5426 max         232 min
Histogram: 8 0 8 0 16 0 8 8 16 40
Neighs:        79213.6 ave      115417 max           0 min
Histogram: 8 4 4 0 10 6 8 8 24 32

Total # of neighbors = 8238219
Ave neighs/atom = 28.530530
Neighbor list builds = 0
Dangerous builds = 0
The dot product: -9.80084521350629e-09
Setting atom values ...
  1 settings made for x
  1 settings made for y
  1 settings made for z
Setting up cg style minimization ...
  Unit style    : metal
  Current step  : 5545
Per MPI rank memory allocation (min/avg/max) = 5.441 | 5.816 | 6.074 Mbytes
Step PotEng KinEng TotEng v_fx v_fy v_fz 
    5545   -1152448.9            0   -1152448.9 0.0011941052 0.0059316152 -0.0019848087 
    5741   -1152448.9            0   -1152448.9 -1.4627946e-05 4.3261141e-06 1.8151591e-05 
Loop time of 2.29937 on 104 procs for 196 steps with 288751 atoms

99.9% CPU use with 104 MPI tasks x 1 OpenMP threads

Minimization stats:
  Stopping criterion = energy tolerance
  Energy initial, next-to-last, final = 
     -1152448.92085097  -1152448.92256143  -1152448.92256143
  Force two-norm initial, final = 0.17635177 0.00012294836
  Force max component initial, final = 0.14379651 2.9194622e-05
  Final line search alpha, max atom move = 1.0000000 2.9194622e-05
  Iterations, force evaluations = 196 392

MPI task timing breakdown:
Section |  min time  |  avg time  |  max time  |%varavg| %total
---------------------------------------------------------------
Pair    | 0.59734    | 1.6542     | 2.1683     |  34.7 | 71.94
Neigh   | 0          | 0          | 0          |   0.0 |  0.00
Comm    | 0.035048   | 0.37212    | 1.125      |  51.1 | 16.18
Output  | 0          | 0          | 0          |   0.0 |  0.00
Modify  | 2.4454e-05 | 0.0032257  | 0.0069512  |   2.7 |  0.14
Other   |            | 0.2698     |            |       | 11.73

Nlocal:        2776.45 ave        3960 max           0 min
Histogram: 8 4 4 0 4 12 8 2 28 34
Nghost:        3878.97 ave        5426 max         232 min
Histogram: 8 0 8 0 16 0 8 8 16 40
Neighs:        79213.6 ave      115423 max           0 min
Histogram: 8 4 4 0 10 6 8 8 24 32

Total # of neighbors = 8238214
Ave neighs/atom = 28.530512
Neighbor list builds = 0
Dangerous builds = 0
The dot product: -1.22755090095657e-07
Setting atom values ...
  1 settings made for x
  1 settings made for y
  1 settings made for z
Setting up cg style minimization ...
  Unit style    : metal
  Current step  : 5741
Per MPI rank memory allocation (min/avg/max) = 5.441 | 5.816 | 6.074 Mbytes
Step PotEng KinEng TotEng v_fx v_fy v_fz 
    5741   -1152448.9            0   -1152448.9 -0.0008699711 0.0039529318 0.00078116342 
    5911   -1152448.9            0   -1152448.9 -1.1290932e-05 4.4011672e-06 1.3671828e-05 
Loop time of 1.96246 on 104 procs for 170 steps with 288751 atoms

99.9% CPU use with 104 MPI tasks x 1 OpenMP threads

Minimization stats:
  Stopping criterion = energy tolerance
  Energy initial, next-to-last, final = 
     -1152448.88635246  -1152448.88797479  -1152448.88797479
  Force two-norm initial, final = 0.17724221 0.00021420232
  Force max component initial, final = 0.1454258 2.5391114e-05
  Final line search alpha, max atom move = 1.0000000 2.5391114e-05
  Iterations, force evaluations = 170 340

MPI task timing breakdown:
Section |  min time  |  avg time  |  max time  |%varavg| %total
---------------------------------------------------------------
Pair    | 0.52213    | 1.4302     | 1.8612     |  32.2 | 72.88
Neigh   | 0          | 0          | 0          |   0.0 |  0.00
Comm    | 0.029793   | 0.31694    | 0.97199    |  48.3 | 16.15
Output  | 0          | 0          | 0          |   0.0 |  0.00
Modify  | 2.1369e-05 | 0.0028008  | 0.0060054  |   2.5 |  0.14
Other   |            | 0.2125     |            |       | 10.83

Nlocal:        2776.45 ave        3960 max           0 min
Histogram: 8 4 4 0 4 12 8 2 28 34
Nghost:        3878.96 ave        5426 max         232 min
Histogram: 8 0 8 0 16 0 8 8 16 40
Neighs:        79213.6 ave      115434 max           0 min
Histogram: 8 4 4 0 10 6 8 8 24 32

Total # of neighbors = 8238216
Ave neighs/atom = 28.530519
Neighbor list builds = 0
Dangerous builds = 0
The dot product: -7.55685147378026e-08
Setting atom values ...
  1 settings made for x
  1 settings made for y
  1 settings made for z
Setting up cg style minimization ...
  Unit style    : metal
  Current step  : 5911
Per MPI rank memory allocation (min/avg/max) = 5.441 | 5.816 | 6.074 Mbytes
Step PotEng KinEng TotEng v_fx v_fy v_fz 
    5911   -1152448.9            0   -1152448.9 -0.0037288211 0.0026230111 0.0043648414 
    6000   -1152448.9            0   -1152448.9 -6.8225978e-05 -4.0288448e-06 8.3641283e-05 
    6104   -1152448.9            0   -1152448.9 -1.5572699e-05 1.7519393e-06 1.889725e-05 
Loop time of 2.25298 on 104 procs for 193 steps with 288751 atoms

99.9% CPU use with 104 MPI tasks x 1 OpenMP threads

Minimization stats:
  Stopping criterion = energy tolerance
  Energy initial, next-to-last, final = 
     -1152448.85071359  -1152448.85233841  -1152448.85233841
  Force two-norm initial, final = 0.17857725 0.00011813423
  Force max component initial, final = 0.14720264 2.4367215e-05
  Final line search alpha, max atom move = 1.0000000 2.4367215e-05
  Iterations, force evaluations = 193 386

MPI task timing breakdown:
Section |  min time  |  avg time  |  max time  |%varavg| %total
---------------------------------------------------------------
Pair    | 0.58717    | 1.6255     | 2.1338     |  34.3 | 72.15
Neigh   | 0          | 0          | 0          |   0.0 |  0.00
Comm    | 0.0336     | 0.36159    | 1.1073     |  51.3 | 16.05
Output  | 9.5318e-05 | 0.00011529 | 0.00025959 |   0.0 |  0.01
Modify  | 2.4642e-05 | 0.0031765  | 0.0068101  |   2.7 |  0.14
Other   |            | 0.2626     |            |       | 11.66

Nlocal:        2776.45 ave        3960 max           0 min
Histogram: 8 4 4 0 4 12 8 2 28 34
Nghost:        3878.97 ave        5426 max         232 min
Histogram: 8 0 8 0 16 0 8 8 16 40
Neighs:        79213.6 ave      115429 max           0 min
Histogram: 8 4 4 0 10 6 8 8 24 32

Total # of neighbors = 8238215
Ave neighs/atom = 28.530516
Neighbor list builds = 0
Dangerous builds = 0
The dot product: -8.86160234170092e-08
Setting atom values ...
  1 settings made for x
  1 settings made for y
  1 settings made for z
Setting up cg style minimization ...
  Unit style    : metal
  Current step  : 6104
Per MPI rank memory allocation (min/avg/max) = 5.441 | 5.816 | 6.074 Mbytes
Step PotEng KinEng TotEng v_fx v_fy v_fz 
    6104   -1152448.8            0   -1152448.8 -0.0062809049 0.0019414248 0.0074438888 
    6313   -1152448.8            0   -1152448.8 1.3020369e-05 -3.1756943e-06 -1.5491728e-05 
Loop time of 2.40816 on 104 procs for 209 steps with 288751 atoms

99.9% CPU use with 104 MPI tasks x 1 OpenMP threads

Minimization stats:
  Stopping criterion = energy tolerance
  Energy initial, next-to-last, final = 
     -1152448.81407218  -1152448.81583207  -1152448.81583207
  Force two-norm initial, final = 0.17976448 8.3222077e-05
  Force max component initial, final = 0.14872031 1.9966430e-05
  Final line search alpha, max atom move = 1.0000000 1.9966430e-05
  Iterations, force evaluations = 209 418

MPI task timing breakdown:
Section |  min time  |  avg time  |  max time  |%varavg| %total
---------------------------------------------------------------
Pair    | 0.64156    | 1.7522     | 2.2844     |  35.6 | 72.76
Neigh   | 0          | 0          | 0          |   0.0 |  0.00
Comm    | 0.036222   | 0.38834    | 1.1821     |  53.2 | 16.13
Output  | 0          | 0          | 0          |   0.0 |  0.00
Modify  | 2.627e-05  | 0.0034317  | 0.0073813  |   2.8 |  0.14
Other   |            | 0.2642     |            |       | 10.97

Nlocal:        2776.45 ave        3959 max           0 min
Histogram: 8 4 4 0 4 12 8 2 28 34
Nghost:        3878.97 ave        5426 max         232 min
Histogram: 8 0 8 0 16 0 8 8 16 40
Neighs:        79213.6 ave      115386 max           0 min
Histogram: 8 4 4 0 10 6 8 8 24 32

Total # of neighbors = 8238213
Ave neighs/atom = 28.530509
Neighbor list builds = 0
Dangerous builds = 0
The dot product: 6.3677981462012e-08
Setting atom values ...
  1 settings made for x
  1 settings made for y
  1 settings made for z
Setting up cg style minimization ...
  Unit style    : metal
  Current step  : 6313
Per MPI rank memory allocation (min/avg/max) = 5.441 | 5.816 | 6.074 Mbytes
Step PotEng KinEng TotEng v_fx v_fy v_fz 
    6313   -1152448.8            0   -1152448.8 -0.0083621675 0.0017419863   0.00987133 
    6518   -1152448.8            0   -1152448.8 1.5665483e-05 -2.779517e-06 -1.8526975e-05 
Loop time of 2.40748 on 104 procs for 205 steps with 288751 atoms

99.9% CPU use with 104 MPI tasks x 1 OpenMP threads

Minimization stats:
  Stopping criterion = energy tolerance
  Energy initial, next-to-last, final = 
     -1152448.77672948  -1152448.77834694  -1152448.77834694
  Force two-norm initial, final = 0.1803655 8.5796133e-05
  Force max component initial, final = 0.14979031 1.8526975e-05
  Final line search alpha, max atom move = 1.0000000 1.8526975e-05
  Iterations, force evaluations = 205 410

MPI task timing breakdown:
Section |  min time  |  avg time  |  max time  |%varavg| %total
---------------------------------------------------------------
Pair    | 0.62297    | 1.7309     | 2.2625     |  35.5 | 71.90
Neigh   | 0          | 0          | 0          |   0.0 |  0.00
Comm    | 0.037189   | 0.38788    | 1.1788     |  52.8 | 16.11
Output  | 0          | 0          | 0          |   0.0 |  0.00
Modify  | 2.5741e-05 | 0.003379   | 0.0072724  |   2.8 |  0.14
Other   |            | 0.2853     |            |       | 11.85

Nlocal:        2776.45 ave        3959 max           0 min
Histogram: 8 4 4 0 4 12 8 2 28 34
Nghost:        3878.94 ave        5425 max         232 min
Histogram: 8 0 8 0 16 0 8 8 16 40
Neighs:        79213.6 ave      115398 max           0 min
Histogram: 8 4 4 0 10 6 8 8 24 32

Total # of neighbors = 8238215
Ave neighs/atom = 28.530516
Neighbor list builds = 0
Dangerous builds = 0
The dot product: 5.04299666700726e-08
Setting atom values ...
  1 settings made for x
  1 settings made for y
  1 settings made for z
Setting up cg style minimization ...
  Unit style    : metal
  Current step  : 6518
Per MPI rank memory allocation (min/avg/max) = 5.441 | 5.816 | 6.074 Mbytes
Step PotEng KinEng TotEng v_fx v_fy v_fz 
    6518   -1152448.7            0   -1152448.7  -0.01151936   0.00205552  0.013535848 
    6713   -1152448.7            0   -1152448.7 1.3854772e-05 -1.8824069e-06 -1.6321983e-05 
Loop time of 2.25698 on 104 procs for 195 steps with 288751 atoms

99.9% CPU use with 104 MPI tasks x 1 OpenMP threads

Minimization stats:
  Stopping criterion = energy tolerance
  Energy initial, next-to-last, final = 
     -1152448.73823532  -1152448.73988169  -1152448.73988169
  Force two-norm initial, final = 0.18130788 0.00011854137
  Force max component initial, final = 0.15112734 1.6321983e-05
  Final line search alpha, max atom move = 1.0000000 1.6321983e-05
  Iterations, force evaluations = 195 390

MPI task timing breakdown:
Section |  min time  |  avg time  |  max time  |%varavg| %total
---------------------------------------------------------------
Pair    | 0.59114    | 1.6358     | 2.1339     |  34.5 | 72.48
Neigh   | 0          | 0          | 0          |   0.0 |  0.00
Comm    | 0.032823   | 0.36596    | 1.1162     |  51.4 | 16.21
Output  | 0          | 0          | 0          |   0.0 |  0.00
Modify  | 2.4662e-05 | 0.0032076  | 0.0068608  |   2.7 |  0.14
Other   |            | 0.252      |            |       | 11.17

Nlocal:        2776.45 ave        3959 max           0 min
Histogram: 8 4 4 0 4 12 8 2 28 34
Nghost:        3878.92 ave        5425 max         232 min
Histogram: 8 0 8 0 16 0 8 8 16 40
Neighs:        79213.6 ave      115398 max           0 min
Histogram: 8 4 4 0 10 6 8 8 24 32

Total # of neighbors = 8238213
Ave neighs/atom = 28.530509
Neighbor list builds = 0
Dangerous builds = 0
The dot product: 2.5478893861139e-08
Setting atom values ...
  1 settings made for x
  1 settings made for y
  1 settings made for z
Setting up cg style minimization ...
  Unit style    : metal
  Current step  : 6713
Per MPI rank memory allocation (min/avg/max) = 5.441 | 5.816 | 6.074 Mbytes
Step PotEng KinEng TotEng v_fx v_fy v_fz 
    6713   -1152448.7            0   -1152448.7 -0.014257551 0.0027481434  0.016678749 
    6876   -1152448.7            0   -1152448.7 2.2844872e-05 -5.4213253e-06 -2.6651238e-05 
Loop time of 1.89747 on 104 procs for 163 steps with 288751 atoms

99.9% CPU use with 104 MPI tasks x 1 OpenMP threads

Minimization stats:
  Stopping criterion = energy tolerance
  Energy initial, next-to-last, final = 
     -1152448.69891097   -1152448.7007961   -1152448.7007961
  Force two-norm initial, final = 0.18150946 0.00013536947
  Force max component initial, final = 0.15206334 2.8934094e-05
  Final line search alpha, max atom move = 1.0000000 2.8934094e-05
  Iterations, force evaluations = 163 326

MPI task timing breakdown:
Section |  min time  |  avg time  |  max time  |%varavg| %total
---------------------------------------------------------------
Pair    | 0.49669    | 1.3775     | 1.7952     |  31.6 | 72.60
Neigh   | 0          | 0          | 0          |   0.0 |  0.00
Comm    | 0.029485   | 0.30653    | 0.93834    |  47.4 | 16.15
Output  | 0          | 0          | 0          |   0.0 |  0.00
Modify  | 2.0281e-05 | 0.0026839  | 0.0057682  |   2.5 |  0.14
Other   |            | 0.2107     |            |       | 11.10

Nlocal:        2776.45 ave        3958 max           0 min
Histogram: 8 4 4 0 4 12 8 2 28 34
Nghost:        3878.92 ave        5425 max         232 min
Histogram: 8 0 8 0 16 0 8 8 16 40
Neighs:        79213.6 ave      115375 max           0 min
Histogram: 8 4 4 0 10 6 8 8 24 32

Total # of neighbors = 8238215
Ave neighs/atom = 28.530516
Neighbor list builds = 0
Dangerous builds = 0
The dot product: 2.37576359360843e-08
Setting atom values ...
  1 settings made for x
  1 settings made for y
  1 settings made for z
Setting up cg style minimization ...
  Unit style    : metal
  Current step  : 6876
Per MPI rank memory allocation (min/avg/max) = 5.441 | 5.816 | 6.074 Mbytes
Step PotEng KinEng TotEng v_fx v_fy v_fz 
    6876   -1152448.7            0   -1152448.7 -0.016315653 0.0032916698  0.019039416 
    7000   -1152448.7            0   -1152448.7 5.0481419e-05 -1.0842095e-05 -5.8860542e-05 
    7047   -1152448.7            0   -1152448.7 4.1091091e-06 -3.7292394e-06 -4.581903e-06 
Loop time of 1.97327 on 104 procs for 171 steps with 288751 atoms

99.9% CPU use with 104 MPI tasks x 1 OpenMP threads

Minimization stats:
  Stopping criterion = energy tolerance
  Energy initial, next-to-last, final = 
     -1152448.65945293  -1152448.66124377  -1152448.66124377
  Force two-norm initial, final = 0.18017904 0.00012430966
  Force max component initial, final = 0.15187505 2.2484083e-05
  Final line search alpha, max atom move = 1.0000000 2.2484083e-05
  Iterations, force evaluations = 171 342

MPI task timing breakdown:
Section |  min time  |  avg time  |  max time  |%varavg| %total
---------------------------------------------------------------
Pair    | 0.52425    | 1.4372     | 1.8714     |  32.3 | 72.83
Neigh   | 0          | 0          | 0          |   0.0 |  0.00
Comm    | 0.029748   | 0.31924    | 0.97493    |  48.3 | 16.18
Output  | 0.00010869 | 0.00011429 | 0.00027599 |   0.0 |  0.01
Modify  | 2.1407e-05 | 0.0028084  | 0.0060265  |   2.5 |  0.14
Other   |            | 0.214      |            |       | 10.84

Nlocal:        2776.45 ave        3958 max           0 min
Histogram: 8 4 4 0 4 12 8 2 28 34
Nghost:        3878.88 ave        5425 max         232 min
Histogram: 8 0 8 0 16 0 8 8 16 40
Neighs:        79213.5 ave      115380 max           0 min
Histogram: 8 4 4 0 10 6 8 8 24 32

Total # of neighbors = 8238200
Ave neighs/atom = 28.530464
Neighbor list builds = 0
Dangerous builds = 0
The dot product: 6.10764332642672e-10
Setting atom values ...
  1 settings made for x
  1 settings made for y
  1 settings made for z
Setting up cg style minimization ...
  Unit style    : metal
  Current step  : 7047
Per MPI rank memory allocation (min/avg/max) = 5.441 | 5.816 | 6.074 Mbytes
Step PotEng KinEng TotEng v_fx v_fy v_fz 
    7047   -1152448.6            0   -1152448.6 -0.019204058 0.0037355875  0.022449143 
    7254   -1152448.6            0   -1152448.6 4.8281746e-07 -1.7289797e-06 -4.4003052e-07 
Loop time of 2.40968 on 104 procs for 207 steps with 288751 atoms

99.9% CPU use with 104 MPI tasks x 1 OpenMP threads

Minimization stats:
  Stopping criterion = energy tolerance
  Energy initial, next-to-last, final = 
     -1152448.61981787  -1152448.62196801  -1152448.62196801
  Force two-norm initial, final = 0.17911048 0.00014211626
  Force max component initial, final = 0.15119133 1.1263904e-05
  Final line search alpha, max atom move = 1.0000000 1.1263904e-05
  Iterations, force evaluations = 207 414

MPI task timing breakdown:
Section |  min time  |  avg time  |  max time  |%varavg| %total
---------------------------------------------------------------
Pair    | 0.63223    | 1.745      | 2.2869     |  35.5 | 72.42
Neigh   | 0          | 0          | 0          |   0.0 |  0.00
Comm    | 0.035602   | 0.38994    | 1.1964     |  53.1 | 16.18
Output  | 0          | 0          | 0          |   0.0 |  0.00
Modify  | 2.5632e-05 | 0.0034069  | 0.0073296  |   2.8 |  0.14
Other   |            | 0.2713     |            |       | 11.26

Nlocal:        2776.45 ave        3957 max           0 min
Histogram: 8 4 4 0 4 12 8 2 28 34
Nghost:        3878.88 ave        5425 max         232 min
Histogram: 8 0 8 0 16 0 8 8 16 40
Neighs:        79213.5 ave      115352 max           0 min
Histogram: 8 4 4 0 10 6 8 8 24 32

Total # of neighbors = 8238201
Ave neighs/atom = 28.530467
Neighbor list builds = 0
Dangerous builds = 0
The dot product: 2.22533464561214e-09
Setting atom values ...
  1 settings made for x
  1 settings made for y
  1 settings made for z
Setting up cg style minimization ...
  Unit style    : metal
  Current step  : 7254
Per MPI rank memory allocation (min/avg/max) = 5.441 | 5.816 | 6.074 Mbytes
Step PotEng KinEng TotEng v_fx v_fy v_fz 
    7254   -1152448.6            0   -1152448.6 -0.021526839 0.00085557745  0.025462076 
    7519   -1152448.6            0   -1152448.6 -8.9870636e-06 7.6615425e-07 1.0597496e-05 
Loop time of 3.06118 on 104 procs for 265 steps with 288751 atoms

99.9% CPU use with 104 MPI tasks x 1 OpenMP threads

Minimization stats:
  Stopping criterion = energy tolerance
  Energy initial, next-to-last, final = 
     -1152448.58157804  -1152448.58608987  -1152448.58608987
  Force two-norm initial, final = 0.17844416 6.8894248e-05
  Force max component initial, final = 0.14829359 1.1642416e-05
  Final line search alpha, max atom move = 1.0000000 1.1642416e-05
  Iterations, force evaluations = 265 530

MPI task timing breakdown:
Section |  min time  |  avg time  |  max time  |%varavg| %total
---------------------------------------------------------------
Pair    | 0.81507    | 2.2271     | 2.8942     |  40.1 | 72.75
Neigh   | 1.065e-05  | 0.0029541  | 0.0043689  |   2.2 |  0.10
Comm    | 0.046621   | 0.4951     | 1.5143     |  60.2 | 16.17
Output  | 0          | 0          | 0          |   0.0 |  0.00
Modify  | 3.3624e-05 | 0.0043483  | 0.0093114  |   3.1 |  0.14
Other   |            | 0.3316     |            |       | 10.83

Nlocal:        2776.45 ave        3955 max           0 min
Histogram: 8 4 4 0 4 12 8 0 30 34
Nghost:        3878.97 ave        5425 max         232 min
Histogram: 8 0 8 0 16 0 8 8 16 40
Neighs:        79213.4 ave      115305 max           0 min
Histogram: 8 4 4 0 10 6 8 8 24 32

Total # of neighbors = 8238194
Ave neighs/atom = 28.530443
Neighbor list builds = 1
Dangerous builds = 0
The dot product: -1.73308663818391e-07
Setting atom values ...
  1 settings made for x
  1 settings made for y
  1 settings made for z
Setting up cg style minimization ...
  Unit style    : metal
  Current step  : 7519
Per MPI rank memory allocation (min/avg/max) = 5.441 | 5.816 | 6.074 Mbytes
Step PotEng KinEng TotEng v_fx v_fy v_fz 
    7519   -1152448.6            0   -1152448.6 -0.011708788 -0.001245417  0.013545169 
    7790   -1152448.6            0   -1152448.6 6.6772482e-07 -1.2692664e-07 -7.5577951e-07 
Loop time of 3.18657 on 104 procs for 271 steps with 288751 atoms

99.9% CPU use with 104 MPI tasks x 1 OpenMP threads

Minimization stats:
  Stopping criterion = energy tolerance
  Energy initial, next-to-last, final = 
     -1152448.55847743  -1152448.56157452  -1152448.56157452
  Force two-norm initial, final = 0.18441074 8.2371974e-06
  Force max component initial, final = 0.14847589 1.0805677e-06
  Final line search alpha, max atom move = 1.0000000 1.0805677e-06
  Iterations, force evaluations = 271 542

MPI task timing breakdown:
Section |  min time  |  avg time  |  max time  |%varavg| %total
---------------------------------------------------------------
Pair    | 0.82505    | 2.2917     | 3.0116     |  40.9 | 71.92
Neigh   | 0          | 0          | 0          |   0.0 |  0.00
Comm    | 0.053064   | 0.51229    | 1.5539     |  60.4 | 16.08
Output  | 0          | 0          | 0          |   0.0 |  0.00
Modify  | 3.3838e-05 | 0.0044567  | 0.0095693  |   3.2 |  0.14
Other   |            | 0.3781     |            |       | 11.87

Nlocal:        2776.45 ave        3957 max           0 min
Histogram: 8 4 4 0 4 12 8 2 28 34
Nghost:        3879.03 ave        5426 max         232 min
Histogram: 8 0 8 0 16 0 8 8 16 40
Neighs:        79213.5 ave      115357 max           0 min
Histogram: 8 4 4 0 10 6 8 8 24 32

Total # of neighbors = 8238199
Ave neighs/atom = 28.530461
Neighbor list builds = 0
Dangerous builds = 0
The dot product: 6.23093126481443e-09
Setting atom values ...
  1 settings made for x
  1 settings made for y
  1 settings made for z
Setting up cg style minimization ...
  Unit style    : metal
  Current step  : 7790
Per MPI rank memory allocation (min/avg/max) = 5.441 | 5.816 | 6.074 Mbytes
Step PotEng KinEng TotEng v_fx v_fy v_fz 
    7790   -1152448.5            0   -1152448.5 -0.024690994 0.0041738333   0.02754736 
    7993   -1152448.5            0   -1152448.5 -1.7286695e-05 1.6077951e-06 1.9399277e-05 
[...]
Histogram: 8 0 8 0 16 0 8 8 16 40
Neighs:        79213.2 ave      115484 max           0 min
Histogram: 8 4 4 0 10 6 8 8 24 32

Total # of neighbors = 8238174
Ave neighs/atom = 28.530374
Neighbor list builds = 0
Dangerous builds = 0
The dot product: 1.72680932311985e-08
Setting atom values ...
  1 settings made for x
  1 settings made for y
  1 settings made for z
Setting up cg style minimization ...
  Unit style    : metal
  Current step  : 27942
Per MPI rank memory allocation (min/avg/max) = 5.441 | 5.816 | 6.074 Mbytes
Step PotEng KinEng TotEng v_fx v_fy v_fz 
   27942   -1152449.1            0   -1152449.1 0.00077033419 0.0083390349 -0.010881749 
   28000   -1152449.1            0   -1152449.1 1.8622246e-05 2.1231411e-05 -3.9670841e-05 
   28163   -1152449.1            0   -1152449.1 -2.8321219e-06 -8.3770244e-07 3.0715373e-06 
Loop time of 2.57614 on 104 procs for 221 steps with 288751 atoms

99.9% CPU use with 104 MPI tasks x 1 OpenMP threads

Minimization stats:
  Stopping criterion = energy tolerance
  Energy initial, next-to-last, final = 
     -1152449.12557619  -1152449.12692459  -1152449.12692459
  Force two-norm initial, final = 0.16244979 2.0315442e-05
  Force max component initial, final = 0.093642594 3.0715373e-06
  Final line search alpha, max atom move = 1.0000000 3.0715373e-06
  Iterations, force evaluations = 221 442

MPI task timing breakdown:
Section |  min time  |  avg time  |  max time  |%varavg| %total
---------------------------------------------------------------
Pair    | 0.67368    | 1.8568     | 2.4388     |  36.7 | 72.07
Neigh   | 0          | 0          | 0          |   0.0 |  0.00
Comm    | 0.048599   | 0.4217     | 1.2538     |  53.4 | 16.37
Output  | 9.3545e-05 | 0.00010405 | 0.0002537  |   0.0 |  0.00
Modify  | 2.6282e-05 | 0.0036284  | 0.0078245  |   2.8 |  0.14
Other   |            | 0.294      |            |       | 11.41

Nlocal:        2776.45 ave        3961 max           0 min
Histogram: 8 4 4 0 6 10 8 4 26 34
Nghost:        3879.08 ave        5424 max         232 min
Histogram: 8 0 8 0 16 0 8 8 16 40
Neighs:        79213.2 ave      115487 max           0 min
Histogram: 8 4 4 0 10 6 8 8 24 32

Total # of neighbors = 8238174
Ave neighs/atom = 28.530374
Neighbor list builds = 0
Dangerous builds = 0
The dot product: -1.78731138163319e-09
Setting atom values ...
  1 settings made for x
  1 settings made for y
  1 settings made for z
Setting up cg style minimization ...
  Unit style    : metal
  Current step  : 28163
Per MPI rank memory allocation (min/avg/max) = 5.441 | 5.816 | 6.074 Mbytes
Step PotEng KinEng TotEng v_fx v_fy v_fz 
   28163   -1152449.1            0   -1152449.1 0.00091361267 0.0072747447 -0.009678595 
   28345   -1152449.1            0   -1152449.1 2.8509403e-05 1.6022736e-06 -2.2457985e-05 
Loop time of 2.10114 on 104 procs for 182 steps with 288751 atoms

99.9% CPU use with 104 MPI tasks x 1 OpenMP threads

Minimization stats:
  Stopping criterion = energy tolerance
  Energy initial, next-to-last, final = 
     -1152449.10683876  -1152449.10819789  -1152449.10819789
  Force two-norm initial, final = 0.16202806 8.5752440e-05
  Force max component initial, final = 0.094533503 2.8509403e-05
  Final line search alpha, max atom move = 1.0000000 2.8509403e-05
  Iterations, force evaluations = 182 364

MPI task timing breakdown:
Section |  min time  |  avg time  |  max time  |%varavg| %total
---------------------------------------------------------------
Pair    | 0.55392    | 1.5259     | 1.9916     |  33.3 | 72.62
Neigh   | 0          | 0          | 0          |   0.0 |  0.00
Comm    | 0.031683   | 0.34351    | 1.037      |  49.3 | 16.35
Output  | 0          | 0          | 0          |   0.0 |  0.00
Modify  | 2.1685e-05 | 0.0029888  | 0.0064827  |   2.6 |  0.14
Other   |            | 0.2287     |            |       | 10.88

Nlocal:        2776.45 ave        3961 max           0 min
Histogram: 8 4 4 0 6 10 8 4 26 34
Nghost:        3879.09 ave        5424 max         232 min
Histogram: 8 0 8 0 16 0 8 8 16 40
Neighs:        79213.2 ave      115486 max           0 min
Histogram: 8 4 4 0 10 6 8 8 24 32

Total # of neighbors = 8238172
Ave neighs/atom = 28.530367
Neighbor list builds = 0
Dangerous builds = 0
The dot product: -7.74482398991429e-09
Setting atom values ...
  1 settings made for x
  1 settings made for y
  1 settings made for z
Setting up cg style minimization ...
  Unit style    : metal
  Current step  : 28345
Per MPI rank memory allocation (min/avg/max) = 5.441 | 5.816 | 6.074 Mbytes
Step PotEng KinEng TotEng v_fx v_fy v_fz 
   28345   -1152449.1            0   -1152449.1 0.0010937397  0.006139332 -0.0084087639 
   28521   -1152449.1            0   -1152449.1 -2.398867e-05 -3.5712049e-06 2.165369e-05 
Loop time of 2.06489 on 104 procs for 176 steps with 288751 atoms

99.9% CPU use with 104 MPI tasks x 1 OpenMP threads

Minimization stats:
  Stopping criterion = energy tolerance
  Energy initial, next-to-last, final = 
     -1152449.08704833  -1152449.08844473  -1152449.08844473
  Force two-norm initial, final = 0.16179999 0.00012530044
  Force max component initial, final = 0.095350291 3.3961474e-05
  Final line search alpha, max atom move = 1.0000000 3.3961474e-05
  Iterations, force evaluations = 176 352

MPI task timing breakdown:
Section |  min time  |  avg time  |  max time  |%varavg| %total
---------------------------------------------------------------
Pair    | 0.53701    | 1.4815     | 1.9421     |  32.9 | 71.75
Neigh   | 0          | 0          | 0          |   0.0 |  0.00
Comm    | 0.036156   | 0.33921    | 1.0212     |  47.8 | 16.43
Output  | 0          | 0          | 0          |   0.0 |  0.00
Modify  | 2.0103e-05 | 0.0028927  | 0.0062285  |   2.5 |  0.14
Other   |            | 0.2413     |            |       | 11.69

Nlocal:        2776.45 ave        3961 max           0 min
Histogram: 8 4 4 0 6 10 8 4 26 34
Nghost:        3879.12 ave        5425 max         232 min
Histogram: 8 0 8 0 16 0 8 8 16 40
Neighs:        79213.2 ave      115486 max           0 min
Histogram: 8 4 4 0 10 6 8 8 24 32

Total # of neighbors = 8238172
Ave neighs/atom = 28.530367
Neighbor list builds = 0
Dangerous builds = 0
The dot product: 4.51010325536649e-09
Setting atom values ...
  1 settings made for x
  1 settings made for y
  1 settings made for z
Setting up cg style minimization ...
  Unit style    : metal
  Current step  : 28521
Per MPI rank memory allocation (min/avg/max) = 5.441 | 5.816 | 6.074 Mbytes
Step PotEng KinEng TotEng v_fx v_fy v_fz 
   28521   -1152449.1            0   -1152449.1 0.0011618929 0.0051920683 -0.0072889879 
   28679   -1152449.1            0   -1152449.1 6.9547931e-05 3.2372046e-06 -5.3923207e-05 
Loop time of 1.83425 on 104 procs for 158 steps with 288751 atoms

99.9% CPU use with 104 MPI tasks x 1 OpenMP threads

Minimization stats:
  Stopping criterion = energy tolerance
  Energy initial, next-to-last, final = 
     -1152449.06625076  -1152449.06763685  -1152449.06763685
  Force two-norm initial, final = 0.16181964 0.00023211525
  Force max component initial, final = 0.096128094 6.9547931e-05
  Final line search alpha, max atom move = 1.0000000 6.9547931e-05
  Iterations, force evaluations = 158 316

MPI task timing breakdown:
Section |  min time  |  avg time  |  max time  |%varavg| %total
---------------------------------------------------------------
Pair    | 0.48501    | 1.3249     | 1.7343     |  30.9 | 72.23
Neigh   | 0          | 0          | 0          |   0.0 |  0.00
Comm    | 0.031112   | 0.30107    | 0.90781    |  45.6 | 16.41
Output  | 0          | 0          | 0          |   0.0 |  0.00
Modify  | 1.968e-05  | 0.0025994  | 0.0056024  |   2.4 |  0.14
Other   |            | 0.2057     |            |       | 11.22

Nlocal:        2776.45 ave        3961 max           0 min
Histogram: 8 4 4 0 6 10 8 4 26 34
Nghost:        3879.16 ave        5425 max         232 min
Histogram: 8 0 8 0 16 0 8 8 16 40
Neighs:        79213.2 ave      115483 max           0 min
Histogram: 8 4 4 0 10 6 8 8 24 32

Total # of neighbors = 8238171
Ave neighs/atom = 28.530364
Neighbor list builds = 0
Dangerous builds = 0
The dot product: -3.03248151355747e-08
Setting atom values ...
  1 settings made for x
  1 settings made for y
  1 settings made for z
Setting up cg style minimization ...
  Unit style    : metal
  Current step  : 28679
Per MPI rank memory allocation (min/avg/max) = 5.441 | 5.816 | 6.074 Mbytes
Step PotEng KinEng TotEng v_fx v_fy v_fz 
   28679     -1152449            0     -1152449 0.0012302887 0.0043086853 -0.0062452238 
   28984     -1152449            0     -1152449 -4.7876494e-07 8.3750923e-10 3.4231106e-07 
Loop time of 3.52637 on 104 procs for 305 steps with 288751 atoms

99.9% CPU use with 104 MPI tasks x 1 OpenMP threads

Minimization stats:
  Stopping criterion = energy tolerance
  Energy initial, next-to-last, final = 
     -1152449.04429296   -1152449.0456463   -1152449.0456463
  Force two-norm initial, final = 0.16194694 1.8409363e-06
  Force max component initial, final = 0.096808636 5.8369863e-07
  Final line search alpha, max atom move = 1.0000000 5.8369863e-07
  Iterations, force evaluations = 305 610

MPI task timing breakdown:
Section |  min time  |  avg time  |  max time  |%varavg| %total
---------------------------------------------------------------
Pair    | 0.9341     | 2.5615     | 3.3356     |  43.1 | 72.64
Neigh   | 0          | 0          | 0          |   0.0 |  0.00
Comm    | 0.060057   | 0.57774    | 1.7595     |  63.9 | 16.38
Output  | 0          | 0          | 0          |   0.0 |  0.00
Modify  | 3.493e-05  | 0.0050118  | 0.010855   |   3.4 |  0.14
Other   |            | 0.3821     |            |       | 10.84

Nlocal:        2776.45 ave        3960 max           0 min
Histogram: 8 4 4 0 4 12 8 4 26 34
Nghost:        3879.16 ave        5425 max         232 min
Histogram: 8 0 8 0 16 0 8 8 16 40
Neighs:        79213.2 ave      115447 max           0 min
Histogram: 8 4 4 0 10 6 8 8 24 32

Total # of neighbors = 8238170
Ave neighs/atom = 28.530360
Neighbor list builds = 0
Dangerous builds = 0
The dot product: 2.53715766398741e-10
Setting atom values ...
  1 settings made for x
  1 settings made for y
  1 settings made for z
Setting up cg style minimization ...
  Unit style    : metal
  Current step  : 28984
Per MPI rank memory allocation (min/avg/max) = 5.441 | 5.816 | 6.074 Mbytes
Step PotEng KinEng TotEng v_fx v_fy v_fz 
   28984     -1152449            0     -1152449 0.00084641521  0.003520554 -0.004992559 
   29000     -1152449            0     -1152449 0.00019956405 -0.00020964293 0.00011810259 
   29145     -1152449            0     -1152449 -4.2684549e-05 -5.1163421e-06 3.6973397e-05 
Loop time of 1.86883 on 104 procs for 161 steps with 288751 atoms

99.9% CPU use with 104 MPI tasks x 1 OpenMP threads

Minimization stats:
  Stopping criterion = energy tolerance
  Energy initial, next-to-last, final = 
     -1152449.02103263  -1152449.02236507  -1152449.02236507
  Force two-norm initial, final = 0.16218371 0.00025507597
  Force max component initial, final = 0.097465658 6.6773288e-05
  Final line search alpha, max atom move = 1.0000000 6.6773288e-05
  Iterations, force evaluations = 161 322

MPI task timing breakdown:
Section |  min time  |  avg time  |  max time  |%varavg| %total
---------------------------------------------------------------
Pair    | 0.49266    | 1.3503     | 1.7671     |  31.3 | 72.25
Neigh   | 0          | 0          | 0          |   0.0 |  0.00
Comm    | 0.03204    | 0.30578    | 0.91596    |  45.9 | 16.36
Output  | 0.00011791 | 0.00012614 | 0.00022887 |   0.0 |  0.01
Modify  | 1.8388e-05 | 0.0026505  | 0.0057484  |   2.4 |  0.14
Other   |            | 0.21       |            |       | 11.23

Nlocal:        2776.45 ave        3960 max           0 min
Histogram: 8 4 4 0 4 12 8 4 26 34
Nghost:        3879.16 ave        5425 max         232 min
Histogram: 8 0 8 0 16 0 8 8 16 40
Neighs:        79213.2 ave      115448 max           0 min
Histogram: 8 4 4 0 10 6 8 8 24 32

Total # of neighbors = 8238171
Ave neighs/atom = 28.530364
Neighbor list builds = 0
Dangerous builds = 0
The dot product: 1.5000391717548e-08
Setting atom values ...
  1 settings made for x
  1 settings made for y
  1 settings made for z
Setting up cg style minimization ...
  Unit style    : metal
  Current step  : 29145
Per MPI rank memory allocation (min/avg/max) = 5.441 | 5.816 | 6.074 Mbytes
Step PotEng KinEng TotEng v_fx v_fy v_fz 
   29145     -1152449            0     -1152449 0.00019991538  0.002847109 -0.0036927255 
   29328     -1152449            0     -1152449 -2.3414806e-05 2.0799009e-06 1.4185518e-05 
Loop time of 2.13295 on 104 procs for 183 steps with 288751 atoms

99.9% CPU use with 104 MPI tasks x 1 OpenMP threads

Minimization stats:
  Stopping criterion = energy tolerance
  Energy initial, next-to-last, final = 
     -1152448.99638014  -1152448.99769462  -1152448.99769462
  Force two-norm initial, final = 0.16259052 0.00012289265
  Force max component initial, final = 0.09804847 2.9100419e-05
  Final line search alpha, max atom move = 1.0000000 2.9100419e-05
  Iterations, force evaluations = 183 366

MPI task timing breakdown:
Section |  min time  |  avg time  |  max time  |%varavg| %total
---------------------------------------------------------------
Pair    | 0.56121    | 1.5385     | 2.0236     |  33.4 | 72.13
Neigh   | 0          | 0          | 0          |   0.0 |  0.00
Comm    | 0.036498   | 0.35379    | 1.0566     |  48.4 | 16.59
Output  | 0          | 0          | 0          |   0.0 |  0.00
Modify  | 2.1162e-05 | 0.003007   | 0.0065303  |   2.6 |  0.14
Other   |            | 0.2377     |            |       | 11.14

Nlocal:        2776.45 ave        3960 max           0 min
Histogram: 8 4 4 0 4 12 8 4 26 34
Nghost:        3879.16 ave        5425 max         232 min
Histogram: 8 0 8 0 16 0 8 8 16 40
Neighs:        79213.2 ave      115447 max           0 min
Histogram: 8 4 4 0 10 6 8 8 24 32

Total # of neighbors = 8238173
Ave neighs/atom = 28.530370
Neighbor list builds = 0
Dangerous builds = 0
The dot product: 2.13158518820282e-08
Setting atom values ...
  1 settings made for x
  1 settings made for y
  1 settings made for z
Setting up cg style minimization ...
  Unit style    : metal
  Current step  : 29328
Per MPI rank memory allocation (min/avg/max) = 5.441 | 5.816 | 6.074 Mbytes
Step PotEng KinEng TotEng v_fx v_fy v_fz 
   29328     -1152449            0     -1152449 -0.00059609779 0.0022529651 -0.0023833351 
   29497     -1152449            0     -1152449 3.0830464e-06 -2.5782724e-05 2.9952079e-05 
Loop time of 1.99551 on 104 procs for 169 steps with 288751 atoms

99.9% CPU use with 104 MPI tasks x 1 OpenMP threads

Minimization stats:
  Stopping criterion = energy tolerance
  Energy initial, next-to-last, final = 
     -1152448.97023526  -1152448.97153523  -1152448.97153523
  Force two-norm initial, final = 0.16328725 0.00022291285
  Force max component initial, final = 0.098699845 4.0639161e-05
  Final line search alpha, max atom move = 1.0000000 4.0639161e-05
  Iterations, force evaluations = 169 338

MPI task timing breakdown:
Section |  min time  |  avg time  |  max time  |%varavg| %total
---------------------------------------------------------------
Pair    | 0.51714    | 1.4193     | 1.8624     |  32.2 | 71.12
Neigh   | 0          | 0          | 0          |   0.0 |  0.00
Comm    | 0.031462   | 0.32543    | 0.96129    |  46.5 | 16.31
Output  | 0          | 0          | 0          |   0.0 |  0.00
Modify  | 1.9633e-05 | 0.0027799  | 0.0060003  |   2.5 |  0.14
Other   |            | 0.248      |            |       | 12.43

Nlocal:        2776.45 ave        3960 max           0 min
Histogram: 8 4 4 0 4 12 8 4 26 34
Nghost:        3879.12 ave        5425 max         232 min
Histogram: 8 0 8 0 16 0 8 8 16 40
Neighs:        79213.2 ave      115445 max           0 min
Histogram: 8 4 4 0 10 6 8 8 24 32

Total # of neighbors = 8238171
Ave neighs/atom = 28.530364
Neighbor list builds = 0
Dangerous builds = 0
The dot product: -2.34631970667243e-08
Setting atom values ...
  1 settings made for x
  1 settings made for y
  1 settings made for z
Setting up cg style minimization ...
  Unit style    : metal
  Current step  : 29497
Per MPI rank memory allocation (min/avg/max) = 5.441 | 5.816 | 6.074 Mbytes
Step PotEng KinEng TotEng v_fx v_fy v_fz 
   29497   -1152448.9            0   -1152448.9 -0.0014161774 0.0017146527 -0.0011260903 
   29689   -1152448.9            0   -1152448.9 -4.9564616e-06 1.3182214e-07 3.382284e-06 
Loop time of 2.26424 on 104 procs for 192 steps with 288751 atoms

99.9% CPU use with 104 MPI tasks x 1 OpenMP threads

Minimization stats:
  Stopping criterion = energy tolerance
  Energy initial, next-to-last, final = 
     -1152448.94250699  -1152448.94380105  -1152448.94380105
  Force two-norm initial, final = 0.1641345 0.00010453029
  Force max component initial, final = 0.099249917 1.7586876e-05
  Final line search alpha, max atom move = 1.0000000 1.7586876e-05
  Iterations, force evaluations = 192 384

MPI task timing breakdown:
Section |  min time  |  avg time  |  max time  |%varavg| %total
---------------------------------------------------------------
Pair    | 0.58695    | 1.62       | 2.1475     |  34.5 | 71.55
Neigh   | 0          | 0          | 0          |   0.0 |  0.00
Comm    | 0.03681    | 0.37817    | 1.1278     |  49.2 | 16.70
Output  | 0          | 0          | 0          |   0.0 |  0.00
Modify  | 2.1595e-05 | 0.0031648  | 0.0068115  |   2.7 |  0.14
Other   |            | 0.2629     |            |       | 11.61

Nlocal:        2776.45 ave        3960 max           0 min
Histogram: 8 4 4 0 4 12 8 4 26 34
Nghost:        3879.09 ave        5425 max         232 min
Histogram: 8 0 8 0 16 0 8 8 16 40
Neighs:        79213.2 ave      115446 max           0 min
Histogram: 8 4 4 0 10 6 8 8 24 32

Total # of neighbors = 8238172
Ave neighs/atom = 28.530367
Neighbor list builds = 0
Dangerous builds = 0
The dot product: 6.42454437006588e-09
Setting atom values ...
  1 settings made for x
  1 settings made for y
  1 settings made for z
Setting up cg style minimization ...
  Unit style    : metal
  Current step  : 29689
Per MPI rank memory allocation (min/avg/max) = 5.441 | 5.816 | 6.074 Mbytes
Step PotEng KinEng TotEng v_fx v_fy v_fz 
   29689   -1152448.9            0   -1152448.9 -0.0020892582 0.0012905074 -0.00011691122 
   29892   -1152448.9            0   -1152448.9 -1.7882288e-06 4.0348299e-06 -3.7569725e-06 
Loop time of 2.36951 on 104 procs for 203 steps with 288751 atoms

99.9% CPU use with 104 MPI tasks x 1 OpenMP threads

Minimization stats:
  Stopping criterion = energy tolerance
  Energy initial, next-to-last, final = 
     -1152448.91312537  -1152448.91441904  -1152448.91441904
  Force two-norm initial, final = 0.16519401 7.8578449e-05
  Force max component initial, final = 0.09975167 9.6041720e-06
  Final line search alpha, max atom move = 1.0000000 9.6041720e-06
  Iterations, force evaluations = 203 406

MPI task timing breakdown:
Section |  min time  |  avg time  |  max time  |%varavg| %total
---------------------------------------------------------------
Pair    | 0.61945    | 1.7048     | 2.2241     |  35.0 | 71.95
Neigh   | 0          | 0          | 0          |   0.0 |  0.00
Comm    | 0.0401     | 0.38729    | 1.1596     |  51.7 | 16.34
Output  | 0          | 0          | 0          |   0.0 |  0.00
Modify  | 2.3115e-05 | 0.0033347  | 0.0072182  |   2.7 |  0.14
Other   |            | 0.2741     |            |       | 11.57

Nlocal:        2776.45 ave        3960 max           0 min
Histogram: 8 4 4 0 4 12 8 4 26 34
Nghost:        3879.08 ave        5425 max         232 min
Histogram: 8 0 8 0 16 0 8 8 16 40
Neighs:        79213.2 ave      115448 max           0 min
Histogram: 8 4 4 0 10 6 8 8 24 32

Total # of neighbors = 8238170
Ave neighs/atom = 28.530360
Neighbor list builds = 0
Dangerous builds = 0
The dot product: 3.21693303269604e-09
