LAMMPS (29 Oct 2020)
OMP_NUM_THREADS environment is not set. Defaulting to 1 thread. (../comm.cpp:94)
  using 1 OpenMP thread(s) per MPI task
OMP_NUM_THREADS environment is not set. Defaulting to 1 thread. (../comm.cpp:94)
  using 1 OpenMP thread(s) per MPI task
Reading data file ...
  orthogonal box = (-122.39241 -121.13707 -37.090501) to (122.39241 121.13707 37.090501)
  13 by 4 by 1 MPI processor grid
  reading atoms ...
  288751 atoms
  read_data CPU = 0.463 seconds
199981 atoms in group inner
88770 atoms in group outer
1 atoms in group carbon
Neighbor list info ...
  update every 1 steps, delay 0 steps, check yes
  max neighbors/atom: 2000, page size: 100000
  master list distance cutoff = 5.6
  ghost atom cutoff = 5.6
  binsize = 2.8, bins = 88 87 27
  1 neighbor lists, perpetual/occasional/extra = 1 0 0
  (1) pair eam/alloy, perpetual
      attributes: half, newton on
      pair build: half/bin/atomonly/newton
      stencil: half/bin/3d/newton
      bin: standard
Setting up cg style minimization ...
  Unit style    : metal
  Current step  : 0
Per MPI rank memory allocation (min/avg/max) = 5.465 | 6.344 | 6.728 Mbytes
Step v_fx v_fy v_fz PotEng KinEng TotEng 
       0  0.055880174   0.12507238 -0.0039949692   -1152444.6            0   -1152444.6 
     228 1.4847453e-05 4.7527045e-06 -1.8142612e-05     -1152449            0     -1152449 
Loop time of 5.10616 on 52 procs for 228 steps with 288751 atoms

99.9% CPU use with 52 MPI tasks x 1 OpenMP threads

Minimization stats:
  Stopping criterion = linesearch alpha is zero
  Energy initial, next-to-last, final = 
     -1152444.63021145  -1152448.97218894  -1152448.97218894
  Force two-norm initial, final = 23.793865 0.00018956328
  Force max component initial, final = 13.990800 2.9783213e-05
  Final line search alpha, max atom move = 0.25 7.4458032e-06
  Iterations, force evaluations = 228 456

MPI task timing breakdown:
Section |  min time  |  avg time  |  max time  |%varavg| %total
---------------------------------------------------------------
Pair    | 1.3738     | 3.6545     | 4.8063     |  51.5 | 71.57
Neigh   | 0.00018729 | 0.055039   | 0.076083   |   9.9 |  1.08
Comm    | 0.070997   | 0.81573    | 2.5485     |  79.7 | 15.98
Output  | 0          | 0          | 0          |   0.0 |  0.00
Modify  | 5.6068e-05 | 0.0050345  | 0.012751   |   4.4 |  0.10
Other   |            | 0.5758     |            |       | 11.28

Nlocal:        5552.90 ave        7900 max           0 min
Histogram: 4 2 2 0 2 6 4 0 14 18
Nghost:        6213.62 ave        8769 max         412 min
Histogram: 4 0 4 0 8 0 4 5 7 20
Neighs:       158427.0 ave      230184 max           0 min
Histogram: 4 2 2 0 5 3 4 4 12 16

Total # of neighbors = 8238206
Ave neighs/atom = 28.530485
Neighbor list builds = 9
Dangerous builds = 0
Setting atom values ...
  1 settings made for x
  1 settings made for y
  1 settings made for z
Setting up cg style minimization ...
  Unit style    : metal
  Current step  : 228
Per MPI rank memory allocation (min/avg/max) = 5.465 | 6.344 | 6.728 Mbytes
Step PotEng KinEng TotEng v_fx v_fy v_fz 
     228     -1152449            0     -1152449 -0.0092113936 -0.0083397326 0.00031814296 
     585     -1152449            0     -1152449 -2.6437146e-05 -8.8983825e-06 2.9461752e-05 
Loop time of 7.89012 on 52 procs for 357 steps with 288751 atoms

99.9% CPU use with 52 MPI tasks x 1 OpenMP threads

Minimization stats:
  Stopping criterion = linesearch alpha is zero
  Energy initial, next-to-last, final = 
     -1152448.96783098  -1152448.97091069  -1152448.97091069
  Force two-norm initial, final = 0.22569011 0.00012874941
  Force max component initial, final = 0.10757414 4.2288192e-05
  Final line search alpha, max atom move = 0.5 2.1144096e-05
  Iterations, force evaluations = 357 715

MPI task timing breakdown:
Section |  min time  |  avg time  |  max time  |%varavg| %total
---------------------------------------------------------------
Pair    | 2.0133     | 5.6847     | 7.5684     |  66.6 | 72.05
Neigh   | 0          | 0          | 0          |   0.0 |  0.00
Comm    | 0.099231   | 1.2686     | 3.9333     |  99.4 | 16.08
Output  | 0          | 0          | 0          |   0.0 |  0.00
Modify  | 0.0001144  | 0.01197    | 0.025793   |   5.2 |  0.15
Other   |            | 0.9248     |            |       | 11.72

Nlocal:        5552.90 ave        7900 max           0 min
Histogram: 4 2 2 0 2 6 4 0 14 18
Nghost:        6213.69 ave        8769 max         412 min
Histogram: 4 0 4 0 8 0 4 5 7 20
Neighs:       158427.0 ave      230207 max           0 min
Histogram: 4 2 2 0 5 3 4 4 12 16

Total # of neighbors = 8238205
Ave neighs/atom = 28.530481
Neighbor list builds = 0
Dangerous builds = 0
Setting atom values ...
  1 settings made for x
  1 settings made for y
  1 settings made for z
Setting up cg style minimization ...
  Unit style    : metal
  Current step  : 585
Per MPI rank memory allocation (min/avg/max) = 5.465 | 6.344 | 6.728 Mbytes
Step PotEng KinEng TotEng v_fx v_fy v_fz 
     585     -1152449            0     -1152449 0.0070498158  0.022107947  0.011414075 
     791     -1152449            0     -1152449 -1.6140635e-05 -4.8183419e-07 1.3203468e-05 
Loop time of 4.57529 on 52 procs for 206 steps with 288751 atoms

99.9% CPU use with 52 MPI tasks x 1 OpenMP threads

Minimization stats:
  Stopping criterion = linesearch alpha is zero
  Energy initial, next-to-last, final = 
     -1152448.96716124  -1152448.96905981  -1152448.96905981
  Force two-norm initial, final = 0.15833504 0.00010255305
  Force max component initial, final = 0.080504253 1.7971940e-05
  Final line search alpha, max atom move = 0.5 8.9859698e-06
  Iterations, force evaluations = 206 413

MPI task timing breakdown:
Section |  min time  |  avg time  |  max time  |%varavg| %total
---------------------------------------------------------------
Pair    | 1.181      | 3.2875     | 4.3766     |  50.3 | 71.85
Neigh   | 0          | 0          | 0          |   0.0 |  0.00
Comm    | 0.058995   | 0.73391    | 2.2729     |  75.5 | 16.04
Output  | 0          | 0          | 0          |   0.0 |  0.00
Modify  | 7.7968e-05 | 0.0069109  | 0.014873   |   3.9 |  0.15
Other   |            | 0.547      |            |       | 11.96

Nlocal:        5552.90 ave        7900 max           0 min
Histogram: 4 2 2 0 2 6 4 0 14 18
Nghost:        6213.65 ave        8769 max         412 min
Histogram: 4 0 4 0 8 0 4 5 7 20
Neighs:       158427.0 ave      230202 max           0 min
Histogram: 4 2 2 0 5 3 4 4 12 16

Total # of neighbors = 8238200
Ave neighs/atom = 28.530464
Neighbor list builds = 0
Dangerous builds = 0
The dot product: 2.43152377318893e-07
Setting atom values ...
  1 settings made for x
  1 settings made for y
  1 settings made for z
Setting up cg style minimization ...
  Unit style    : metal
  Current step  : 791
Per MPI rank memory allocation (min/avg/max) = 5.465 | 6.344 | 6.728 Mbytes
Step PotEng KinEng TotEng v_fx v_fy v_fz 
     791     -1152449            0     -1152449  0.018794437  0.043286512 0.0059356046 
     962     -1152449            0     -1152449 -2.7449862e-05 1.1964657e-06 1.4093606e-05 
Loop time of 3.77527 on 52 procs for 171 steps with 288751 atoms

99.9% CPU use with 52 MPI tasks x 1 OpenMP threads

Minimization stats:
  Stopping criterion = energy tolerance
  Energy initial, next-to-last, final = 
     -1152448.96445543  -1152448.96700293  -1152448.96700293
  Force two-norm initial, final = 0.16840995 0.00013993751
  Force max component initial, final = 0.09271522 2.8776876e-05
  Final line search alpha, max atom move = 1.0000000 2.8776876e-05
  Iterations, force evaluations = 171 342

MPI task timing breakdown:
Section |  min time  |  avg time  |  max time  |%varavg| %total
---------------------------------------------------------------
Pair    | 0.96245    | 2.7235     | 3.6245     |  46.1 | 72.14
Neigh   | 0          | 0          | 0          |   0.0 |  0.00
Comm    | 0.046885   | 0.60793    | 1.8883     |  69.4 | 16.10
Output  | 0          | 0          | 0          |   0.0 |  0.00
Modify  | 7.1027e-05 | 0.0057305  | 0.012421   |   3.6 |  0.15
Other   |            | 0.4381     |            |       | 11.60

Nlocal:        5552.90 ave        7900 max           0 min
Histogram: 4 2 2 0 2 6 4 0 14 18
Nghost:        6213.69 ave        8769 max         412 min
Histogram: 4 0 4 0 8 0 4 5 7 20
Neighs:       158427.0 ave      230176 max           0 min
Histogram: 4 2 2 0 5 3 4 4 12 16

Total # of neighbors = 8238204
Ave neighs/atom = 28.530478
Neighbor list builds = 0
Dangerous builds = 0
The dot product: 9.4035512257432e-07
Setting atom values ...
  1 settings made for x
  1 settings made for y
  1 settings made for z
Setting up cg style minimization ...
  Unit style    : metal
  Current step  : 962
Per MPI rank memory allocation (min/avg/max) = 5.465 | 6.344 | 6.728 Mbytes
Step PotEng KinEng TotEng v_fx v_fy v_fz 
     962     -1152449            0     -1152449  0.022758264  0.047718775  0.002502485 
    1000     -1152449            0     -1152449 -0.00019460328 4.2211007e-05 1.9816156e-05 
    1119     -1152449            0     -1152449 2.4818161e-05 -5.3515337e-07 -2.0834126e-06 
Loop time of 3.45196 on 52 procs for 157 steps with 288751 atoms

99.9% CPU use with 52 MPI tasks x 1 OpenMP threads

Minimization stats:
  Stopping criterion = energy tolerance
  Energy initial, next-to-last, final = 
     -1152448.96250816  -1152448.96547679  -1152448.96547679
  Force two-norm initial, final = 0.18934155 0.00010416938
  Force max component initial, final = 0.08605918 2.4818161e-05
  Final line search alpha, max atom move = 1.0000000 2.4818161e-05
  Iterations, force evaluations = 157 314

MPI task timing breakdown:
Section |  min time  |  avg time  |  max time  |%varavg| %total
---------------------------------------------------------------
Pair    | 0.8858     | 2.4927     | 3.3085     |  43.9 | 72.21
Neigh   | 0          | 0          | 0          |   0.0 |  0.00
Comm    | 0.043536   | 0.55494    | 1.7343     |  66.2 | 16.08
Output  | 0.00012293 | 0.00012734 | 0.00029106 |   0.0 |  0.00
Modify  | 6.5093e-05 | 0.0052487  | 0.01112    |   3.4 |  0.15
Other   |            | 0.399      |            |       | 11.56

Nlocal:        5552.90 ave        7902 max           0 min
Histogram: 4 2 2 0 2 6 4 0 15 17
Nghost:        6213.69 ave        8769 max         412 min
Histogram: 4 0 4 0 8 0 4 5 7 20
Neighs:       158427.0 ave      230243 max           0 min
Histogram: 4 2 2 0 5 3 4 4 12 16

Total # of neighbors = 8238211
Ave neighs/atom = 28.530502
Neighbor list builds = 0
Dangerous builds = 0
The dot product: -5.50888752706311e-07
Setting atom values ...
  1 settings made for x
  1 settings made for y
  1 settings made for z
Setting up cg style minimization ...
  Unit style    : metal
  Current step  : 1119
Per MPI rank memory allocation (min/avg/max) = 5.465 | 6.344 | 6.728 Mbytes
Step PotEng KinEng TotEng v_fx v_fy v_fz 
    1119     -1152449            0     -1152449  0.042376506  0.037728804 0.0056503829 
    1348     -1152449            0     -1152449 2.4472083e-05 5.4478748e-07 3.2409531e-06 
Loop time of 5.05961 on 52 procs for 229 steps with 288751 atoms

99.9% CPU use with 52 MPI tasks x 1 OpenMP threads

Minimization stats:
  Stopping criterion = linesearch alpha is zero
  Energy initial, next-to-last, final = 
     -1152448.96089538  -1152448.96415595  -1152448.96415595
  Force two-norm initial, final = 0.20455059 9.6714526e-05
  Force max component initial, final = 0.097760296 2.4472083e-05
  Final line search alpha, max atom move = 0.5 1.2236041e-05
  Iterations, force evaluations = 229 459

MPI task timing breakdown:
Section |  min time  |  avg time  |  max time  |%varavg| %total
---------------------------------------------------------------
Pair    | 1.2848     | 3.6444     | 4.8644     |  53.5 | 72.03
Neigh   | 0          | 0          | 0          |   0.0 |  0.00
Comm    | 0.063087   | 0.81357    | 2.524      |  79.9 | 16.08
Output  | 0          | 0          | 0          |   0.0 |  0.00
Modify  | 0.00010049 | 0.0076784  | 0.016727   |   4.2 |  0.15
Other   |            | 0.594      |            |       | 11.74

Nlocal:        5552.90 ave        7902 max           0 min
Histogram: 4 2 2 0 2 6 4 0 15 17
Nghost:        6213.69 ave        8769 max         412 min
Histogram: 4 0 4 0 8 0 4 5 7 20
Neighs:       158427.0 ave      230264 max           0 min
Histogram: 4 2 2 0 5 3 4 4 12 16

Total # of neighbors = 8238213
Ave neighs/atom = 28.530509
Neighbor list builds = 0
Dangerous builds = 0
The dot product: -3.38631272717441e-07
Setting atom values ...
  1 settings made for x
  1 settings made for y
  1 settings made for z
Setting up cg style minimization ...
  Unit style    : metal
  Current step  : 1348
Per MPI rank memory allocation (min/avg/max) = 5.465 | 6.344 | 6.728 Mbytes
Step PotEng KinEng TotEng v_fx v_fy v_fz 
    1348     -1152449            0     -1152449  0.052826187  0.031846028  0.012418407 
    1497     -1152449            0     -1152449 7.7777494e-06 2.6120826e-06 1.8715647e-06 
Loop time of 3.29068 on 52 procs for 149 steps with 288751 atoms

99.9% CPU use with 52 MPI tasks x 1 OpenMP threads

Minimization stats:
  Stopping criterion = energy tolerance
  Energy initial, next-to-last, final = 
     -1152448.95999225  -1152448.96252048  -1152448.96252048
  Force two-norm initial, final = 0.21464312 0.00023821424
  Force max component initial, final = 0.10934281 4.8985690e-05
  Final line search alpha, max atom move = 1.0000000 4.8985690e-05
  Iterations, force evaluations = 149 298

MPI task timing breakdown:
Section |  min time  |  avg time  |  max time  |%varavg| %total
---------------------------------------------------------------
Pair    | 0.84104    | 2.3668     | 3.1604     |  42.9 | 71.92
Neigh   | 0          | 0          | 0          |   0.0 |  0.00
Comm    | 0.039773   | 0.5271     | 1.6373     |  64.5 | 16.02
Output  | 0          | 0          | 0          |   0.0 |  0.00
Modify  | 5.8552e-05 | 0.0049962  | 0.010739   |   3.3 |  0.15
Other   |            | 0.3918     |            |       | 11.91

Nlocal:        5552.90 ave        7904 max           0 min
Histogram: 4 2 2 0 2 6 4 0 15 17
Nghost:        6213.50 ave        8769 max         412 min
Histogram: 4 0 4 0 8 0 4 5 7 20
Neighs:       158427.0 ave      230341 max           0 min
Histogram: 4 2 2 0 5 3 4 4 12 16

Total # of neighbors = 8238213
Ave neighs/atom = 28.530509
Neighbor list builds = 0
Dangerous builds = 0
The dot product: 1.50481958170214e-08
Setting atom values ...
  1 settings made for x
  1 settings made for y
  1 settings made for z
Setting up cg style minimization ...
  Unit style    : metal
  Current step  : 1497
Per MPI rank memory allocation (min/avg/max) = 5.465 | 6.344 | 6.728 Mbytes
Step PotEng KinEng TotEng v_fx v_fy v_fz 
    1497     -1152449            0     -1152449  0.063516211  0.033430006  0.013989568 
    1703     -1152449            0     -1152449 1.5694848e-05 1.3602083e-06 3.6954801e-06 
Loop time of 4.55231 on 52 procs for 206 steps with 288751 atoms

99.9% CPU use with 52 MPI tasks x 1 OpenMP threads

Minimization stats:
  Stopping criterion = energy tolerance
  Energy initial, next-to-last, final = 
     -1152448.95774664  -1152448.96022024  -1152448.96022024
  Force two-norm initial, final = 0.21706183 7.2807693e-05
  Force max component initial, final = 0.10942326 2.6720686e-05
  Final line search alpha, max atom move = 1.0000000 2.6720686e-05
  Iterations, force evaluations = 206 412

MPI task timing breakdown:
Section |  min time  |  avg time  |  max time  |%varavg| %total
---------------------------------------------------------------
Pair    | 1.1712     | 3.2829     | 4.3653     |  50.5 | 72.11
Neigh   | 0          | 0          | 0          |   0.0 |  0.00
Comm    | 0.055585   | 0.73349    | 2.2689     |  75.5 | 16.11
Output  | 0          | 0          | 0          |   0.0 |  0.00
Modify  | 8.6626e-05 | 0.0069412  | 0.01523    |   4.0 |  0.15
Other   |            | 0.529      |            |       | 11.62

Nlocal:        5552.90 ave        7905 max           0 min
Histogram: 4 2 2 0 2 6 4 0 15 17
Nghost:        6213.54 ave        8769 max         412 min
Histogram: 4 0 4 0 8 0 4 5 7 20
Neighs:       158427.0 ave      230364 max           0 min
Histogram: 4 2 2 0 5 3 4 4 12 16

Total # of neighbors = 8238210
Ave neighs/atom = 28.530499
Neighbor list builds = 0
Dangerous builds = 0
The dot product: 8.10878467423403e-08
Setting atom values ...
  1 settings made for x
  1 settings made for y
  1 settings made for z
Setting up cg style minimization ...
  Unit style    : metal
  Current step  : 1703
Per MPI rank memory allocation (min/avg/max) = 5.465 | 6.344 | 6.728 Mbytes
Step PotEng KinEng TotEng v_fx v_fy v_fz 
    1703     -1152449            0     -1152449   0.07023559  0.035512606  0.012870105 
    1896     -1152449            0     -1152449 -2.2093822e-05 -3.0222534e-06 -4.4391691e-06 
Loop time of 4.27376 on 52 procs for 193 steps with 288751 atoms

99.9% CPU use with 52 MPI tasks x 1 OpenMP threads

Minimization stats:
  Stopping criterion = energy tolerance
  Energy initial, next-to-last, final = 
     -1152448.95491088  -1152448.95751234  -1152448.95751234
  Force two-norm initial, final = 0.21696152 0.00015047453
  Force max component initial, final = 0.10706758 4.4759926e-05
  Final line search alpha, max atom move = 1.0000000 4.4759926e-05
  Iterations, force evaluations = 193 388

MPI task timing breakdown:
Section |  min time  |  avg time  |  max time  |%varavg| %total
---------------------------------------------------------------
Pair    | 1.0947     | 3.0816     | 4.0947     |  48.8 | 72.11
Neigh   | 0          | 0          | 0          |   0.0 |  0.00
Comm    | 0.052417   | 0.68633    | 2.1384     |  73.7 | 16.06
Output  | 0          | 0          | 0          |   0.0 |  0.00
Modify  | 8.3291e-05 | 0.0065179  | 0.013812   |   3.8 |  0.15
Other   |            | 0.4993     |            |       | 11.68

Nlocal:        5552.90 ave        7906 max           0 min
Histogram: 4 2 2 0 2 6 4 0 15 17
Nghost:        6213.62 ave        8769 max         412 min
Histogram: 4 0 4 0 8 0 4 5 7 20
Neighs:       158427.0 ave      230400 max           0 min
Histogram: 4 2 2 0 5 3 4 4 12 16

Total # of neighbors = 8238206
Ave neighs/atom = 28.530485
Neighbor list builds = 0
Dangerous builds = 0
The dot product: -1.06252560428713e-07
Setting atom values ...
  1 settings made for x
  1 settings made for y
  1 settings made for z
Setting up cg style minimization ...
  Unit style    : metal
  Current step  : 1896
Per MPI rank memory allocation (min/avg/max) = 5.465 | 6.344 | 6.728 Mbytes
Step PotEng KinEng TotEng v_fx v_fy v_fz 
    1896     -1152449            0     -1152449  0.073318566   0.03726164  0.011123721 
    2000     -1152449            0     -1152449 1.3679651e-05 7.0616365e-06 2.0687699e-06 
    2078     -1152449            0     -1152449 -2.7762984e-05 -1.9589711e-06 -4.9532919e-06 
Loop time of 4.0151 on 52 procs for 182 steps with 288751 atoms

99.9% CPU use with 52 MPI tasks x 1 OpenMP threads

Minimization stats:
  Stopping criterion = energy tolerance
  Energy initial, next-to-last, final = 
     -1152448.95185075  -1152448.95413419  -1152448.95413419
  Force two-norm initial, final = 0.21603402 0.00016267195
  Force max component initial, final = 0.10494331 5.4933588e-05
  Final line search alpha, max atom move = 1.0000000 5.4933588e-05
  Iterations, force evaluations = 182 364

MPI task timing breakdown:
Section |  min time  |  avg time  |  max time  |%varavg| %total
---------------------------------------------------------------
Pair    | 1.022      | 2.8994     | 3.8586     |  47.7 | 72.21
Neigh   | 0          | 0          | 0          |   0.0 |  0.00
Comm    | 0.049678   | 0.64874    | 2.0066     |  71.3 | 16.16
Output  | 0.00012328 | 0.00012734 | 0.00029184 |   0.0 |  0.00
Modify  | 7.7531e-05 | 0.0060885  | 0.013162   |   3.7 |  0.15
Other   |            | 0.4607     |            |       | 11.47

Nlocal:        5552.90 ave        7906 max           0 min
Histogram: 4 2 2 0 2 6 4 0 15 17
Nghost:        6213.62 ave        8769 max         412 min
Histogram: 4 0 4 0 8 0 4 5 7 20
Neighs:       158427.0 ave      230397 max           0 min
Histogram: 4 2 2 0 5 3 4 4 12 16

Total # of neighbors = 8238204
Ave neighs/atom = 28.530478
Neighbor list builds = 0
Dangerous builds = 0
The dot product: -1.87790495053581e-07
Setting atom values ...
  1 settings made for x
  1 settings made for y
  1 settings made for z
Setting up cg style minimization ...
  Unit style    : metal
  Current step  : 2078
Per MPI rank memory allocation (min/avg/max) = 5.465 | 6.344 | 6.728 Mbytes
Step PotEng KinEng TotEng v_fx v_fy v_fz 
    2078   -1152448.9            0   -1152448.9  0.078356456  0.039149645 0.0088383975 
    2251   -1152448.9            0   -1152448.9 2.3535936e-05 3.0792926e-06 3.3040111e-06 
Loop time of 3.85494 on 52 procs for 173 steps with 288751 atoms

99.9% CPU use with 52 MPI tasks x 1 OpenMP threads

Minimization stats:
  Stopping criterion = linesearch alpha is zero
  Energy initial, next-to-last, final = 
     -1152448.94773616  -1152448.94996714  -1152448.94996714
  Force two-norm initial, final = 0.21504754 0.00015806517
  Force max component initial, final = 0.10166676 3.8445409e-05
  Final line search alpha, max atom move = 0.5 1.9222705e-05
  Iterations, force evaluations = 173 347

MPI task timing breakdown:
Section |  min time  |  avg time  |  max time  |%varavg| %total
---------------------------------------------------------------
Pair    | 0.97345    | 2.7655     | 3.7012     |  46.7 | 71.74
Neigh   | 0          | 0          | 0          |   0.0 |  0.00
Comm    | 0.047003   | 0.61823    | 1.925      |  69.4 | 16.04
Output  | 0          | 0          | 0          |   0.0 |  0.00
Modify  | 6.7218e-05 | 0.005818   | 0.012493   |   3.6 |  0.15
Other   |            | 0.4654     |            |       | 12.07

Nlocal:        5552.90 ave        7906 max           0 min
Histogram: 4 2 2 0 2 6 4 0 15 17
Nghost:        6213.65 ave        8769 max         412 min
Histogram: 4 0 4 0 8 0 4 5 7 20
Neighs:       158427.0 ave      230406 max           0 min
Histogram: 4 2 2 0 5 3 4 4 12 16

Total # of neighbors = 8238201
Ave neighs/atom = 28.530467
Neighbor list builds = 0
Dangerous builds = 0
The dot product: 1.94767470463251e-07
Setting atom values ...
  1 settings made for x
  1 settings made for y
  1 settings made for z
Setting up cg style minimization ...
  Unit style    : metal
  Current step  : 2251
Per MPI rank memory allocation (min/avg/max) = 5.465 | 6.344 | 6.728 Mbytes
Step PotEng KinEng TotEng v_fx v_fy v_fz 
    2251   -1152448.9            0   -1152448.9  0.082433241  0.040214016 0.0059287376 
    2424   -1152448.9            0   -1152448.9 4.1467138e-05 6.160208e-06 4.2141989e-06 
Loop time of 3.83751 on 52 procs for 173 steps with 288751 atoms

99.9% CPU use with 52 MPI tasks x 1 OpenMP threads

Minimization stats:
  Stopping criterion = linesearch alpha is zero
  Energy initial, next-to-last, final = 
     -1152448.94287389  -1152448.94506336  -1152448.94506336
  Force two-norm initial, final = 0.21337837 0.00015090991
  Force max component initial, final = 0.097637437 5.0655801e-05
  Final line search alpha, max atom move = 0.5 2.5327900e-05
  Iterations, force evaluations = 173 347

MPI task timing breakdown:
Section |  min time  |  avg time  |  max time  |%varavg| %total
---------------------------------------------------------------
Pair    | 0.975      | 2.7595     | 3.6812     |  46.5 | 71.91
Neigh   | 0          | 0          | 0          |   0.0 |  0.00
Comm    | 0.047822   | 0.61722    | 1.9086     |  69.4 | 16.08
Output  | 0          | 0          | 0          |   0.0 |  0.00
Modify  | 6.9593e-05 | 0.0058253  | 0.012661   |   3.7 |  0.15
Other   |            | 0.455      |            |       | 11.86

Nlocal:        5552.90 ave        7907 max           0 min
Histogram: 4 2 2 0 2 6 4 0 15 17
Nghost:        6213.65 ave        8769 max         412 min
Histogram: 4 0 4 0 8 0 4 5 7 20
Neighs:       158427.0 ave      230447 max           0 min
Histogram: 4 2 2 0 5 3 4 4 12 16

Total # of neighbors = 8238208
Ave neighs/atom = 28.530492
Neighbor list builds = 0
Dangerous builds = 0
The dot product: 3.56083028921377e-07
Setting atom values ...
  1 settings made for x
  1 settings made for y
  1 settings made for z
Setting up cg style minimization ...
  Unit style    : metal
  Current step  : 2424
Per MPI rank memory allocation (min/avg/max) = 5.465 | 6.344 | 6.728 Mbytes
Step PotEng KinEng TotEng v_fx v_fy v_fz 
    2424   -1152448.9            0   -1152448.9  0.084559892  0.041020241 0.0027555974 
    2590   -1152448.9            0   -1152448.9 -4.8569668e-06 -1.1935366e-06 -2.74643e-07 
Loop time of 3.67526 on 52 procs for 166 steps with 288751 atoms

99.9% CPU use with 52 MPI tasks x 1 OpenMP threads

Minimization stats:
  Stopping criterion = linesearch alpha is zero
  Energy initial, next-to-last, final = 
     -1152448.93729166  -1152448.93936331  -1152448.93936331
  Force two-norm initial, final = 0.21116118 0.0001665314
  Force max component initial, final = 0.09332204 2.2055425e-05
  Final line search alpha, max atom move = 0.25 5.5138563e-06
  Iterations, force evaluations = 166 335

MPI task timing breakdown:
Section |  min time  |  avg time  |  max time  |%varavg| %total
---------------------------------------------------------------
Pair    | 0.94503    | 2.6594     | 3.5307     |  45.4 | 72.36
Neigh   | 0          | 0          | 0          |   0.0 |  0.00
Comm    | 0.045206   | 0.59017    | 1.848      |  68.5 | 16.06
Output  | 0          | 0          | 0          |   0.0 |  0.00
Modify  | 6.7313e-05 | 0.0056009  | 0.011959   |   3.5 |  0.15
Other   |            | 0.4201     |            |       | 11.43

Nlocal:        5552.90 ave        7908 max           0 min
Histogram: 4 2 2 0 2 6 4 0 15 17
Nghost:        6213.65 ave        8769 max         412 min
Histogram: 4 0 4 0 8 0 4 5 7 20
Neighs:       158427.0 ave      230479 max           0 min
Histogram: 4 2 2 0 5 3 4 4 12 16

Total # of neighbors = 8238202
Ave neighs/atom = 28.530471
Neighbor list builds = 0
Dangerous builds = 0
The dot product: -3.81996273832888e-08
Setting atom values ...
  1 settings made for x
  1 settings made for y
  1 settings made for z
Setting up cg style minimization ...
  Unit style    : metal
  Current step  : 2590
Per MPI rank memory allocation (min/avg/max) = 5.465 | 6.344 | 6.728 Mbytes
Step PotEng KinEng TotEng v_fx v_fy v_fz 
    2590   -1152448.9            0   -1152448.9  0.084236645  0.041990923 -0.00018605508 
    2740   -1152448.9            0   -1152448.9 -4.764644e-05 -6.9007793e-06 -1.8175232e-06 
Loop time of 3.32286 on 52 procs for 150 steps with 288751 atoms

99.9% CPU use with 52 MPI tasks x 1 OpenMP threads

Minimization stats:
  Stopping criterion = energy tolerance
  Energy initial, next-to-last, final = 
     -1152448.93083743  -1152448.93281855  -1152448.93281855
  Force two-norm initial, final = 0.20875518 0.00022765181
  Force max component initial, final = 0.089550813 5.0232997e-05
  Final line search alpha, max atom move = 1.0000000 5.0232997e-05
  Iterations, force evaluations = 150 300

MPI task timing breakdown:
Section |  min time  |  avg time  |  max time  |%varavg| %total
---------------------------------------------------------------
Pair    | 0.84258    | 2.39       | 3.1823     |  43.1 | 71.93
Neigh   | 0          | 0          | 0          |   0.0 |  0.00
Comm    | 0.040486   | 0.5326     | 1.6533     |  64.9 | 16.03
Output  | 0          | 0          | 0          |   0.0 |  0.00
Modify  | 5.8207e-05 | 0.0049929  | 0.010556   |   3.3 |  0.15
Other   |            | 0.3953     |            |       | 11.90

Nlocal:        5552.90 ave        7909 max           0 min
Histogram: 4 2 2 0 2 6 4 0 15 17
Nghost:        6213.62 ave        8769 max         412 min
Histogram: 4 0 4 0 8 0 4 5 7 20
Neighs:       158427.0 ave      230517 max           0 min
Histogram: 4 2 2 0 5 3 4 4 12 16

Total # of neighbors = 8238200
Ave neighs/atom = 28.530464
Neighbor list builds = 0
Dangerous builds = 0
The dot product: -3.21777573931923e-07
Setting atom values ...
  1 settings made for x
  1 settings made for y
  1 settings made for z
Setting up cg style minimization ...
  Unit style    : metal
  Current step  : 2740
Per MPI rank memory allocation (min/avg/max) = 5.465 | 6.344 | 6.728 Mbytes
Step PotEng KinEng TotEng v_fx v_fy v_fz 
    2740   -1152448.9            0   -1152448.9  0.083385811  0.036181881 -0.0019222878 
    2884   -1152448.9            0   -1152448.9 2.8590026e-05 6.2736198e-06 1.3217769e-07 
Loop time of 3.1883 on 52 procs for 144 steps with 288751 atoms

99.9% CPU use with 52 MPI tasks x 1 OpenMP threads

Minimization stats:
  Stopping criterion = energy tolerance
  Energy initial, next-to-last, final = 
      -1152448.9233842   -1152448.9252759   -1152448.9252759
  Force two-norm initial, final = 0.20500496 0.00028580788
  Force max component initial, final = 0.086116918 3.0771984e-05
  Final line search alpha, max atom move = 1.0000000 3.0771984e-05
  Iterations, force evaluations = 144 288

MPI task timing breakdown:
Section |  min time  |  avg time  |  max time  |%varavg| %total
---------------------------------------------------------------
Pair    | 0.81259    | 2.2879     | 3.0576     |  42.2 | 71.76
Neigh   | 0          | 0          | 0          |   0.0 |  0.00
Comm    | 0.038369   | 0.51125    | 1.5836     |  63.1 | 16.04
Output  | 0          | 0          | 0          |   0.0 |  0.00
Modify  | 5.7441e-05 | 0.004842   | 0.010499   |   3.3 |  0.15
Other   |            | 0.3843     |            |       | 12.05

Nlocal:        5552.90 ave        7909 max           0 min
Histogram: 4 2 2 0 2 6 4 0 15 17
Nghost:        6213.65 ave        8769 max         412 min
Histogram: 4 0 4 0 8 0 4 5 7 20
Neighs:       158427.0 ave      230513 max           0 min
Histogram: 4 2 2 0 5 3 4 4 12 16

Total # of neighbors = 8238199
Ave neighs/atom = 28.530461
Neighbor list builds = 0
Dangerous builds = 0
The dot product: 1.72506703969977e-07
Setting atom values ...
  1 settings made for x
  1 settings made for y
  1 settings made for z
Setting up cg style minimization ...
  Unit style    : metal
  Current step  : 2884
Per MPI rank memory allocation (min/avg/max) = 5.465 | 6.344 | 6.728 Mbytes
Step PotEng KinEng TotEng v_fx v_fy v_fz 
    2884   -1152448.9            0   -1152448.9  0.082783277  0.026237804 -0.0023861118 
    3000   -1152448.9            0   -1152448.9 0.00010079023 1.2871317e-05 -2.6749955e-07 
    3065   -1152448.9            0   -1152448.9 9.7994408e-08 1.0707357e-06 -1.4659782e-07 
Loop time of 4.00867 on 52 procs for 181 steps with 288751 atoms

99.9% CPU use with 52 MPI tasks x 1 OpenMP threads

Minimization stats:
  Stopping criterion = linesearch alpha is zero
  Energy initial, next-to-last, final = 
     -1152448.91461779  -1152448.91648889  -1152448.91648889
  Force two-norm initial, final = 0.20208761 8.8651759e-05
  Force max component initial, final = 0.083905004 1.2314560e-05
  Final line search alpha, max atom move = 0.5 6.1572798e-06
  Iterations, force evaluations = 181 363

MPI task timing breakdown:
Section |  min time  |  avg time  |  max time  |%varavg| %total
---------------------------------------------------------------
Pair    | 1.0166     | 2.8843     | 3.8473     |  47.6 | 71.95
Neigh   | 0          | 0          | 0          |   0.0 |  0.00
Comm    | 0.049237   | 0.64654    | 1.9995     |  70.7 | 16.13
Output  | 0.00020898 | 0.00021356 | 0.00037946 |   0.0 |  0.01
Modify  | 7.6158e-05 | 0.0060956  | 0.013182   |   3.7 |  0.15
Other   |            | 0.4715     |            |       | 11.76

Nlocal:        5552.90 ave        7909 max           0 min
Histogram: 4 2 2 0 2 6 4 0 15 17
Nghost:        6213.65 ave        8769 max         412 min
Histogram: 4 0 4 0 8 0 4 5 7 20
Neighs:       158427.0 ave      230514 max           0 min
Histogram: 4 2 2 0 5 3 4 4 12 16

Total # of neighbors = 8238198
Ave neighs/atom = 28.530457
Neighbor list builds = 0
Dangerous builds = 0
The dot product: 1.49131069773106e-09
Setting atom values ...
  1 settings made for x
  1 settings made for y
  1 settings made for z
Setting up cg style minimization ...
  Unit style    : metal
  Current step  : 3065
Per MPI rank memory allocation (min/avg/max) = 5.465 | 6.344 | 6.728 Mbytes
Step PotEng KinEng TotEng v_fx v_fy v_fz 
    3065   -1152448.9            0   -1152448.9  0.082395673  0.020514662 -0.0028822906 
    3236   -1152448.9            0   -1152448.9 1.8204402e-05 2.3108334e-06 -3.2298891e-07 
Loop time of 3.78906 on 52 procs for 171 steps with 288751 atoms

99.9% CPU use with 52 MPI tasks x 1 OpenMP threads

Minimization stats:
  Stopping criterion = linesearch alpha is zero
  Energy initial, next-to-last, final = 
     -1152448.90448421  -1152448.90634783  -1152448.90634783
  Force two-norm initial, final = 0.200489 0.00012369726
  Force max component initial, final = 0.082529241 1.9447279e-05
  Final line search alpha, max atom move = 0.5 9.7236397e-06
  Iterations, force evaluations = 171 343

MPI task timing breakdown:
Section |  min time  |  avg time  |  max time  |%varavg| %total
---------------------------------------------------------------
Pair    | 0.96459    | 2.7203     | 3.6357     |  46.1 | 71.79
Neigh   | 0          | 0          | 0          |   0.0 |  0.00
Comm    | 0.045526   | 0.60705    | 1.8816     |  68.9 | 16.02
Output  | 0          | 0          | 0          |   0.0 |  0.00
Modify  | 6.9081e-05 | 0.0057475  | 0.012431   |   3.6 |  0.15
Other   |            | 0.456      |            |       | 12.03

Nlocal:        5552.90 ave        7909 max           0 min
Histogram: 4 2 2 0 2 6 4 0 15 17
Nghost:        6213.62 ave        8769 max         412 min
Histogram: 4 0 4 0 8 0 4 5 7 20
Neighs:       158427.0 ave      230519 max           0 min
Histogram: 4 2 2 0 5 3 4 4 12 16

Total # of neighbors = 8238198
Ave neighs/atom = 28.530457
Neighbor list builds = 0
Dangerous builds = 0
The dot product: 7.60009307497699e-08
Setting atom values ...
  1 settings made for x
  1 settings made for y
  1 settings made for z
Setting up cg style minimization ...
  Unit style    : metal
  Current step  : 3236
Per MPI rank memory allocation (min/avg/max) = 5.465 | 6.344 | 6.728 Mbytes
Step PotEng KinEng TotEng v_fx v_fy v_fz 
    3236   -1152448.9            0   -1152448.9  0.081955424   0.01707286 -0.0033977943 
    3394   -1152448.9            0   -1152448.9 -1.8927891e-05 -5.3901654e-06 9.8927666e-07 
Loop time of 3.48667 on 52 procs for 158 steps with 288751 atoms

99.9% CPU use with 52 MPI tasks x 1 OpenMP threads

Minimization stats:
  Stopping criterion = energy tolerance
  Energy initial, next-to-last, final = 
     -1152448.89298767  -1152448.89485896  -1152448.89485896
  Force two-norm initial, final = 0.19951676 0.00021725965
  Force max component initial, final = 0.08414749 8.0080777e-05
  Final line search alpha, max atom move = 1.0000000 8.0080777e-05
  Iterations, force evaluations = 158 316

MPI task timing breakdown:
Section |  min time  |  avg time  |  max time  |%varavg| %total
---------------------------------------------------------------
Pair    | 0.88713    | 2.517      | 3.3514     |  44.5 | 72.19
Neigh   | 0          | 0          | 0          |   0.0 |  0.00
Comm    | 0.043179   | 0.56361    | 1.7432     |  66.3 | 16.16
Output  | 0          | 0          | 0          |   0.0 |  0.00
Modify  | 6.2832e-05 | 0.0052725  | 0.01136    |   3.5 |  0.15
Other   |            | 0.4008     |            |       | 11.50

Nlocal:        5552.90 ave        7910 max           0 min
Histogram: 4 2 2 0 2 6 4 0 15 17
Nghost:        6213.60 ave        8769 max         412 min
Histogram: 4 0 4 0 8 0 4 5 7 20
Neighs:       158427.0 ave      230562 max           0 min
Histogram: 4 2 2 0 5 3 4 4 12 16

Total # of neighbors = 8238200
Ave neighs/atom = 28.530464
Neighbor list builds = 0
Dangerous builds = 0
The dot product: -5.63358923289831e-08
Setting atom values ...
  1 settings made for x
  1 settings made for y
  1 settings made for z
Setting up cg style minimization ...
  Unit style    : metal
  Current step  : 3394
Per MPI rank memory allocation (min/avg/max) = 5.465 | 6.344 | 6.728 Mbytes
Step PotEng KinEng TotEng v_fx v_fy v_fz 
    3394   -1152448.9            0   -1152448.9  0.080492139  0.014536267 -0.0036925089 
    3560   -1152448.9            0   -1152448.9 2.9816043e-05 7.1461882e-06 -1.6150315e-06 
Loop time of 3.71685 on 52 procs for 166 steps with 288751 atoms

99.9% CPU use with 52 MPI tasks x 1 OpenMP threads

Minimization stats:
  Stopping criterion = linesearch alpha is zero
  Energy initial, next-to-last, final = 
     -1152448.88017953  -1152448.88214723  -1152448.88214723
  Force two-norm initial, final = 0.19859164 0.00029227376
  Force max component initial, final = 0.08561377 4.4890733e-05
  Final line search alpha, max atom move = 0.125 5.6113416e-06
  Iterations, force evaluations = 166 337

MPI task timing breakdown:
Section |  min time  |  avg time  |  max time  |%varavg| %total
---------------------------------------------------------------
Pair    | 0.94801    | 2.6757     | 3.5735     |  45.7 | 71.99
Neigh   | 0          | 0          | 0          |   0.0 |  0.00
Comm    | 0.043325   | 0.59666    | 1.8524     |  68.3 | 16.05
Output  | 0          | 0          | 0          |   0.0 |  0.00
Modify  | 6.4494e-05 | 0.0056605  | 0.012214   |   3.6 |  0.15
Other   |            | 0.4388     |            |       | 11.81

Nlocal:        5552.90 ave        7910 max           0 min
Histogram: 4 2 2 0 2 6 4 0 15 17
Nghost:        6213.67 ave        8770 max         412 min
Histogram: 4 0 4 0 8 0 4 5 7 20
Neighs:       158427.0 ave      230564 max           0 min
Histogram: 4 2 2 0 5 3 4 4 12 16

Total # of neighbors = 8238198
Ave neighs/atom = 28.530457
Neighbor list builds = 0
Dangerous builds = 0
The dot product: -8.94058746248627e-08
Setting atom values ...
  1 settings made for x
  1 settings made for y
  1 settings made for z
Setting up cg style minimization ...
  Unit style    : metal
  Current step  : 3560
Per MPI rank memory allocation (min/avg/max) = 5.465 | 6.344 | 6.728 Mbytes
Step PotEng KinEng TotEng v_fx v_fy v_fz 
    3560   -1152448.9            0   -1152448.9  0.071412798  0.013417563 -0.0027929091 
    3707   -1152448.9            0   -1152448.9 1.830735e-05 4.6631538e-07 -3.0270028e-07 
Loop time of 3.27219 on 52 procs for 147 steps with 288751 atoms

99.9% CPU use with 52 MPI tasks x 1 OpenMP threads

Minimization stats:
  Stopping criterion = linesearch alpha is zero
  Energy initial, next-to-last, final = 
     -1152448.86651738  -1152448.86920277  -1152448.86920277
  Force two-norm initial, final = 0.19619786 0.00014697692
  Force max component initial, final = 0.085397057 3.1123839e-05
  Final line search alpha, max atom move = 0.5 1.5561920e-05
  Iterations, force evaluations = 147 295

MPI task timing breakdown:
Section |  min time  |  avg time  |  max time  |%varavg| %total
---------------------------------------------------------------
Pair    | 0.82759    | 2.353      | 3.1305     |  42.8 | 71.91
Neigh   | 0          | 0          | 0          |   0.0 |  0.00
Comm    | 0.040018   | 0.52638    | 1.6291     |  64.2 | 16.09
Output  | 0          | 0          | 0          |   0.0 |  0.00
Modify  | 5.8168e-05 | 0.0049364  | 0.010759   |   3.3 |  0.15
Other   |            | 0.3879     |            |       | 11.85

Nlocal:        5552.90 ave        7912 max           0 min
Histogram: 4 2 2 0 2 6 4 0 15 17
Nghost:        6213.69 ave        8770 max         412 min
Histogram: 4 0 4 0 8 0 4 5 7 20
Neighs:       158427.0 ave      230645 max           0 min
Histogram: 4 2 2 0 5 3 4 4 12 16

Total # of neighbors = 8238193
Ave neighs/atom = 28.530440
Neighbor list builds = 0
Dangerous builds = 0
The dot product: -3.40319688284741e-07
Setting atom values ...
  1 settings made for x
  1 settings made for y
  1 settings made for z
Setting up cg style minimization ...
  Unit style    : metal
  Current step  : 3707
Per MPI rank memory allocation (min/avg/max) = 5.465 | 6.344 | 6.728 Mbytes
Step PotEng KinEng TotEng v_fx v_fy v_fz 
    3707   -1152448.9            0   -1152448.9   0.04842355  0.013255962 -0.00019807427 
    3914   -1152448.9            0   -1152448.9 5.0065138e-06 1.8143112e-06 -8.094081e-08 
Loop time of 4.57552 on 52 procs for 207 steps with 288751 atoms

99.9% CPU use with 52 MPI tasks x 1 OpenMP threads

Minimization stats:
  Stopping criterion = linesearch alpha is zero
  Energy initial, next-to-last, final = 
     -1152448.85329578  -1152448.85547749  -1152448.85547749
  Force two-norm initial, final = 0.1932024 0.00010706555
  Force max component initial, final = 0.086300614 1.8224148e-05
  Final line search alpha, max atom move = 0.5 9.1120738e-06
  Iterations, force evaluations = 207 415

MPI task timing breakdown:
Section |  min time  |  avg time  |  max time  |%varavg| %total
---------------------------------------------------------------
Pair    | 1.1645     | 3.3006     | 4.399      |  50.9 | 72.14
Neigh   | 0          | 0          | 0          |   0.0 |  0.00
Comm    | 0.05425    | 0.73786    | 2.2967     |  75.7 | 16.13
Output  | 0          | 0          | 0          |   0.0 |  0.00
Modify  | 7.8388e-05 | 0.0069743  | 0.015045   |   4.0 |  0.15
Other   |            | 0.5301     |            |       | 11.59

Nlocal:        5552.90 ave        7912 max           0 min
Histogram: 4 2 2 0 2 6 4 0 15 17
Nghost:        6213.69 ave        8770 max         412 min
Histogram: 4 0 4 0 8 0 4 5 7 20
Neighs:       158427.0 ave      230645 max           0 min
Histogram: 4 2 2 0 5 3 4 4 12 16

Total # of neighbors = 8238194
Ave neighs/atom = 28.530443
Neighbor list builds = 0
Dangerous builds = 0
The dot product: -6.65645448028529e-08
Setting atom values ...
  1 settings made for x
  1 settings made for y
  1 settings made for z
Setting up cg style minimization ...
  Unit style    : metal
  Current step  : 3914
Per MPI rank memory allocation (min/avg/max) = 5.465 | 6.344 | 6.728 Mbytes
Step PotEng KinEng TotEng v_fx v_fy v_fz 
    3914   -1152448.8            0   -1152448.8  0.057663946  0.011488335 0.0021316922 
    4000   -1152448.8            0   -1152448.8 0.00013548104 1.5101966e-05 6.5810575e-06 
    4118   -1152448.8            0   -1152448.8 -7.3587429e-06 2.982807e-07 -5.0540546e-07 
Loop time of 4.51246 on 52 procs for 204 steps with 288751 atoms

99.9% CPU use with 52 MPI tasks x 1 OpenMP threads

Minimization stats:
  Stopping criterion = linesearch alpha is zero
  Energy initial, next-to-last, final = 
      -1152448.8382518  -1152448.84033242  -1152448.84033242
  Force two-norm initial, final = 0.19815055 0.00010096348
  Force max component initial, final = 0.090836813 1.6352326e-05
  Final line search alpha, max atom move = 0.5 8.1761628e-06
  Iterations, force evaluations = 204 409

MPI task timing breakdown:
Section |  min time  |  avg time  |  max time  |%varavg| %total
---------------------------------------------------------------
Pair    | 1.1454     | 3.2514     | 4.3322     |  50.3 | 72.05
Neigh   | 0          | 0          | 0          |   0.0 |  0.00
Comm    | 0.055525   | 0.72621    | 2.2497     |  75.4 | 16.09
Output  | 0.00012041 | 0.00012477 | 0.00029163 |   0.0 |  0.00
Modify  | 8.0574e-05 | 0.0068613  | 0.015113   |   4.0 |  0.15
Other   |            | 0.5278     |            |       | 11.70

Nlocal:        5552.90 ave        7913 max           0 min
Histogram: 4 2 2 0 2 6 4 1 14 17
Nghost:        6213.73 ave        8770 max         412 min
Histogram: 4 0 4 0 8 0 4 5 7 20
Neighs:       158427.0 ave      230662 max           0 min
Histogram: 4 2 2 0 5 3 4 4 12 16

Total # of neighbors = 8238191
Ave neighs/atom = 28.530433
Neighbor list builds = 0
Dangerous builds = 0
The dot product: 8.09870846948968e-08
Setting atom values ...
  1 settings made for x
  1 settings made for y
  1 settings made for z
Setting up cg style minimization ...
  Unit style    : metal
  Current step  : 4118
Per MPI rank memory allocation (min/avg/max) = 5.465 | 6.344 | 6.728 Mbytes
Step PotEng KinEng TotEng v_fx v_fy v_fz 
    4118   -1152448.8            0   -1152448.8  0.060017424 0.0084847237 0.0042443439 
    4285   -1152448.8            0   -1152448.8   1.6631e-05 4.4855963e-06 9.0708136e-07 
Loop time of 3.71678 on 52 procs for 167 steps with 288751 atoms

99.9% CPU use with 52 MPI tasks x 1 OpenMP threads

Minimization stats:
  Stopping criterion = linesearch alpha is zero
  Energy initial, next-to-last, final = 
     -1152448.82181043  -1152448.82392204  -1152448.82392204
  Force two-norm initial, final = 0.20081529 0.00021527899
  Force max component initial, final = 0.095472533 4.7333584e-05
  Final line search alpha, max atom move = 0.25 1.1833396e-05
  Iterations, force evaluations = 167 337

MPI task timing breakdown:
Section |  min time  |  avg time  |  max time  |%varavg| %total
---------------------------------------------------------------
Pair    | 0.94955    | 2.6754     | 3.5737     |  45.7 | 71.98
Neigh   | 0          | 0          | 0          |   0.0 |  0.00
Comm    | 0.044414   | 0.59602    | 1.8498     |  68.4 | 16.04
Output  | 0          | 0          | 0          |   0.0 |  0.00
Modify  | 6.7211e-05 | 0.0056595  | 0.012308   |   3.6 |  0.15
Other   |            | 0.4397     |            |       | 11.83

Nlocal:        5552.90 ave        7915 max           0 min
Histogram: 4 2 2 0 2 6 4 1 14 17
Nghost:        6213.73 ave        8770 max         412 min
Histogram: 4 0 4 0 8 0 4 5 7 20
Neighs:       158427.0 ave      230730 max           0 min
Histogram: 4 2 2 0 5 3 4 4 12 16

Total # of neighbors = 8238191
Ave neighs/atom = 28.530433
Neighbor list builds = 0
Dangerous builds = 0
The dot product: -1.41750020657074e-07
Setting atom values ...
  1 settings made for x
  1 settings made for y
  1 settings made for z
Setting up cg style minimization ...
  Unit style    : metal
  Current step  : 4285
Per MPI rank memory allocation (min/avg/max) = 5.465 | 6.344 | 6.728 Mbytes
Step PotEng KinEng TotEng v_fx v_fy v_fz 
    4285   -1152448.8            0   -1152448.8  0.066252969 0.0081971956 0.0060076799 
    4453   -1152448.8            0   -1152448.8 3.6617572e-05 9.1519531e-06 2.7627409e-06 
Loop time of 3.70739 on 52 procs for 168 steps with 288751 atoms

99.9% CPU use with 52 MPI tasks x 1 OpenMP threads

Minimization stats:
  Stopping criterion = energy tolerance
  Energy initial, next-to-last, final = 
     -1152448.80406547  -1152448.80607261  -1152448.80607261
  Force two-norm initial, final = 0.20419198 0.0001605411
  Force max component initial, final = 0.098736081 5.4234109e-05
  Final line search alpha, max atom move = 1.0000000 5.4234109e-05
  Iterations, force evaluations = 168 336

MPI task timing breakdown:
Section |  min time  |  avg time  |  max time  |%varavg| %total
---------------------------------------------------------------
Pair    | 0.94011    | 2.6802     | 3.5635     |  45.7 | 72.29
Neigh   | 0          | 0          | 0          |   0.0 |  0.00
Comm    | 0.045514   | 0.59643    | 1.8579     |  69.0 | 16.09
Output  | 0          | 0          | 0          |   0.0 |  0.00
Modify  | 6.509e-05  | 0.0055458  | 0.011754   |   3.5 |  0.15
Other   |            | 0.4252     |            |       | 11.47

Nlocal:        5552.90 ave        7917 max           0 min
Histogram: 4 2 2 0 2 6 4 1 14 17
Nghost:        6213.65 ave        8770 max         412 min
Histogram: 4 0 4 0 8 0 4 5 7 20
Neighs:       158427.0 ave      230779 max           0 min
Histogram: 4 2 2 0 5 3 4 4 12 16

Total # of neighbors = 8238191
Ave neighs/atom = 28.530433
Neighbor list builds = 0
Dangerous builds = 0
The dot product: -1.65261963238073e-07
Setting atom values ...
  1 settings made for x
  1 settings made for y
  1 settings made for z
Setting up cg style minimization ...
  Unit style    : metal
  Current step  : 4453
Per MPI rank memory allocation (min/avg/max) = 5.465 | 6.344 | 6.728 Mbytes
Step PotEng KinEng TotEng v_fx v_fy v_fz 
    4453   -1152448.8            0   -1152448.8  0.073753144 0.0086160545 0.0074037279 
    4670   -1152448.8            0   -1152448.8 1.0392941e-05 2.0998125e-06 9.399668e-07 
Loop time of 4.8012 on 52 procs for 217 steps with 288751 atoms

99.9% CPU use with 52 MPI tasks x 1 OpenMP threads

Minimization stats:
  Stopping criterion = linesearch alpha is zero
  Energy initial, next-to-last, final = 
     -1152448.78483316  -1152448.78678108  -1152448.78678108
  Force two-norm initial, final = 0.20736283 4.1710344e-05
  Force max component initial, final = 0.10034804 1.0510586e-05
  Final line search alpha, max atom move = 0.5 5.2552930e-06
  Iterations, force evaluations = 217 435

MPI task timing breakdown:
Section |  min time  |  avg time  |  max time  |%varavg| %total
---------------------------------------------------------------
Pair    | 1.221      | 3.4508     | 4.6099     |  52.0 | 71.87
Neigh   | 0          | 0          | 0          |   0.0 |  0.00
Comm    | 0.05925    | 0.76911    | 2.3878     |  78.0 | 16.02
Output  | 0          | 0          | 0          |   0.0 |  0.00
Modify  | 8.6598e-05 | 0.0072754  | 0.015778   |   4.0 |  0.15
Other   |            | 0.574      |            |       | 11.96

Nlocal:        5552.90 ave        7917 max           0 min
Histogram: 4 2 2 0 2 6 4 1 14 17
Nghost:        6213.65 ave        8769 max         412 min
Histogram: 4 0 4 0 8 0 4 5 7 20
Neighs:       158427.0 ave      230779 max           0 min
Histogram: 4 2 2 0 5 3 4 4 12 16

Total # of neighbors = 8238191
Ave neighs/atom = 28.530433
Neighbor list builds = 0
Dangerous builds = 0
The dot product: -8.18916666318245e-09
Setting atom values ...
  1 settings made for x
  1 settings made for y
  1 settings made for z
Setting up cg style minimization ...
  Unit style    : metal
  Current step  : 4670
Per MPI rank memory allocation (min/avg/max) = 5.465 | 6.344 | 6.728 Mbytes
Step PotEng KinEng TotEng v_fx v_fy v_fz 
    4670   -1152448.8            0   -1152448.8  0.080709669 0.0085916722 0.0082999927 
    4896   -1152448.8            0   -1152448.8 -4.3365526e-06 -1.1981261e-06 -3.626129e-07 
Loop time of 5.02687 on 52 procs for 226 steps with 288751 atoms

99.9% CPU use with 52 MPI tasks x 1 OpenMP threads

Minimization stats:
  Stopping criterion = linesearch alpha is zero
  Energy initial, next-to-last, final = 
      -1152448.7640883  -1152448.76596823  -1152448.76596823
  Force two-norm initial, final = 0.20970809 1.9494453e-05
  Force max component initial, final = 0.10050184 5.3291308e-06
  Final line search alpha, max atom move = 0.5 2.6645654e-06
  Iterations, force evaluations = 226 453

MPI task timing breakdown:
Section |  min time  |  avg time  |  max time  |%varavg| %total
---------------------------------------------------------------
Pair    | 1.264      | 3.6139     | 4.8021     |  53.0 | 71.89
Neigh   | 0          | 0          | 0          |   0.0 |  0.00
Comm    | 0.064315   | 0.80967    | 2.5097     |  79.7 | 16.11
Output  | 0          | 0          | 0          |   0.0 |  0.00
Modify  | 9.7782e-05 | 0.0074818  | 0.015805   |   4.0 |  0.15
Other   |            | 0.5958     |            |       | 11.85

Nlocal:        5552.90 ave        7917 max           0 min
Histogram: 4 2 2 0 2 6 4 1 14 17
Nghost:        6213.58 ave        8768 max         412 min
Histogram: 4 0 4 0 8 0 4 5 7 20
Neighs:       158427.0 ave      230778 max           0 min
Histogram: 4 2 2 0 5 3 4 4 12 16

Total # of neighbors = 8238188
Ave neighs/atom = 28.530422
Neighbor list builds = 0
Dangerous builds = 0
The dot product: -9.35082434751291e-09
Setting atom values ...
  1 settings made for x
  1 settings made for y
  1 settings made for z
Setting up cg style minimization ...
  Unit style    : metal
  Current step  : 4896
Per MPI rank memory allocation (min/avg/max) = 5.465 | 6.344 | 6.728 Mbytes
Step PotEng KinEng TotEng v_fx v_fy v_fz 
    4896   -1152448.7            0   -1152448.7   0.08652422 0.0082457761  0.008591323 
    5000   -1152448.7            0   -1152448.7 2.4942578e-05 9.3412275e-06 1.7138517e-06 
    5039   -1152448.7            0   -1152448.7 2.8782322e-06 9.2927046e-07 2.1405097e-07 
Loop time of 3.16591 on 52 procs for 143 steps with 288751 atoms

99.9% CPU use with 52 MPI tasks x 1 OpenMP threads

Minimization stats:
  Stopping criterion = energy tolerance
  Energy initial, next-to-last, final = 
     -1152448.74177329  -1152448.74362874  -1152448.74362874
  Force two-norm initial, final = 0.21113748 0.00024566716
  Force max component initial, final = 0.099503587 2.0334162e-05
  Final line search alpha, max atom move = 1.0000000 2.0334162e-05
  Iterations, force evaluations = 143 286

MPI task timing breakdown:
Section |  min time  |  avg time  |  max time  |%varavg| %total
---------------------------------------------------------------
Pair    | 0.80129    | 2.2764     | 3.0346     |  42.0 | 71.91
Neigh   | 0          | 0          | 0          |   0.0 |  0.00
Comm    | 0.038548   | 0.50799    | 1.5766     |  63.3 | 16.05
Output  | 0.0001988  | 0.00020349 | 0.00037432 |   0.0 |  0.01
Modify  | 5.1727e-05 | 0.0047451  | 0.010066   |   3.2 |  0.15
Other   |            | 0.3765     |            |       | 11.89

Nlocal:        5552.90 ave        7917 max           0 min
Histogram: 4 2 2 0 2 6 4 1 14 17
Nghost:        6213.62 ave        8768 max         412 min
Histogram: 4 0 4 0 8 0 4 5 7 20
Neighs:       158427.0 ave      230761 max           0 min
Histogram: 4 2 2 0 5 3 4 4 12 16

Total # of neighbors = 8238186
Ave neighs/atom = 28.530415
Neighbor list builds = 0
Dangerous builds = 0
The dot product: 1.14734847238483e-08
Setting atom values ...
  1 settings made for x
  1 settings made for y
  1 settings made for z
Setting up cg style minimization ...
  Unit style    : metal
  Current step  : 5039
Per MPI rank memory allocation (min/avg/max) = 5.465 | 6.344 | 6.728 Mbytes
Step PotEng KinEng TotEng v_fx v_fy v_fz 
    5039   -1152448.7            0   -1152448.7  0.089944763   0.00837713 0.0082118484 
    5210   -1152448.7            0   -1152448.7 -1.5692468e-06 2.6541728e-07 -1.8681751e-07 
Loop time of 3.78838 on 52 procs for 171 steps with 288751 atoms

99.9% CPU use with 52 MPI tasks x 1 OpenMP threads

Minimization stats:
  Stopping criterion = linesearch alpha is zero
  Energy initial, next-to-last, final = 
     -1152448.71794162  -1152448.71977358  -1152448.71977358
  Force two-norm initial, final = 0.21132042 8.6898381e-05
  Force max component initial, final = 0.097730282 2.2190211e-05
  Final line search alpha, max atom move = 0.5 1.1095105e-05
  Iterations, force evaluations = 171 343

MPI task timing breakdown:
Section |  min time  |  avg time  |  max time  |%varavg| %total
---------------------------------------------------------------
Pair    | 0.96287    | 2.7358     | 3.6364     |  46.1 | 72.22
Neigh   | 0          | 0          | 0          |   0.0 |  0.00
Comm    | 0.045794   | 0.61172    | 1.9087     |  69.4 | 16.15
Output  | 0          | 0          | 0          |   0.0 |  0.00
Modify  | 6.6566e-05 | 0.0057109  | 0.012346   |   3.6 |  0.15
Other   |            | 0.4352     |            |       | 11.49

Nlocal:        5552.90 ave        7917 max           0 min
Histogram: 4 2 2 0 2 6 4 1 14 17
Nghost:        6213.58 ave        8768 max         412 min
Histogram: 4 0 4 0 8 0 4 5 7 20
Neighs:       158427.0 ave      230763 max           0 min
Histogram: 4 2 2 0 5 3 4 4 12 16

Total # of neighbors = 8238186
Ave neighs/atom = 28.530415
Neighbor list builds = 0
Dangerous builds = 0
The dot product: -9.75331252566763e-09
Setting atom values ...
  1 settings made for x
  1 settings made for y
  1 settings made for z
Setting up cg style minimization ...
  Unit style    : metal
  Current step  : 5210
Per MPI rank memory allocation (min/avg/max) = 5.465 | 6.344 | 6.728 Mbytes
Step PotEng KinEng TotEng v_fx v_fy v_fz 
    5210   -1152448.7            0   -1152448.7  0.091628316  0.009247926 0.0073654891 
    5353   -1152448.7            0   -1152448.7 0.00010095407 1.3894172e-05 7.7366936e-06 
Loop time of 3.21035 on 52 procs for 143 steps with 288751 atoms

99.9% CPU use with 52 MPI tasks x 1 OpenMP threads

Minimization stats:
  Stopping criterion = linesearch alpha is zero
  Energy initial, next-to-last, final = 
     -1152448.69261903   -1152448.6944198   -1152448.6944198
  Force two-norm initial, final = 0.21061767 0.00031417098
  Force max component initial, final = 0.095465493 0.00012917735
  Final line search alpha, max atom move = 0.125 1.6147168e-05
  Iterations, force evaluations = 143 291

MPI task timing breakdown:
Section |  min time  |  avg time  |  max time  |%varavg| %total
---------------------------------------------------------------
Pair    | 0.81845    | 2.3165     | 3.087      |  42.6 | 72.16
Neigh   | 0          | 0          | 0          |   0.0 |  0.00
Comm    | 0.037754   | 0.51783    | 1.6132     |  63.6 | 16.13
Output  | 0          | 0          | 0          |   0.0 |  0.00
Modify  | 5.9915e-05 | 0.0048657  | 0.010486   |   3.3 |  0.15
Other   |            | 0.3712     |            |       | 11.56

Nlocal:        5552.90 ave        7917 max           0 min
Histogram: 4 2 2 0 2 6 4 1 14 17
Nghost:        6213.50 ave        8768 max         412 min
Histogram: 4 0 4 0 8 0 4 5 7 20
Neighs:       158427.0 ave      230758 max           0 min
Histogram: 4 2 2 0 5 3 4 4 12 16

Total # of neighbors = 8238188
Ave neighs/atom = 28.530422
Neighbor list builds = 0
Dangerous builds = 0
The dot product: 6.46011245718328e-07
Setting atom values ...
  1 settings made for x
  1 settings made for y
  1 settings made for z
Setting up cg style minimization ...
  Unit style    : metal
  Current step  : 5353
Per MPI rank memory allocation (min/avg/max) = 5.465 | 6.344 | 6.728 Mbytes
Step PotEng KinEng TotEng v_fx v_fy v_fz 
    5353   -1152448.7            0   -1152448.7  0.092087274  0.011078895  0.006201468 
    5511   -1152448.7            0   -1152448.7 -9.0230755e-07 1.7188367e-06 -2.4122779e-07 
Loop time of 3.49067 on 52 procs for 158 steps with 288751 atoms

99.9% CPU use with 52 MPI tasks x 1 OpenMP threads

Minimization stats:
  Stopping criterion = energy tolerance
  Energy initial, next-to-last, final = 
      -1152448.6658273  -1152448.66759143  -1152448.66759143
  Force two-norm initial, final = 0.20944027 0.00014664984
  Force max component initial, final = 0.092992926 2.9063471e-05
  Final line search alpha, max atom move = 1.0000000 2.9063471e-05
  Iterations, force evaluations = 158 316

MPI task timing breakdown:
Section |  min time  |  avg time  |  max time  |%varavg| %total
---------------------------------------------------------------
Pair    | 0.88467    | 2.5214     | 3.3513     |  44.3 | 72.23
Neigh   | 0          | 0          | 0          |   0.0 |  0.00
Comm    | 0.042714   | 0.562      | 1.7428     |  66.7 | 16.10
Output  | 0          | 0          | 0          |   0.0 |  0.00
Modify  | 6.2376e-05 | 0.0052216  | 0.01103    |   3.4 |  0.15
Other   |            | 0.4021     |            |       | 11.52

Nlocal:        5552.90 ave        7917 max           0 min
Histogram: 4 2 2 0 2 6 4 1 14 17
Nghost:        6213.52 ave        8768 max         412 min
Histogram: 4 0 4 0 8 0 4 5 7 20
Neighs:       158427.0 ave      230757 max           0 min
Histogram: 4 2 2 0 5 3 4 4 12 16

Total # of neighbors = 8238186
Ave neighs/atom = 28.530415
Neighbor list builds = 0
Dangerous builds = 0
The dot product: -9.46306807065959e-09
Setting atom values ...
  1 settings made for x
  1 settings made for y
  1 settings made for z
Setting up cg style minimization ...
  Unit style    : metal
  Current step  : 5511
Per MPI rank memory allocation (min/avg/max) = 5.465 | 6.344 | 6.728 Mbytes
Step PotEng KinEng TotEng v_fx v_fy v_fz 
    5511   -1152448.6            0   -1152448.6  0.091177424  0.014009559 0.0047873308 
    5674   -1152448.6            0   -1152448.6 5.1887773e-05 7.2780782e-06 2.7910118e-06 
Loop time of 3.60694 on 52 procs for 163 steps with 288751 atoms

99.9% CPU use with 52 MPI tasks x 1 OpenMP threads

Minimization stats:
  Stopping criterion = linesearch alpha is zero
  Energy initial, next-to-last, final = 
      -1152448.6375977  -1152448.63931825  -1152448.63931825
  Force two-norm initial, final = 0.20765754 0.0001356779
  Force max component initial, final = 0.091177424 5.5116750e-05
  Final line search alpha, max atom move = 0.5 2.7558375e-05
  Iterations, force evaluations = 163 327

MPI task timing breakdown:
Section |  min time  |  avg time  |  max time  |%varavg| %total
---------------------------------------------------------------
Pair    | 0.91768    | 2.5985     | 3.4676     |  45.0 | 72.04
Neigh   | 0          | 0          | 0          |   0.0 |  0.00
Comm    | 0.043624   | 0.57903    | 1.7965     |  67.4 | 16.05
Output  | 0          | 0          | 0          |   0.0 |  0.00
Modify  | 6.3968e-05 | 0.0054929  | 0.012012   |   3.6 |  0.15
Other   |            | 0.4239     |            |       | 11.75

Nlocal:        5552.90 ave        7917 max           0 min
Histogram: 4 2 2 0 2 6 4 1 14 17
Nghost:        6213.52 ave        8768 max         412 min
Histogram: 4 0 4 0 8 0 4 5 7 20
Neighs:       158427.0 ave      230744 max           0 min
Histogram: 4 2 2 0 5 3 4 4 12 16

Total # of neighbors = 8238188
Ave neighs/atom = 28.530422
Neighbor list builds = 0
Dangerous builds = 0
The dot product: 3.85214128710575e-07
Setting atom values ...
  1 settings made for x
  1 settings made for y
  1 settings made for z
Setting up cg style minimization ...
  Unit style    : metal
  Current step  : 5674
Per MPI rank memory allocation (min/avg/max) = 5.465 | 6.344 | 6.728 Mbytes
Step PotEng KinEng TotEng v_fx v_fy v_fz 
    5674   -1152448.6            0   -1152448.6  0.089264606  0.018397802 0.0031848321 
    5850   -1152448.6            0   -1152448.6 -2.4554386e-05 -3.6667504e-06 -1.0070712e-06 
Loop time of 3.89296 on 52 procs for 176 steps with 288751 atoms

99.9% CPU use with 52 MPI tasks x 1 OpenMP threads

Minimization stats:
  Stopping criterion = energy tolerance
  Energy initial, next-to-last, final = 
     -1152448.60796271  -1152448.60963953  -1152448.60963953
  Force two-norm initial, final = 0.20582058 8.5897769e-05
  Force max component initial, final = 0.089264606 3.0765921e-05
  Final line search alpha, max atom move = 1.0000000 3.0765921e-05
  Iterations, force evaluations = 176 352

MPI task timing breakdown:
Section |  min time  |  avg time  |  max time  |%varavg| %total
---------------------------------------------------------------
Pair    | 0.98401    | 2.8053     | 3.7335     |  46.7 | 72.06
Neigh   | 0          | 0          | 0          |   0.0 |  0.00
Comm    | 0.047241   | 0.62697    | 1.9396     |  70.2 | 16.11
Output  | 0          | 0          | 0          |   0.0 |  0.00
Modify  | 6.8186e-05 | 0.0058124  | 0.012317   |   3.6 |  0.15
Other   |            | 0.4549     |            |       | 11.69

Nlocal:        5552.90 ave        7917 max           0 min
Histogram: 4 2 2 0 2 6 4 1 14 17
Nghost:        6213.52 ave        8768 max         412 min
Histogram: 4 0 4 0 8 0 4 5 7 20
Neighs:       158427.0 ave      230745 max           0 min
Histogram: 4 2 2 0 5 3 4 4 12 16

Total # of neighbors = 8238188
Ave neighs/atom = 28.530422
Neighbor list builds = 0
Dangerous builds = 0
The dot product: -1.92470454662708e-07
Setting atom values ...
  1 settings made for x
  1 settings made for y
  1 settings made for z
Setting up cg style minimization ...
  Unit style    : metal
  Current step  : 5850
Per MPI rank memory allocation (min/avg/max) = 5.465 | 6.344 | 6.728 Mbytes
Step PotEng KinEng TotEng v_fx v_fy v_fz 
    5850   -1152448.6            0   -1152448.6  0.086179832  0.023527061 0.0014863394 
    6000   -1152448.6            0   -1152448.6 6.9278432e-05  8.31269e-06 2.1870704e-06 
    6016   -1152448.6            0   -1152448.6 -4.03426e-05 -4.2917413e-06 -1.3249708e-06 
Loop time of 3.66518 on 52 procs for 166 steps with 288751 atoms

99.9% CPU use with 52 MPI tasks x 1 OpenMP threads

Minimization stats:
  Stopping criterion = energy tolerance
  Energy initial, next-to-last, final = 
     -1152448.57698046  -1152448.57861433  -1152448.57861433
  Force two-norm initial, final = 0.2037195 0.00012523161
  Force max component initial, final = 0.086502345 6.1089113e-05
  Final line search alpha, max atom move = 1.0000000 6.1089113e-05
  Iterations, force evaluations = 166 332

MPI task timing breakdown:
Section |  min time  |  avg time  |  max time  |%varavg| %total
---------------------------------------------------------------
Pair    | 0.93218    | 2.6349     | 3.5212     |  45.4 | 71.89
Neigh   | 0          | 0          | 0          |   0.0 |  0.00
Comm    | 0.044026   | 0.58787    | 1.8235     |  68.0 | 16.04
Output  | 0.00012521 | 0.00012935 | 0.00029594 |   0.0 |  0.00
Modify  | 7.0886e-05 | 0.0055429  | 0.012004   |   3.5 |  0.15
Other   |            | 0.4368     |            |       | 11.92

Nlocal:        5552.90 ave        7917 max           0 min
Histogram: 4 2 2 0 2 6 4 1 14 17
Nghost:        6213.56 ave        8768 max         412 min
Histogram: 4 0 4 0 8 0 4 5 7 20
Neighs:       158427.0 ave      230746 max           0 min
Histogram: 4 2 2 0 5 3 4 4 12 16

Total # of neighbors = 8238187
Ave neighs/atom = 28.530419
Neighbor list builds = 0
Dangerous builds = 0
The dot product: -3.34983521812263e-07
Setting atom values ...
  1 settings made for x
  1 settings made for y
  1 settings made for z
Setting up cg style minimization ...
  Unit style    : metal
  Current step  : 6016
Per MPI rank memory allocation (min/avg/max) = 5.465 | 6.344 | 6.728 Mbytes
Step PotEng KinEng TotEng v_fx v_fy v_fz 
    6016   -1152448.5            0   -1152448.5  0.082098329  0.031695743 -0.00053193588 
    6275   -1152448.6            0   -1152448.6 1.8462196e-05 5.2325411e-06 6.1972362e-08 
Loop time of 5.72748 on 52 procs for 259 steps with 288751 atoms

99.9% CPU use with 52 MPI tasks x 1 OpenMP threads

Minimization stats:
  Stopping criterion = energy tolerance
  Energy initial, next-to-last, final = 
     -1152448.54479482  -1152448.61731684  -1152448.61731684
  Force two-norm initial, final = 0.20195518 0.00026169931
  Force max component initial, final = 0.088338203 1.9069017e-05
  Final line search alpha, max atom move = 1.0000000 1.9069017e-05
  Iterations, force evaluations = 259 518

MPI task timing breakdown:
Section |  min time  |  avg time  |  max time  |%varavg| %total
---------------------------------------------------------------
Pair    | 1.4666     | 4.1316     | 5.4884     |  56.6 | 72.14
Neigh   | 3.9068e-05 | 0.011476   | 0.016843   |   4.5 |  0.20
Comm    | 0.072276   | 0.92116    | 2.8667     |  85.5 | 16.08
Output  | 0          | 0          | 0          |   0.0 |  0.00
Modify  | 9.7084e-05 | 0.0086437  | 0.018397   |   4.4 |  0.15
Other   |            | 0.6546     |            |       | 11.43

Nlocal:        5552.90 ave        7907 max           0 min
Histogram: 4 2 2 0 2 6 4 0 15 17
Nghost:        6213.54 ave        8768 max         412 min
Histogram: 4 0 4 0 8 0 4 5 7 20
Neighs:       158427.0 ave      230445 max           0 min
Histogram: 4 2 2 0 5 3 4 4 12 16

Total # of neighbors = 8238197
Ave neighs/atom = 28.530454
Neighbor list builds = 2
Dangerous builds = 0
The dot product: 2.39955923605319e-06
Setting atom values ...
  1 settings made for x
  1 settings made for y
  1 settings made for z
Setting up cg style minimization ...
  Unit style    : metal
  Current step  : 6275
Per MPI rank memory allocation (min/avg/max) = 5.465 | 6.344 | 6.728 Mbytes
Step PotEng KinEng TotEng v_fx v_fy v_fz 
    6275   -1152448.6            0   -1152448.6  0.076832352   0.14612281 -0.087975781 
    6467   -1152448.6            0   -1152448.6 7.6745486e-06 -1.578312e-05 9.0364755e-06 
Loop time of 4.26892 on 52 procs for 192 steps with 288751 atoms

99.9% CPU use with 52 MPI tasks x 1 OpenMP threads

Minimization stats:
  Stopping criterion = linesearch alpha is zero
  Energy initial, next-to-last, final = 
     -1152448.61058466  -1152448.61363219  -1152448.61363219
  Force two-norm initial, final = 0.23165989 0.00020263648
  Force max component initial, final = 0.14612281 3.5753330e-05
  Final line search alpha, max atom move = 0.25 8.9383325e-06
  Iterations, force evaluations = 192 387

MPI task timing breakdown:
Section |  min time  |  avg time  |  max time  |%varavg| %total
---------------------------------------------------------------
Pair    | 1.0885     | 3.0695     | 4.1025     |  49.0 | 71.90
Neigh   | 0          | 0          | 0          |   0.0 |  0.00
Comm    | 0.049469   | 0.68445    | 2.1243     |  73.2 | 16.03
Output  | 0          | 0          | 0          |   0.0 |  0.00
Modify  | 7.3682e-05 | 0.0064942  | 0.013903   |   3.8 |  0.15
Other   |            | 0.5085     |            |       | 11.91

Nlocal:        5552.90 ave        7907 max           0 min
Histogram: 4 2 2 0 2 6 4 0 15 17
Nghost:        6213.65 ave        8769 max         412 min
Histogram: 4 0 4 0 8 0 4 5 7 20
Neighs:       158427.0 ave      230488 max           0 min
Histogram: 4 2 2 0 5 3 4 4 12 16

Total # of neighbors = 8238185
Ave neighs/atom = 28.530412
Neighbor list builds = 0
Dangerous builds = 0
The dot product: -5.22506994468067e-07
Setting atom values ...
  1 settings made for x
  1 settings made for y
  1 settings made for z
Setting up cg style minimization ...
  Unit style    : metal
  Current step  : 6467
Per MPI rank memory allocation (min/avg/max) = 5.465 | 6.344 | 6.728 Mbytes
Step PotEng KinEng TotEng v_fx v_fy v_fz 
    6467   -1152448.6            0   -1152448.6   0.06559281  0.035114613 -0.024706673 
    6748     -1152449            0     -1152449 -4.5383512e-06 2.4821262e-05 -1.572205e-05 
Loop time of 6.22698 on 52 procs for 281 steps with 288751 atoms

99.9% CPU use with 52 MPI tasks x 1 OpenMP threads

Minimization stats:
  Stopping criterion = linesearch alpha is zero
  Energy initial, next-to-last, final = 
     -1152448.60682736  -1152448.99151099  -1152448.99151099
  Force two-norm initial, final = 0.15773489 0.00014992116
  Force max component initial, final = 0.074465001 2.4821262e-05
  Final line search alpha, max atom move = 0.5 1.2410631e-05
  Iterations, force evaluations = 281 561

MPI task timing breakdown:
Section |  min time  |  avg time  |  max time  |%varavg| %total
---------------------------------------------------------------
Pair    | 1.6054     | 4.47       | 5.9397     |  58.4 | 71.78
Neigh   | 9.2188e-05 | 0.028726   | 0.042459   |   7.2 |  0.46
Comm    | 0.081093   | 0.99603    | 3.0923     |  88.7 | 16.00
Output  | 0          | 0          | 0          |   0.0 |  0.00
Modify  | 0.00010683 | 0.0093252  | 0.019887   |   4.5 |  0.15
Other   |            | 0.7229     |            |       | 11.61

Nlocal:        5552.90 ave        7899 max           0 min
Histogram: 4 2 2 0 2 6 4 0 14 18
Nghost:        6213.62 ave        8769 max         412 min
Histogram: 4 0 4 0 8 0 4 5 7 20
Neighs:       158427.0 ave      230210 max           0 min
Histogram: 4 2 2 0 5 3 4 4 12 16

Total # of neighbors = 8238215
Ave neighs/atom = 28.530516
Neighbor list builds = 5
Dangerous builds = 0
The dot product: 7.95531443624597e-06
Setting atom values ...
  1 settings made for x
  1 settings made for y
  1 settings made for z
Setting up cg style minimization ...
  Unit style    : metal
  Current step  : 6748
Per MPI rank memory allocation (min/avg/max) = 5.465 | 6.344 | 6.728 Mbytes
Step PotEng KinEng TotEng v_fx v_fy v_fz 
    6748     -1152449            0     -1152449  -0.61710242 -0.058505697   0.76344397 
    7000   -1152449.2            0   -1152449.2 2.217617e-05 -1.8622809e-05 3.8684966e-06 
    7029   -1152449.2            0   -1152449.2 1.2760823e-05 -1.1889688e-05 3.9986215e-06 
Loop time of 6.18187 on 52 procs for 281 steps with 288751 atoms

99.9% CPU use with 52 MPI tasks x 1 OpenMP threads

Minimization stats:
  Stopping criterion = energy tolerance
  Energy initial, next-to-last, final = 
     -1152449.01576744  -1152449.17339669  -1152449.17339669
  Force two-norm initial, final = 0.99536634 8.3207528e-05
  Force max component initial, final = 0.76344397 1.5601658e-05
  Final line search alpha, max atom move = 1.0000000 1.5601658e-05
  Iterations, force evaluations = 281 562

MPI task timing breakdown:
Section |  min time  |  avg time  |  max time  |%varavg| %total
---------------------------------------------------------------
Pair    | 1.5977     | 4.4593     | 5.907      |  58.3 | 72.14
Neigh   | 3.7588e-05 | 0.011503   | 0.016787   |   4.5 |  0.19
Comm    | 0.07725    | 0.98998    | 3.0891     |  88.6 | 16.01
Output  | 0.00012372 | 0.00012824 | 0.00029455 |   0.0 |  0.00
Modify  | 0.00010963 | 0.0094022  | 0.020046   |   4.6 |  0.15
Other   |            | 0.7116     |            |       | 11.51

Nlocal:        5552.90 ave        7869 max           0 min
Histogram: 4 2 2 0 2 6 4 0 14 18
Nghost:        6213.69 ave        8770 max         412 min
Histogram: 4 0 4 0 8 0 4 5 7 20
Neighs:       158427.0 ave      229190 max           0 min
Histogram: 4 2 2 0 4 4 4 4 10 18

Total # of neighbors = 8238204
Ave neighs/atom = 28.530478
Neighbor list builds = 2
Dangerous builds = 0
The dot product: -2.2574290025184e-06
Setting atom values ...
  1 settings made for x
  1 settings made for y
  1 settings made for z
Setting up cg style minimization ...
  Unit style    : metal
  Current step  : 7029
Per MPI rank memory allocation (min/avg/max) = 5.465 | 6.344 | 6.728 Mbytes
Step PotEng KinEng TotEng v_fx v_fy v_fz 
    7029   -1152449.2            0   -1152449.2   0.38115665  0.076131677  -0.23937961 
    7228   -1152449.2            0   -1152449.2 5.3741871e-05 -3.6337126e-05 1.5780191e-05 
Loop time of 4.36651 on 52 procs for 199 steps with 288751 atoms

99.9% CPU use with 52 MPI tasks x 1 OpenMP threads

Minimization stats:
  Stopping criterion = energy tolerance
  Energy initial, next-to-last, final = 
     -1152449.19774635  -1152449.22536362  -1152449.22536362
  Force two-norm initial, final = 0.48669927 0.00038356212
  Force max component initial, final = 0.38115665 6.6047425e-05
  Final line search alpha, max atom move = 1.0000000 6.6047425e-05
  Iterations, force evaluations = 199 398

MPI task timing breakdown:
Section |  min time  |  avg time  |  max time  |%varavg| %total
---------------------------------------------------------------
Pair    | 1.1291     | 3.1651     | 4.1866     |  49.3 | 72.49
Neigh   | 1.8045e-05 | 0.0057281  | 0.0083773  |   3.2 |  0.13
Comm    | 0.054555   | 0.70234    | 2.1888     |  74.7 | 16.08
Output  | 0          | 0          | 0          |   0.0 |  0.00
Modify  | 8.0925e-05 | 0.0066286  | 0.014083   |   3.8 |  0.15
Other   |            | 0.4867     |            |       | 11.15

Nlocal:        5552.90 ave        7864 max           0 min
Histogram: 4 2 2 0 2 6 4 0 13 19
Nghost:        6213.67 ave        8770 max         412 min
Histogram: 4 0 4 0 8 0 4 5 7 20
Neighs:       158427.0 ave      229022 max           0 min
Histogram: 4 2 2 0 4 4 4 4 10 18

Total # of neighbors = 8238197
Ave neighs/atom = 28.530454
Neighbor list builds = 1
Dangerous builds = 0
The dot product: 4.51808463088324e-06
Setting atom values ...
  1 settings made for x
  1 settings made for y
  1 settings made for z
Setting up cg style minimization ...
  Unit style    : metal
  Current step  : 7228
Per MPI rank memory allocation (min/avg/max) = 5.465 | 6.344 | 6.728 Mbytes
Step PotEng KinEng TotEng v_fx v_fy v_fz 
    7228   -1152449.2            0   -1152449.2 -0.090891743 0.0012472161   0.05485225 
    7452   -1152449.3            0   -1152449.3 4.5189979e-06 2.5744989e-06 -5.7942473e-06 
Loop time of 4.92252 on 52 procs for 224 steps with 288751 atoms

99.9% CPU use with 52 MPI tasks x 1 OpenMP threads

Minimization stats:
  Stopping criterion = linesearch alpha is zero
  Energy initial, next-to-last, final = 
     -1152449.24711882  -1152449.25193657  -1152449.25193657
  Force two-norm initial, final = 0.19083521 6.8109077e-05
  Force max component initial, final = 0.090891743 7.6275850e-06
  Final line search alpha, max atom move = 0.5 3.8137925e-06
  Iterations, force evaluations = 224 449

MPI task timing breakdown:
Section |  min time  |  avg time  |  max time  |%varavg| %total
---------------------------------------------------------------
Pair    | 1.2677     | 3.5618     | 4.724      |  52.4 | 72.36
Neigh   | 0          | 0          | 0          |   0.0 |  0.00
Comm    | 0.059348   | 0.7895     | 2.4705     |  79.5 | 16.04
Output  | 0          | 0          | 0          |   0.0 |  0.00
Modify  | 8.5349e-05 | 0.0075024  | 0.015881   |   4.1 |  0.15
Other   |            | 0.5637     |            |       | 11.45

Nlocal:        5552.90 ave        7866 max           0 min
Histogram: 4 2 2 0 2 6 4 0 13 19
Nghost:        6213.69 ave        8771 max         412 min
Histogram: 4 0 4 0 8 0 4 5 7 20
Neighs:       158427.0 ave      229102 max           0 min
Histogram: 4 2 2 0 4 4 4 4 10 18

Total # of neighbors = 8238205
Ave neighs/atom = 28.530481
Neighbor list builds = 0
Dangerous builds = 0
The dot product: -3.08473492585628e-07
Setting atom values ...
  1 settings made for x
  1 settings made for y
  1 settings made for z
Setting up cg style minimization ...
  Unit style    : metal
  Current step  : 7452
Per MPI rank memory allocation (min/avg/max) = 5.465 | 6.344 | 6.728 Mbytes
Step PotEng KinEng TotEng v_fx v_fy v_fz 
    7452   -1152449.3            0   -1152449.3  0.067769665 0.0062521342 -0.043840243 
    7661   -1152449.3            0   -1152449.3 3.134452e-06 -4.0503745e-06 2.8598221e-06 
Loop time of 4.61 on 52 procs for 209 steps with 288751 atoms

99.9% CPU use with 52 MPI tasks x 1 OpenMP threads

Minimization stats:
  Stopping criterion = energy tolerance
  Energy initial, next-to-last, final = 
     -1152449.27280205  -1152449.27444849  -1152449.27444849
  Force two-norm initial, final = 0.18041148 4.6191993e-05
  Force max component initial, final = 0.089176599 1.0012139e-05
  Final line search alpha, max atom move = 1.0000000 1.0012139e-05
  Iterations, force evaluations = 209 418

MPI task timing breakdown:
Section |  min time  |  avg time  |  max time  |%varavg| %total
---------------------------------------------------------------
Pair    | 1.1777     | 3.3285     | 4.4031     |  50.8 | 72.20
Neigh   | 0          | 0          | 0          |   0.0 |  0.00
Comm    | 0.057589   | 0.74363    | 2.3045     |  76.1 | 16.13
Output  | 0          | 0          | 0          |   0.0 |  0.00
Modify  | 8.3247e-05 | 0.006975   | 0.014878   |   3.9 |  0.15
Other   |            | 0.5308     |            |       | 11.52

Nlocal:        5552.90 ave        7865 max           0 min
Histogram: 4 2 2 0 2 6 4 0 13 19
Nghost:        6213.69 ave        8771 max         412 min
Histogram: 4 0 4 0 8 0 4 5 7 20
Neighs:       158427.0 ave      229067 max           0 min
Histogram: 4 2 2 0 4 4 4 4 10 18

Total # of neighbors = 8238203
Ave neighs/atom = 28.530474
Neighbor list builds = 0
Dangerous builds = 0
The dot product: 1.99918782897083e-08
Setting atom values ...
  1 settings made for x
  1 settings made for y
  1 settings made for z
Setting up cg style minimization ...
  Unit style    : metal
  Current step  : 7661
Per MPI rank memory allocation (min/avg/max) = 5.465 | 6.344 | 6.728 Mbytes
Step PotEng KinEng TotEng v_fx v_fy v_fz 
    7661   -1152449.3            0   -1152449.3   0.01717327  0.007286027 -0.017896521 
    7857   -1152449.3            0   -1152449.3 -6.8108551e-06 7.7833715e-06 -4.9992203e-06 
Loop time of 4.30545 on 52 procs for 196 steps with 288751 atoms

99.9% CPU use with 52 MPI tasks x 1 OpenMP threads

Minimization stats:
  Stopping criterion = energy tolerance
  Energy initial, next-to-last, final = 
[...]
Nghost:        6213.62 ave        8769 max         412 min
Histogram: 4 0 4 0 8 0 4 5 7 20
Neighs:       158427.0 ave      230014 max           0 min
Histogram: 4 2 2 0 5 3 4 4 12 16

Total # of neighbors = 8238190
Ave neighs/atom = 28.530429
Neighbor list builds = 0
Dangerous builds = 0
The dot product: 7.41758929190378e-08
Setting atom values ...
  1 settings made for x
  1 settings made for y
  1 settings made for z
Setting up cg style minimization ...
  Unit style    : metal
  Current step  : 16580
Per MPI rank memory allocation (min/avg/max) = 5.465 | 6.344 | 6.728 Mbytes
Step PotEng KinEng TotEng v_fx v_fy v_fz 
   16580   -1152449.3            0   -1152449.3 -0.042446347  0.025276282 0.0018974711 
   16790   -1152449.3            0   -1152449.3 8.3216946e-07 -9.574699e-08 -6.0969077e-07 
Loop time of 4.52833 on 52 procs for 210 steps with 288751 atoms

99.9% CPU use with 52 MPI tasks x 1 OpenMP threads

Minimization stats:
  Stopping criterion = linesearch alpha is zero
  Energy initial, next-to-last, final = 
     -1152449.33224355  -1152449.33327297  -1152449.33327297
  Force two-norm initial, final = 0.14056598 4.8078469e-05
  Force max component initial, final = 0.058477654 1.5649155e-06
  Final line search alpha, max atom move = 0.5 7.8245776e-07
  Iterations, force evaluations = 210 421

MPI task timing breakdown:
Section |  min time  |  avg time  |  max time  |%varavg| %total
---------------------------------------------------------------
Pair    | 1.19       | 3.3157     | 4.3436     |  50.2 | 73.22
Neigh   | 0          | 0          | 0          |   0.0 |  0.00
Comm    | 0.053321   | 0.72466    | 2.3085     |  77.4 | 16.00
Output  | 0          | 0          | 0          |   0.0 |  0.00
Modify  | 7.2144e-05 | 0.0069901  | 0.014757   |   3.9 |  0.15
Other   |            | 0.481      |            |       | 10.62

Nlocal:        5552.90 ave        7900 max           0 min
Histogram: 4 2 2 0 2 6 4 0 14 18
Nghost:        6213.58 ave        8769 max         412 min
Histogram: 4 0 4 0 8 0 4 5 7 20
Neighs:       158427.0 ave      230279 max           0 min
Histogram: 4 2 2 0 5 3 4 4 12 16

Total # of neighbors = 8238191
Ave neighs/atom = 28.530433
Neighbor list builds = 0
Dangerous builds = 0
The dot product: -2.39753237153958e-09
Setting atom values ...
  1 settings made for x
  1 settings made for y
  1 settings made for z
Setting up cg style minimization ...
  Unit style    : metal
  Current step  : 16790
Per MPI rank memory allocation (min/avg/max) = 5.465 | 6.344 | 6.728 Mbytes
Step PotEng KinEng TotEng v_fx v_fy v_fz 
   16790   -1152449.3            0   -1152449.3 -0.043138931  0.025972503 0.0013938327 
   16952   -1152449.3            0   -1152449.3 -3.8183796e-05 2.9077357e-05 -7.4894556e-06 
Loop time of 3.49386 on 52 procs for 162 steps with 288751 atoms

99.9% CPU use with 52 MPI tasks x 1 OpenMP threads

Minimization stats:
  Stopping criterion = energy tolerance
  Energy initial, next-to-last, final = 
     -1152449.33884109  -1152449.33988461  -1152449.33988461
  Force two-norm initial, final = 0.14145774 0.00024853906
  Force max component initial, final = 0.060169679 3.8183796e-05
  Final line search alpha, max atom move = 1.0000000 3.8183796e-05
  Iterations, force evaluations = 162 324

MPI task timing breakdown:
Section |  min time  |  avg time  |  max time  |%varavg| %total
---------------------------------------------------------------
Pair    | 0.91489    | 2.5542     | 3.3508     |  44.1 | 73.10
Neigh   | 0          | 0          | 0          |   0.0 |  0.00
Comm    | 0.041012   | 0.56       | 1.7831     |  67.7 | 16.03
Output  | 0          | 0          | 0          |   0.0 |  0.00
Modify  | 5.5696e-05 | 0.0053932  | 0.01136    |   3.4 |  0.15
Other   |            | 0.3743     |            |       | 10.71

Nlocal:        5552.90 ave        7904 max           0 min
Histogram: 4 2 2 0 2 6 4 0 15 17
Nghost:        6213.58 ave        8769 max         412 min
Histogram: 4 0 4 0 8 0 4 5 7 20
Neighs:       158427.0 ave      230401 max           0 min
Histogram: 4 2 2 0 5 3 4 4 12 16

Total # of neighbors = 8238192
Ave neighs/atom = 28.530436
Neighbor list builds = 0
Dangerous builds = 0
The dot product: 1.40930681559229e-07
Setting atom values ...
  1 settings made for x
  1 settings made for y
  1 settings made for z
Setting up cg style minimization ...
  Unit style    : metal
  Current step  : 16952
Per MPI rank memory allocation (min/avg/max) = 5.465 | 6.344 | 6.728 Mbytes
Step PotEng KinEng TotEng v_fx v_fy v_fz 
   16952   -1152449.3            0   -1152449.3 -0.043019209  0.026532756 0.00035058926 
   17000   -1152449.3            0   -1152449.3 -3.6924292e-05 0.00018858408 -0.00023743156 
   17139   -1152449.3            0   -1152449.3 1.2131955e-05 -9.5499583e-06 2.8652702e-06 
Loop time of 4.04785 on 52 procs for 187 steps with 288751 atoms

99.9% CPU use with 52 MPI tasks x 1 OpenMP threads

Minimization stats:
  Stopping criterion = linesearch alpha is zero
  Energy initial, next-to-last, final = 
     -1152449.34395807  -1152449.34501437  -1152449.34501437
  Force two-norm initial, final = 0.14203117 0.00010293268
  Force max component initial, final = 0.061829537 1.5633306e-05
  Final line search alpha, max atom move = 0.5 7.8166528e-06
  Iterations, force evaluations = 187 377

MPI task timing breakdown:
Section |  min time  |  avg time  |  max time  |%varavg| %total
---------------------------------------------------------------
Pair    | 1.0634     | 2.9672     | 3.8875     |  47.5 | 73.30
Neigh   | 0          | 0          | 0          |   0.0 |  0.00
Comm    | 0.047828   | 0.64751    | 2.0676     |  73.3 | 16.00
Output  | 0.00011725 | 0.00012205 | 0.00032423 |   0.0 |  0.00
Modify  | 6.5585e-05 | 0.006258   | 0.013267   |   3.7 |  0.15
Other   |            | 0.4267     |            |       | 10.54

Nlocal:        5552.90 ave        7908 max           0 min
Histogram: 4 2 2 0 2 6 4 0 15 17
Nghost:        6213.54 ave        8769 max         412 min
Histogram: 4 0 4 0 8 0 4 5 7 20
Neighs:       158427.0 ave      230526 max           0 min
Histogram: 4 2 2 0 5 3 4 4 12 16

Total # of neighbors = 8238191
Ave neighs/atom = 28.530433
Neighbor list builds = 0
Dangerous builds = 0
The dot product: -4.61977783071967e-08
Setting atom values ...
  1 settings made for x
  1 settings made for y
  1 settings made for z
Setting up cg style minimization ...
  Unit style    : metal
  Current step  : 17139
Per MPI rank memory allocation (min/avg/max) = 5.465 | 6.344 | 6.728 Mbytes
Step PotEng KinEng TotEng v_fx v_fy v_fz 
   17139   -1152449.3            0   -1152449.3  -0.04206927  0.026854469 -0.001091816 
   17318   -1152449.3            0   -1152449.3 -2.4628613e-06 -6.4735306e-06 1.1479202e-05 
Loop time of 3.87028 on 52 procs for 179 steps with 288751 atoms

99.9% CPU use with 52 MPI tasks x 1 OpenMP threads

Minimization stats:
  Stopping criterion = linesearch alpha is zero
  Energy initial, next-to-last, final = 
     -1152449.34760145  -1152449.34866818  -1152449.34866818
  Force two-norm initial, final = 0.142267 0.00013372062
  Force max component initial, final = 0.063419617 2.8296335e-05
  Final line search alpha, max atom move = 0.5 1.4148168e-05
  Iterations, force evaluations = 179 359

MPI task timing breakdown:
Section |  min time  |  avg time  |  max time  |%varavg| %total
---------------------------------------------------------------
Pair    | 1.0135     | 2.8275     | 3.7093     |  46.4 | 73.06
Neigh   | 0          | 0          | 0          |   0.0 |  0.00
Comm    | 0.048448   | 0.61886    | 1.9719     |  71.4 | 15.99
Output  | 0          | 0          | 0          |   0.0 |  0.00
Modify  | 6.0694e-05 | 0.0059625  | 0.012605   |   3.6 |  0.15
Other   |            | 0.4179     |            |       | 10.80

Nlocal:        5552.90 ave        7910 max           0 min
Histogram: 4 2 2 0 2 6 4 0 15 17
Nghost:        6213.54 ave        8769 max         412 min
Histogram: 4 0 4 0 8 0 4 5 7 20
Neighs:       158427.0 ave      230588 max           0 min
Histogram: 4 2 2 0 5 3 4 4 12 16

Total # of neighbors = 8238188
Ave neighs/atom = 28.530422
Neighbor list builds = 0
Dangerous builds = 0
The dot product: -4.06781896637696e-10
Setting atom values ...
  1 settings made for x
  1 settings made for y
  1 settings made for z
Setting up cg style minimization ...
  Unit style    : metal
  Current step  : 17318
Per MPI rank memory allocation (min/avg/max) = 5.465 | 6.344 | 6.728 Mbytes
Step PotEng KinEng TotEng v_fx v_fy v_fz 
   17318   -1152449.3            0   -1152449.3 -0.040719848   0.02709756 -0.0027707053 
   17508   -1152449.4            0   -1152449.4 2.6133197e-06 -2.090549e-06 6.8244194e-07 
Loop time of 4.08475 on 52 procs for 190 steps with 288751 atoms

99.9% CPU use with 52 MPI tasks x 1 OpenMP threads

Minimization stats:
  Stopping criterion = energy tolerance
  Energy initial, next-to-last, final = 
      -1152449.3497751  -1152449.35085128  -1152449.35085128
  Force two-norm initial, final = 0.14241397 9.1957549e-05
  Force max component initial, final = 0.064987085 4.3919701e-06
  Final line search alpha, max atom move = 1.0000000 4.3919701e-06
  Iterations, force evaluations = 190 380

MPI task timing breakdown:
Section |  min time  |  avg time  |  max time  |%varavg| %total
---------------------------------------------------------------
Pair    | 1.0748     | 2.9921     | 3.923      |  47.7 | 73.25
Neigh   | 0          | 0          | 0          |   0.0 |  0.00
Comm    | 0.048177   | 0.65343    | 2.0846     |  73.5 | 16.00
Output  | 0          | 0          | 0          |   0.0 |  0.00
Modify  | 6.7063e-05 | 0.0063037  | 0.013302   |   3.7 |  0.15
Other   |            | 0.4329     |            |       | 10.60

Nlocal:        5552.90 ave        7913 max           0 min
Histogram: 4 2 2 0 2 6 4 1 14 17
Nghost:        6213.54 ave        8769 max         412 min
Histogram: 4 0 4 0 8 0 4 5 7 20
Neighs:       158427.0 ave      230671 max           0 min
Histogram: 4 2 2 0 5 3 4 4 12 16

Total # of neighbors = 8238188
Ave neighs/atom = 28.530422
Neighbor list builds = 0
Dangerous builds = 0
The dot product: -9.9039162806988e-09
Setting atom values ...
  1 settings made for x
  1 settings made for y
  1 settings made for z
Setting up cg style minimization ...
  Unit style    : metal
  Current step  : 17508
Per MPI rank memory allocation (min/avg/max) = 5.465 | 6.344 | 6.728 Mbytes
Step PotEng KinEng TotEng v_fx v_fy v_fz 
   17508   -1152449.4            0   -1152449.4  -0.03932562  0.027293458  -0.00441201 
   17704   -1152449.4            0   -1152449.4 -1.1991114e-07 4.7425309e-06 -6.7077654e-06 
Loop time of 4.24721 on 52 procs for 196 steps with 288751 atoms

99.9% CPU use with 52 MPI tasks x 1 OpenMP threads

Minimization stats:
  Stopping criterion = energy tolerance
  Energy initial, next-to-last, final = 
     -1152449.35049101  -1152449.35157344  -1152449.35157344
  Force two-norm initial, final = 0.14245935 8.2729274e-05
  Force max component initial, final = 0.066469933 1.5482442e-05
  Final line search alpha, max atom move = 1.0000000 1.5482442e-05
  Iterations, force evaluations = 196 392

MPI task timing breakdown:
Section |  min time  |  avg time  |  max time  |%varavg| %total
---------------------------------------------------------------
Pair    | 1.1075     | 3.0874     | 4.0547     |  48.4 | 72.69
Neigh   | 0          | 0          | 0          |   0.0 |  0.00
Comm    | 0.052398   | 0.67925    | 2.1517     |  74.5 | 15.99
Output  | 0          | 0          | 0          |   0.0 |  0.00
Modify  | 7.1684e-05 | 0.0065138  | 0.013714   |   3.8 |  0.15
Other   |            | 0.4741     |            |       | 11.16

Nlocal:        5552.90 ave        7916 max           0 min
Histogram: 4 2 2 0 2 6 4 1 14 17
Nghost:        6213.54 ave        8769 max         412 min
Histogram: 4 0 4 0 8 0 4 5 7 20
Neighs:       158427.0 ave      230765 max           0 min
Histogram: 4 2 2 0 5 3 4 4 12 16

Total # of neighbors = 8238190
Ave neighs/atom = 28.530429
Neighbor list builds = 0
Dangerous builds = 0
The dot product: 6.66504388427255e-09
Setting atom values ...
  1 settings made for x
  1 settings made for y
  1 settings made for z
Setting up cg style minimization ...
  Unit style    : metal
  Current step  : 17704
Per MPI rank memory allocation (min/avg/max) = 5.465 | 6.344 | 6.728 Mbytes
Step PotEng KinEng TotEng v_fx v_fy v_fz 
   17704   -1152449.3            0   -1152449.3 -0.038570443  0.027577549 -0.0056067231 
   17874   -1152449.4            0   -1152449.4 -2.607648e-05 -7.221232e-06 3.3401562e-05 
Loop time of 3.69706 on 52 procs for 170 steps with 288751 atoms

99.9% CPU use with 52 MPI tasks x 1 OpenMP threads

Minimization stats:
  Stopping criterion = linesearch alpha is zero
  Energy initial, next-to-last, final = 
     -1152449.34977887  -1152449.35086514  -1152449.35086514
  Force two-norm initial, final = 0.1425061 0.00019871068
  Force max component initial, final = 0.067911292 3.5551772e-05
  Final line search alpha, max atom move = 0.25 8.8879431e-06
  Iterations, force evaluations = 170 343

MPI task timing breakdown:
Section |  min time  |  avg time  |  max time  |%varavg| %total
---------------------------------------------------------------
Pair    | 0.97178    | 2.7027     | 3.552      |  45.3 | 73.10
Neigh   | 0          | 0          | 0          |   0.0 |  0.00
Comm    | 0.043873   | 0.5924     | 1.8827     |  69.6 | 16.02
Output  | 0          | 0          | 0          |   0.0 |  0.00
Modify  | 5.9202e-05 | 0.0056999  | 0.012023   |   3.5 |  0.15
Other   |            | 0.3963     |            |       | 10.72

Nlocal:        5552.90 ave        7917 max           0 min
Histogram: 4 2 2 0 2 6 4 1 14 17
Nghost:        6213.54 ave        8769 max         412 min
Histogram: 4 0 4 0 8 0 4 5 7 20
Neighs:       158427.0 ave      230811 max           0 min
Histogram: 4 2 2 0 5 3 4 4 12 16

Total # of neighbors = 8238196
Ave neighs/atom = 28.530450
Neighbor list builds = 0
Dangerous builds = 0
The dot product: 5.78407832066031e-08
Setting atom values ...
  1 settings made for x
  1 settings made for y
  1 settings made for z
Setting up cg style minimization ...
  Unit style    : metal
  Current step  : 17874
Per MPI rank memory allocation (min/avg/max) = 5.465 | 6.344 | 6.728 Mbytes
Step PotEng KinEng TotEng v_fx v_fy v_fz 
   17874   -1152449.3            0   -1152449.3 -0.039265431  0.028062428 -0.005811328 
   18000   -1152449.3            0   -1152449.3 2.9353497e-05 2.0084383e-05 -5.4750131e-05 
   18025   -1152449.3            0   -1152449.3 -4.9795364e-06 -2.1116304e-05 3.4773488e-05 
Loop time of 3.24957 on 52 procs for 151 steps with 288751 atoms

99.9% CPU use with 52 MPI tasks x 1 OpenMP threads

Minimization stats:
  Stopping criterion = energy tolerance
  Energy initial, next-to-last, final = 
     -1152449.34771657  -1152449.34880867  -1152449.34880867
  Force two-norm initial, final = 0.14276314 0.00027996138
  Force max component initial, final = 0.069323643 6.0405037e-05
  Final line search alpha, max atom move = 1.0000000 6.0405037e-05
  Iterations, force evaluations = 151 302

MPI task timing breakdown:
Section |  min time  |  avg time  |  max time  |%varavg| %total
---------------------------------------------------------------
Pair    | 0.85348    | 2.3789     | 3.1209     |  42.5 | 73.21
Neigh   | 0          | 0          | 0          |   0.0 |  0.00
Comm    | 0.038741   | 0.52099    | 1.6596     |  65.4 | 16.03
Output  | 0.00012649 | 0.00013243 | 0.0003743  |   0.0 |  0.00
Modify  | 5.224e-05  | 0.0050068  | 0.010599   |   3.3 |  0.15
Other   |            | 0.3445     |            |       | 10.60

Nlocal:        5552.90 ave        7917 max           0 min
Histogram: 4 2 2 0 2 6 4 1 14 17
Nghost:        6213.54 ave        8769 max         412 min
Histogram: 4 0 4 0 8 0 4 5 7 20
Neighs:       158427.0 ave      230811 max           0 min
Histogram: 4 2 2 0 5 3 4 4 12 16

Total # of neighbors = 8238193
Ave neighs/atom = 28.530440
Neighbor list builds = 0
Dangerous builds = 0
The dot product: -1.78361909947998e-08
Setting atom values ...
  1 settings made for x
  1 settings made for y
  1 settings made for z
Setting up cg style minimization ...
  Unit style    : metal
  Current step  : 18025
Per MPI rank memory allocation (min/avg/max) = 5.465 | 6.344 | 6.728 Mbytes
Step PotEng KinEng TotEng v_fx v_fy v_fz 
   18025   -1152449.3            0   -1152449.3 -0.042348067  0.028927322 -0.004481778 
   18183   -1152449.3            0   -1152449.3 4.6694757e-05 9.8469075e-07 -4.2420181e-05 
Loop time of 3.40647 on 52 procs for 158 steps with 288751 atoms

99.9% CPU use with 52 MPI tasks x 1 OpenMP threads

Minimization stats:
  Stopping criterion = energy tolerance
  Energy initial, next-to-last, final = 
     -1152449.34448337   -1152449.3456136   -1152449.3456136
  Force two-norm initial, final = 0.1440732 0.00019030647
  Force max component initial, final = 0.070676985 4.6694757e-05
  Final line search alpha, max atom move = 1.0000000 4.6694757e-05
  Iterations, force evaluations = 158 316

MPI task timing breakdown:
Section |  min time  |  avg time  |  max time  |%varavg| %total
---------------------------------------------------------------
Pair    | 0.8931     | 2.4895     | 3.2687     |  43.5 | 73.08
Neigh   | 0          | 0          | 0          |   0.0 |  0.00
Comm    | 0.040331   | 0.54537    | 1.7344     |  66.8 | 16.01
Output  | 0          | 0          | 0          |   0.0 |  0.00
Modify  | 5.6082e-05 | 0.0052373  | 0.011071   |   3.4 |  0.15
Other   |            | 0.3663     |            |       | 10.75

Nlocal:        5552.90 ave        7918 max           0 min
Histogram: 4 2 2 0 2 6 4 1 14 17
Nghost:        6213.54 ave        8769 max         412 min
Histogram: 4 0 4 0 8 0 4 5 7 20
Neighs:       158427.0 ave      230838 max           0 min
Histogram: 4 2 2 0 5 3 4 4 12 16

Total # of neighbors = 8238193
Ave neighs/atom = 28.530440
Neighbor list builds = 0
Dangerous builds = 0
The dot product: -1.98997996978888e-07
Setting atom values ...
  1 settings made for x
  1 settings made for y
  1 settings made for z
Setting up cg style minimization ...
  Unit style    : metal
  Current step  : 18183
Per MPI rank memory allocation (min/avg/max) = 5.465 | 6.344 | 6.728 Mbytes
Step PotEng KinEng TotEng v_fx v_fy v_fz 
   18183   -1152449.3            0   -1152449.3 -0.049517241  0.030466965 -0.00061473607 
   18439   -1152449.3            0   -1152449.3 2.090701e-05 -2.3076711e-05 1.4982193e-05 
Loop time of 5.50291 on 52 procs for 256 steps with 288751 atoms

99.9% CPU use with 52 MPI tasks x 1 OpenMP threads

Minimization stats:
  Stopping criterion = energy tolerance
  Energy initial, next-to-last, final = 
     -1152449.34053475  -1152449.34898238  -1152449.34898238
  Force two-norm initial, final = 0.14948627 0.00014712006
  Force max component initial, final = 0.071922163 2.5606539e-05
  Final line search alpha, max atom move = 1.0000000 2.5606539e-05
  Iterations, force evaluations = 256 512

MPI task timing breakdown:
Section |  min time  |  avg time  |  max time  |%varavg| %total
---------------------------------------------------------------
Pair    | 1.4505     | 4.0273     | 5.277      |  55.2 | 73.18
Neigh   | 1.9191e-05 | 0.0057467  | 0.0084636  |   3.2 |  0.10
Comm    | 0.065797   | 0.88188    | 2.8135     |  85.2 | 16.03
Output  | 0          | 0          | 0          |   0.0 |  0.00
Modify  | 8.8318e-05 | 0.0085214  | 0.018084   |   4.3 |  0.15
Other   |            | 0.5795     |            |       | 10.53

Nlocal:        5552.90 ave        7908 max           0 min
Histogram: 4 2 2 0 2 6 4 0 15 17
Nghost:        6213.54 ave        8769 max         412 min
Histogram: 4 0 4 0 8 0 4 5 7 20
Neighs:       158427.0 ave      230511 max           0 min
Histogram: 4 2 2 0 5 3 4 4 12 16

Total # of neighbors = 8238201
Ave neighs/atom = 28.530467
Neighbor list builds = 1
Dangerous builds = 0
The dot product: -1.75966014911037e-06
