LAMMPS (29 Oct 2020)
OMP_NUM_THREADS environment is not set. Defaulting to 1 thread. (../comm.cpp:94)
  using 1 OpenMP thread(s) per MPI task
OMP_NUM_THREADS environment is not set. Defaulting to 1 thread. (../comm.cpp:94)
  using 1 OpenMP thread(s) per MPI task
Reading data file ...
  orthogonal box = (-122.39241 -121.13707 -37.090501) to (122.39241 121.13707 37.090501)
  13 by 4 by 2 MPI processor grid
  reading atoms ...
  288751 atoms
  read_data CPU = 0.377 seconds
199981 atoms in group inner
88770 atoms in group outer
1 atoms in group carbon
Neighbor list info ...
  update every 1 steps, delay 0 steps, check yes
  max neighbors/atom: 2000, page size: 100000
  master list distance cutoff = 5.6
  ghost atom cutoff = 5.6
  binsize = 2.8, bins = 88 87 27
  1 neighbor lists, perpetual/occasional/extra = 1 0 0
  (1) pair eam/alloy, perpetual
      attributes: half, newton on
      pair build: half/bin/atomonly/newton
      stencil: half/bin/3d/newton
      bin: standard
Setting up cg style minimization ...
  Unit style    : metal
  Current step  : 0
Per MPI rank memory allocation (min/avg/max) = 5.441 | 5.816 | 6.074 Mbytes
Step v_fx v_fy v_fz PotEng KinEng TotEng 
       0   -1.6325143  -0.71982095    2.4528973   -1152447.8            0   -1152447.8 
     162 1.0160659e-05 -1.5116992e-06 -3.2034944e-05   -1152449.5            0   -1152449.5 
Loop time of 1.92501 on 104 procs for 162 steps with 288751 atoms

99.8% CPU use with 104 MPI tasks x 1 OpenMP threads

Minimization stats:
  Stopping criterion = energy tolerance
  Energy initial, next-to-last, final = 
     -1152447.79198111  -1152449.45035285  -1152449.45035285
  Force two-norm initial, final = 10.068315 0.00012448385
  Force max component initial, final = 6.1077451 3.2034944e-05
  Final line search alpha, max atom move = 1.0000000 3.2034944e-05
  Iterations, force evaluations = 162 323

MPI task timing breakdown:
Section |  min time  |  avg time  |  max time  |%varavg| %total
---------------------------------------------------------------
Pair    | 0.50847    | 1.3639     | 1.774      |  31.1 | 70.85
Neigh   | 3.0928e-05 | 0.0087736  | 0.012737   |   3.9 |  0.46
Comm    | 0.032931   | 0.31505    | 0.92855    |  45.3 | 16.37
Output  | 0          | 0          | 0          |   0.0 |  0.00
Modify  | 1.9072e-05 | 0.0017522  | 0.0044933  |   2.6 |  0.09
Other   |            | 0.2355     |            |       | 12.23

Nlocal:        2776.45 ave        3961 max           0 min
Histogram: 8 4 4 0 6 10 8 2 28 34
Nghost:        3879.03 ave        5425 max         232 min
Histogram: 8 0 8 0 16 0 8 8 16 40
Neighs:        79213.5 ave      115458 max           0 min
Histogram: 8 4 4 0 10 6 8 8 24 32

Total # of neighbors = 8238206
Ave neighs/atom = 28.530485
Neighbor list builds = 3
Dangerous builds = 0
Setting atom values ...
  1 settings made for x
  1 settings made for y
  1 settings made for z
Setting up cg style minimization ...
  Unit style    : metal
  Current step  : 162
Per MPI rank memory allocation (min/avg/max) = 5.441 | 5.816 | 6.074 Mbytes
Step PotEng KinEng TotEng v_fx v_fy v_fz 
     162   -1152449.4            0   -1152449.4 0.00027706094 -0.0097140991 -0.0087459567 
     364   -1152449.5            0   -1152449.5 1.1927113e-06 -4.428628e-08 -1.9148076e-06 
Loop time of 2.43309 on 104 procs for 202 steps with 288751 atoms

99.9% CPU use with 104 MPI tasks x 1 OpenMP threads

Minimization stats:
  Stopping criterion = energy tolerance
  Energy initial, next-to-last, final = 
     -1152449.44959007  -1152449.45008251  -1152449.45008251
  Force two-norm initial, final = 0.10181937 4.6334696e-05
  Force max component initial, final = 0.051614836 2.7025231e-06
  Final line search alpha, max atom move = 1.0000000 2.7025231e-06
  Iterations, force evaluations = 202 404

MPI task timing breakdown:
Section |  min time  |  avg time  |  max time  |%varavg| %total
---------------------------------------------------------------
Pair    | 0.62487    | 1.7151     | 2.2511     |  35.2 | 70.49
Neigh   | 0          | 0          | 0          |   0.0 |  0.00
Comm    | 0.045805   | 0.40118    | 1.1863     |  50.7 | 16.49
Output  | 0          | 0          | 0          |   0.0 |  0.00
Modify  | 2.6446e-05 | 0.0033468  | 0.0071195  |   2.7 |  0.14
Other   |            | 0.3135     |            |       | 12.88

Nlocal:        2776.45 ave        3960 max           0 min
Histogram: 8 4 4 0 4 12 8 2 28 34
Nghost:        3879.03 ave        5424 max         232 min
Histogram: 8 0 8 0 16 0 8 8 16 40
Neighs:        79213.4 ave      115436 max           0 min
Histogram: 8 4 4 0 10 6 8 8 24 32

Total # of neighbors = 8238197
Ave neighs/atom = 28.530454
Neighbor list builds = 0
Dangerous builds = 0
Setting atom values ...
  1 settings made for x
  1 settings made for y
  1 settings made for z
Setting up cg style minimization ...
  Unit style    : metal
  Current step  : 364
Per MPI rank memory allocation (min/avg/max) = 5.441 | 5.816 | 6.074 Mbytes
Step PotEng KinEng TotEng v_fx v_fy v_fz 
     364   -1152449.4            0   -1152449.4 -0.0004606955 -0.020425295 -0.018584745 
     563   -1152449.4            0   -1152449.4 -1.2099053e-05 2.3818943e-06 2.4317143e-05 
Loop time of 2.36074 on 104 procs for 199 steps with 288751 atoms

99.9% CPU use with 104 MPI tasks x 1 OpenMP threads

Minimization stats:
  Stopping criterion = energy tolerance
  Energy initial, next-to-last, final = 
     -1152449.44665076  -1152449.44825726  -1152449.44825726
  Force two-norm initial, final = 0.18519015 9.2400180e-05
  Force max component initial, final = 0.093946909 2.4317143e-05
  Final line search alpha, max atom move = 1.0000000 2.4317143e-05
  Iterations, force evaluations = 199 398

MPI task timing breakdown:
Section |  min time  |  avg time  |  max time  |%varavg| %total
---------------------------------------------------------------
Pair    | 0.60765    | 1.6778     | 2.1895     |  35.0 | 71.07
Neigh   | 0          | 0          | 0          |   0.0 |  0.00
Comm    | 0.036819   | 0.38783    | 1.1437     |  50.6 | 16.43
Output  | 0          | 0          | 0          |   0.0 |  0.00
Modify  | 2.5515e-05 | 0.0032955  | 0.0070209  |   2.7 |  0.14
Other   |            | 0.2919     |            |       | 12.36

Nlocal:        2776.45 ave        3960 max           0 min
Histogram: 8 4 4 0 4 12 8 2 28 34
Nghost:        3879.03 ave        5424 max         232 min
Histogram: 8 0 8 0 16 0 8 8 16 40
Neighs:        79213.4 ave      115436 max           0 min
Histogram: 8 4 4 0 10 6 8 8 24 32

Total # of neighbors = 8238198
Ave neighs/atom = 28.530457
Neighbor list builds = 0
Dangerous builds = 0
The dot product: -5.10232730330754e-08
Setting atom values ...
  1 settings made for x
  1 settings made for y
  1 settings made for z
Setting up cg style minimization ...
  Unit style    : metal
  Current step  : 563
Per MPI rank memory allocation (min/avg/max) = 5.441 | 5.816 | 6.074 Mbytes
Step PotEng KinEng TotEng v_fx v_fy v_fz 
     563   -1152449.4            0   -1152449.4 -0.0022055559  -0.02662135 -0.024937062 
     792   -1152449.4            0   -1152449.4 -3.4090649e-06 7.3306792e-07 8.1301839e-06 
Loop time of 2.7078 on 104 procs for 229 steps with 288751 atoms

99.9% CPU use with 104 MPI tasks x 1 OpenMP threads

Minimization stats:
  Stopping criterion = energy tolerance
  Energy initial, next-to-last, final = 
     -1152449.44328021  -1152449.44489401  -1152449.44489401
  Force two-norm initial, final = 0.18667336 2.5255278e-05
  Force max component initial, final = 0.092469438 8.1301839e-06
  Final line search alpha, max atom move = 1.0000000 8.1301839e-06
  Iterations, force evaluations = 229 458

MPI task timing breakdown:
Section |  min time  |  avg time  |  max time  |%varavg| %total
---------------------------------------------------------------
Pair    | 0.69944    | 1.9345     | 2.5365     |  37.4 | 71.44
Neigh   | 0          | 0          | 0          |   0.0 |  0.00
Comm    | 0.042126   | 0.44831    | 1.3686     |  54.9 | 16.56
Output  | 0          | 0          | 0          |   0.0 |  0.00
Modify  | 2.7906e-05 | 0.0037796  | 0.0080718  |   2.9 |  0.14
Other   |            | 0.3212     |            |       | 11.86

Nlocal:        2776.45 ave        3960 max           0 min
Histogram: 8 4 4 0 4 12 8 2 28 34
Nghost:        3879.03 ave        5424 max         232 min
Histogram: 8 0 8 0 16 0 8 8 16 40
Neighs:        79213.4 ave      115437 max           0 min
Histogram: 8 4 4 0 10 6 8 8 24 32

Total # of neighbors = 8238196
Ave neighs/atom = 28.530450
Neighbor list builds = 0
Dangerous builds = 0
The dot product: -2.92848509811714e-08
Setting atom values ...
  1 settings made for x
  1 settings made for y
  1 settings made for z
Setting up cg style minimization ...
  Unit style    : metal
  Current step  : 792
Per MPI rank memory allocation (min/avg/max) = 5.441 | 5.816 | 6.074 Mbytes
Step PotEng KinEng TotEng v_fx v_fy v_fz 
     792   -1152449.4            0   -1152449.4 -0.0068206648 -0.031589477 -0.026947603 
     934   -1152449.4            0   -1152449.4 2.2198581e-06 -2.5700548e-06 -9.4214696e-06 
Loop time of 1.68407 on 104 procs for 142 steps with 288751 atoms

99.9% CPU use with 104 MPI tasks x 1 OpenMP threads

Minimization stats:
  Stopping criterion = energy tolerance
  Energy initial, next-to-last, final = 
     -1152449.43858139  -1152449.44020425  -1152449.44020425
  Force two-norm initial, final = 0.18713658 8.8123566e-05
  Force max component initial, final = 0.089068634 1.0466873e-05
  Final line search alpha, max atom move = 1.0000000 1.0466873e-05
  Iterations, force evaluations = 142 284

MPI task timing breakdown:
Section |  min time  |  avg time  |  max time  |%varavg| %total
---------------------------------------------------------------
Pair    | 0.43379    | 1.1954     | 1.5578     |  29.5 | 70.98
Neigh   | 0          | 0          | 0          |   0.0 |  0.00
Comm    | 0.025812   | 0.27491    | 0.81146    |  42.6 | 16.32
Output  | 0          | 0          | 0          |   0.0 |  0.00
Modify  | 1.7117e-05 | 0.0023569  | 0.0050456  |   2.3 |  0.14
Other   |            | 0.2114     |            |       | 12.55

Nlocal:        2776.45 ave        3959 max           0 min
Histogram: 8 4 4 0 4 12 8 2 28 34
Nghost:        3879.03 ave        5427 max         232 min
Histogram: 8 0 8 0 16 0 8 8 16 40
Neighs:        79213.4 ave      115388 max           0 min
Histogram: 8 4 4 0 10 6 8 8 24 32

Total # of neighbors = 8238195
Ave neighs/atom = 28.530447
Neighbor list builds = 0
Dangerous builds = 0
The dot product: 4.32956606484598e-08
Setting atom values ...
  1 settings made for x
  1 settings made for y
  1 settings made for z
Setting up cg style minimization ...
  Unit style    : metal
  Current step  : 934
Per MPI rank memory allocation (min/avg/max) = 5.441 | 5.816 | 6.074 Mbytes
Step PotEng KinEng TotEng v_fx v_fy v_fz 
     934   -1152449.4            0   -1152449.4 -0.011184665  -0.03243994 -0.023941618 
    1000   -1152449.4            0   -1152449.4 7.6185321e-05 -1.529901e-05 -0.00026890641 
    1039   -1152449.4            0   -1152449.4 -2.1166781e-05 -1.1049722e-05 4.6736157e-05 
Loop time of 1.23282 on 104 procs for 105 steps with 288751 atoms

99.9% CPU use with 104 MPI tasks x 1 OpenMP threads

Minimization stats:
  Stopping criterion = energy tolerance
  Energy initial, next-to-last, final = 
      -1152449.4325778  -1152449.43417958  -1152449.43417958
  Force two-norm initial, final = 0.18575478 0.00025328178
  Force max component initial, final = 0.085006958 4.7830522e-05
  Final line search alpha, max atom move = 1.0000000 4.7830522e-05
  Iterations, force evaluations = 105 210

MPI task timing breakdown:
Section |  min time  |  avg time  |  max time  |%varavg| %total
---------------------------------------------------------------
Pair    | 0.32053    | 0.88713    | 1.1568     |  25.4 | 71.96
Neigh   | 0          | 0          | 0          |   0.0 |  0.00
Comm    | 0.018196   | 0.20124    | 0.60552    |  37.5 | 16.32
Output  | 0.00022659 | 0.00023701 | 0.00034744 |   0.0 |  0.02
Modify  | 1.3633e-05 | 0.0017426  | 0.0037296  |   2.0 |  0.14
Other   |            | 0.1425     |            |       | 11.56

Nlocal:        2776.45 ave        3957 max           0 min
Histogram: 8 4 4 0 4 12 8 2 28 34
Nghost:        3879.03 ave        5428 max         232 min
Histogram: 8 0 8 0 16 0 8 8 16 40
Neighs:        79213.4 ave      115336 max           0 min
Histogram: 8 4 4 0 10 6 8 8 24 32

Total # of neighbors = 8238197
Ave neighs/atom = 28.530454
Neighbor list builds = 0
Dangerous builds = 0
The dot product: -1.42908821491852e-07
Setting atom values ...
  1 settings made for x
  1 settings made for y
  1 settings made for z
Setting up cg style minimization ...
  Unit style    : metal
  Current step  : 1039
Per MPI rank memory allocation (min/avg/max) = 5.441 | 5.816 | 6.074 Mbytes
Step PotEng KinEng TotEng v_fx v_fy v_fz 
    1039   -1152449.4            0   -1152449.4 -0.013756945 -0.030718714 -0.018559252 
    1158   -1152449.4            0   -1152449.4  2.32263e-06 2.4227493e-06 -3.1458548e-06 
Loop time of 1.3954 on 104 procs for 119 steps with 288751 atoms

99.9% CPU use with 104 MPI tasks x 1 OpenMP threads

Minimization stats:
  Stopping criterion = energy tolerance
  Energy initial, next-to-last, final = 
     -1152449.42520555  -1152449.42677466  -1152449.42677466
  Force two-norm initial, final = 0.18368886 0.00014845357
  Force max component initial, final = 0.081484737 3.0872720e-05
  Final line search alpha, max atom move = 1.0000000 3.0872720e-05
  Iterations, force evaluations = 119 238

MPI task timing breakdown:
Section |  min time  |  avg time  |  max time  |%varavg| %total
---------------------------------------------------------------
Pair    | 0.36594    | 1.0003     | 1.3045     |  26.9 | 71.68
Neigh   | 0          | 0          | 0          |   0.0 |  0.00
Comm    | 0.02055    | 0.23012    | 0.69367    |  39.4 | 16.49
Output  | 0          | 0          | 0          |   0.0 |  0.00
Modify  | 1.4221e-05 | 0.0019708  | 0.0042035  |   2.1 |  0.14
Other   |            | 0.163      |            |       | 11.68

Nlocal:        2776.45 ave        3957 max           0 min
Histogram: 8 4 4 0 4 12 8 2 28 34
Nghost:        3879.03 ave        5428 max         232 min
Histogram: 8 0 8 0 16 0 8 8 16 40
Neighs:        79213.4 ave      115336 max           0 min
Histogram: 8 4 4 0 10 6 8 8 24 32

Total # of neighbors = 8238198
Ave neighs/atom = 28.530457
Neighbor list builds = 0
Dangerous builds = 0
The dot product: 3.72892437757523e-09
Setting atom values ...
  1 settings made for x
  1 settings made for y
  1 settings made for z
Setting up cg style minimization ...
  Unit style    : metal
  Current step  : 1158
Per MPI rank memory allocation (min/avg/max) = 5.441 | 5.816 | 6.074 Mbytes
Step PotEng KinEng TotEng v_fx v_fy v_fz 
    1158   -1152449.4            0   -1152449.4 -0.014440627 -0.027674131 -0.012970348 
    1321   -1152449.4            0   -1152449.4 -1.8313135e-06 -6.7830527e-07 5.8950872e-06 
Loop time of 1.90889 on 104 procs for 163 steps with 288751 atoms

99.9% CPU use with 104 MPI tasks x 1 OpenMP threads

Minimization stats:
  Stopping criterion = energy tolerance
  Energy initial, next-to-last, final = 
     -1152449.41641345  -1152449.41795077  -1152449.41795077
  Force two-norm initial, final = 0.18158786 5.3724138e-05
  Force max component initial, final = 0.079055615 1.1351722e-05
  Final line search alpha, max atom move = 1.0000000 1.1351722e-05
  Iterations, force evaluations = 163 326

MPI task timing breakdown:
Section |  min time  |  avg time  |  max time  |%varavg| %total
---------------------------------------------------------------
Pair    | 0.49645    | 1.3746     | 1.7937     |  31.6 | 72.01
Neigh   | 0          | 0          | 0          |   0.0 |  0.00
Comm    | 0.027863   | 0.31393    | 0.95251    |  46.3 | 16.45
Output  | 0          | 0          | 0          |   0.0 |  0.00
Modify  | 1.9379e-05 | 0.0026981  | 0.0057472  |   2.4 |  0.14
Other   |            | 0.2177     |            |       | 11.40

Nlocal:        2776.45 ave        3956 max           0 min
Histogram: 8 4 4 0 4 12 8 0 30 34
Nghost:        3879.03 ave        5428 max         232 min
Histogram: 8 0 8 0 16 0 8 8 16 40
Neighs:        79213.5 ave      115302 max           0 min
Histogram: 8 4 4 0 10 6 8 8 24 32

Total # of neighbors = 8238199
Ave neighs/atom = 28.530461
Neighbor list builds = 0
Dangerous builds = 0
The dot product: -1.04276825032424e-08
Setting atom values ...
  1 settings made for x
  1 settings made for y
  1 settings made for z
Setting up cg style minimization ...
  Unit style    : metal
  Current step  : 1321
Per MPI rank memory allocation (min/avg/max) = 5.441 | 5.816 | 6.074 Mbytes
Step PotEng KinEng TotEng v_fx v_fy v_fz 
    1321   -1152449.4            0   -1152449.4 -0.013525593  -0.02360855 -0.0078023878 
    1475   -1152449.4            0   -1152449.4 1.549151e-06 1.514374e-06 -2.5962977e-06 
Loop time of 1.81651 on 104 procs for 154 steps with 288751 atoms

99.9% CPU use with 104 MPI tasks x 1 OpenMP threads

Minimization stats:
  Stopping criterion = energy tolerance
  Energy initial, next-to-last, final = 
     -1152449.40616686  -1152449.40768649  -1152449.40768649
  Force two-norm initial, final = 0.17970995 7.6334396e-05
  Force max component initial, final = 0.077772049 1.1523184e-05
  Final line search alpha, max atom move = 1.0000000 1.1523184e-05
  Iterations, force evaluations = 154 308

MPI task timing breakdown:
Section |  min time  |  avg time  |  max time  |%varavg| %total
---------------------------------------------------------------
Pair    | 0.47349    | 1.2977     | 1.6856     |  30.6 | 71.44
Neigh   | 0          | 0          | 0          |   0.0 |  0.00
Comm    | 0.030067   | 0.29757    | 0.89297    |  45.0 | 16.38
Output  | 0          | 0          | 0          |   0.0 |  0.00
Modify  | 1.8655e-05 | 0.0025553  | 0.0055034  |   2.4 |  0.14
Other   |            | 0.2186     |            |       | 12.04

Nlocal:        2776.45 ave        3956 max           0 min
Histogram: 8 4 4 0 4 12 8 0 30 34
Nghost:        3879.03 ave        5428 max         232 min
Histogram: 8 0 8 0 16 0 8 8 16 40
Neighs:        79213.5 ave      115302 max           0 min
Histogram: 8 4 4 0 10 6 8 8 24 32

Total # of neighbors = 8238202
Ave neighs/atom = 28.530471
Neighbor list builds = 0
Dangerous builds = 0
The dot product: 2.82935685908501e-09
Setting atom values ...
  1 settings made for x
  1 settings made for y
  1 settings made for z
Setting up cg style minimization ...
  Unit style    : metal
  Current step  : 1475
Per MPI rank memory allocation (min/avg/max) = 5.441 | 5.816 | 6.074 Mbytes
Step PotEng KinEng TotEng v_fx v_fy v_fz 
    1475   -1152449.4            0   -1152449.4 -0.010682828 -0.017581953 -0.0030600534 
    1638   -1152449.4            0   -1152449.4 -7.1502009e-06 -1.5561759e-06 2.8988684e-05 
Loop time of 1.92992 on 104 procs for 163 steps with 288751 atoms

99.9% CPU use with 104 MPI tasks x 1 OpenMP threads

Minimization stats:
  Stopping criterion = energy tolerance
  Energy initial, next-to-last, final = 
     -1152449.39446675  -1152449.39599767  -1152449.39599767
  Force two-norm initial, final = 0.17804098 0.00013476579
  Force max component initial, final = 0.077652101 2.8988684e-05
  Final line search alpha, max atom move = 1.0000000 2.8988684e-05
  Iterations, force evaluations = 163 326

MPI task timing breakdown:
Section |  min time  |  avg time  |  max time  |%varavg| %total
---------------------------------------------------------------
Pair    | 0.49792    | 1.3782     | 1.8125     |  31.6 | 71.41
Neigh   | 0          | 0          | 0          |   0.0 |  0.00
Comm    | 0.029002   | 0.31965    | 0.97419    |  46.0 | 16.56
Output  | 0          | 0          | 0          |   0.0 |  0.00
Modify  | 1.9923e-05 | 0.002696   | 0.0057344  |   2.4 |  0.14
Other   |            | 0.2294     |            |       | 11.88

Nlocal:        2776.45 ave        3954 max           0 min
Histogram: 8 4 4 0 4 12 8 0 30 34
Nghost:        3879.03 ave        5428 max         232 min
Histogram: 8 0 8 0 16 0 8 8 16 40
Neighs:        79213.5 ave      115230 max           0 min
Histogram: 8 4 4 0 10 6 8 8 24 32

Total # of neighbors = 8238203
Ave neighs/atom = 28.530474
Neighbor list builds = 0
Dangerous builds = 0
The dot product: -3.93088535821711e-09
Setting atom values ...
  1 settings made for x
  1 settings made for y
  1 settings made for z
Setting up cg style minimization ...
  Unit style    : metal
  Current step  : 1638
Per MPI rank memory allocation (min/avg/max) = 5.441 | 5.816 | 6.074 Mbytes
Step PotEng KinEng TotEng v_fx v_fy v_fz 
    1638   -1152449.4            0   -1152449.4 -0.006140849 -0.0091463163 0.0020383931 
    1789   -1152449.4            0   -1152449.4 3.6778162e-06 2.5160394e-06 -9.9316117e-06 
Loop time of 1.76101 on 104 procs for 151 steps with 288751 atoms

99.9% CPU use with 104 MPI tasks x 1 OpenMP threads

Minimization stats:
  Stopping criterion = energy tolerance
  Energy initial, next-to-last, final = 
     -1152449.38136116  -1152449.38295713  -1152449.38295713
  Force two-norm initial, final = 0.17689018 0.00017372817
  Force max component initial, final = 0.078881381 2.7451884e-05
  Final line search alpha, max atom move = 1.0000000 2.7451884e-05
  Iterations, force evaluations = 151 302

MPI task timing breakdown:
Section |  min time  |  avg time  |  max time  |%varavg| %total
---------------------------------------------------------------
Pair    | 0.46353    | 1.2727     | 1.6549     |  30.4 | 72.27
Neigh   | 0          | 0          | 0          |   0.0 |  0.00
Comm    | 0.026599   | 0.29115    | 0.87954    |  44.8 | 16.53
Output  | 0          | 0          | 0          |   0.0 |  0.00
Modify  | 1.9784e-05 | 0.0025022  | 0.0053902  |   2.4 |  0.14
Other   |            | 0.1946     |            |       | 11.05

Nlocal:        2776.45 ave        3950 max           0 min
Histogram: 8 4 4 0 4 12 8 0 28 36
Nghost:        3879.01 ave        5427 max         232 min
Histogram: 8 0 8 0 16 0 8 8 16 40
Neighs:        79213.5 ave      115114 max           0 min
Histogram: 8 4 4 0 10 6 8 8 24 32

Total # of neighbors = 8238203
Ave neighs/atom = 28.530474
Neighbor list builds = 0
Dangerous builds = 0
The dot product: -4.30328737529888e-10
Setting atom values ...
  1 settings made for x
  1 settings made for y
  1 settings made for z
Setting up cg style minimization ...
  Unit style    : metal
  Current step  : 1789
Per MPI rank memory allocation (min/avg/max) = 5.441 | 5.816 | 6.074 Mbytes
Step PotEng KinEng TotEng v_fx v_fy v_fz 
    1789   -1152449.4            0   -1152449.4 -0.00031362525 0.0030501002 0.0093776127 
    1929   -1152449.4            0   -1152449.4 2.1833431e-05  6.75738e-07 -9.6157263e-05 
Loop time of 1.68524 on 104 procs for 140 steps with 288751 atoms

99.9% CPU use with 104 MPI tasks x 1 OpenMP threads

Minimization stats:
  Stopping criterion = energy tolerance
  Energy initial, next-to-last, final = 
      -1152449.3669789  -1152449.36886006  -1152449.36886006
  Force two-norm initial, final = 0.17677002 0.00025505218
  Force max component initial, final = 0.081775586 9.6157263e-05
  Final line search alpha, max atom move = 1.0000000 9.6157263e-05
  Iterations, force evaluations = 140 280

MPI task timing breakdown:
Section |  min time  |  avg time  |  max time  |%varavg| %total
---------------------------------------------------------------
Pair    | 0.43265    | 1.1863     | 1.5508     |  29.3 | 70.39
Neigh   | 0          | 0          | 0          |   0.0 |  0.00
Comm    | 0.03086    | 0.27732    | 0.83933    |  42.4 | 16.46
Output  | 0          | 0          | 0          |   0.0 |  0.00
Modify  | 1.7037e-05 | 0.0023232  | 0.004981   |   2.3 |  0.14
Other   |            | 0.2193     |            |       | 13.01

Nlocal:        2776.45 ave        3948 max           0 min
Histogram: 8 4 4 0 4 12 8 0 28 36
Nghost:        3878.99 ave        5424 max         232 min
Histogram: 8 0 8 0 16 0 8 8 16 40
Neighs:        79213.5 ave      115053 max           0 min
Histogram: 8 4 4 0 10 6 8 8 24 32

Total # of neighbors = 8238205
Ave neighs/atom = 28.530481
Neighbor list builds = 0
Dangerous builds = 0
The dot product: -5.46649407879187e-07
Setting atom values ...
  1 settings made for x
  1 settings made for y
  1 settings made for z
Setting up cg style minimization ...
  Unit style    : metal
  Current step  : 1929
Per MPI rank memory allocation (min/avg/max) = 5.441 | 5.816 | 6.074 Mbytes
Step PotEng KinEng TotEng v_fx v_fy v_fz 
    1929   -1152449.4            0   -1152449.4 0.0056890803  0.022552535  0.023385081 
    2000   -1152449.4            0   -1152449.4 -2.1284824e-05 1.878518e-05 0.00012178671 
    2107   -1152449.4            0   -1152449.4 -1.9766533e-07 3.3731524e-06 7.6199988e-06 
Loop time of 2.07441 on 104 procs for 178 steps with 288751 atoms

99.9% CPU use with 104 MPI tasks x 1 OpenMP threads

Minimization stats:
  Stopping criterion = energy tolerance
  Energy initial, next-to-last, final = 
     -1152449.35178818  -1152449.35391275  -1152449.35391275
  Force two-norm initial, final = 0.17933023 0.00020865657
  Force max component initial, final = 0.086987937 2.2257743e-05
  Final line search alpha, max atom move = 1.0000000 2.2257743e-05
  Iterations, force evaluations = 178 356

MPI task timing breakdown:
Section |  min time  |  avg time  |  max time  |%varavg| %total
---------------------------------------------------------------
Pair    | 0.54551    | 1.4941     | 1.9463     |  32.9 | 72.03
Neigh   | 0          | 0          | 0          |   0.0 |  0.00
Comm    | 0.030469   | 0.34206    | 1.0356     |  48.2 | 16.49
Output  | 0.00023215 | 0.00024093 | 0.00036247 |   0.0 |  0.01
Modify  | 2.1037e-05 | 0.002942   | 0.0062689  |   2.5 |  0.14
Other   |            | 0.2351     |            |       | 11.33

Nlocal:        2776.45 ave        3948 max           0 min
Histogram: 8 4 4 0 4 12 8 0 28 36
Nghost:        3879.01 ave        5424 max         232 min
Histogram: 8 0 8 0 16 0 8 8 16 40
Neighs:        79213.5 ave      115057 max           0 min
Histogram: 8 4 4 0 10 6 8 8 24 32

Total # of neighbors = 8238204
Ave neighs/atom = 28.530478
Neighbor list builds = 0
Dangerous builds = 0
The dot product: 1.20268435418056e-07
Setting atom values ...
  1 settings made for x
  1 settings made for y
  1 settings made for z
Setting up cg style minimization ...
  Unit style    : metal
  Current step  : 2107
Per MPI rank memory allocation (min/avg/max) = 5.441 | 5.816 | 6.074 Mbytes
Step PotEng KinEng TotEng v_fx v_fy v_fz 
    2107   -1152449.3            0   -1152449.3 0.0072823498    0.0376836  0.031129141 
    2313   -1152449.3            0   -1152449.3 -7.3519059e-06 -2.7280867e-07 2.437202e-05 
Loop time of 2.41582 on 104 procs for 206 steps with 288751 atoms

99.9% CPU use with 104 MPI tasks x 1 OpenMP threads

Minimization stats:
  Stopping criterion = energy tolerance
  Energy initial, next-to-last, final = 
     -1152449.33585143  -1152449.33815177  -1152449.33815177
  Force two-norm initial, final = 0.18286355 0.00010722117
  Force max component initial, final = 0.093550698 2.4372020e-05
  Final line search alpha, max atom move = 1.0000000 2.4372020e-05
  Iterations, force evaluations = 206 412

MPI task timing breakdown:
Section |  min time  |  avg time  |  max time  |%varavg| %total
---------------------------------------------------------------
Pair    | 0.6266     | 1.7341     | 2.2611     |  35.5 | 71.78
Neigh   | 0          | 0          | 0          |   0.0 |  0.00
Comm    | 0.034684   | 0.39773    | 1.2049     |  52.2 | 16.46
Output  | 0          | 0          | 0          |   0.0 |  0.00
Modify  | 2.4584e-05 | 0.0033996  | 0.0072637  |   2.7 |  0.14
Other   |            | 0.2806     |            |       | 11.62

Nlocal:        2776.45 ave        3949 max           0 min
Histogram: 8 4 4 0 4 12 8 0 28 36
Nghost:        3879.11 ave        5424 max         232 min
Histogram: 8 0 8 0 16 0 8 8 16 40
Neighs:        79213.5 ave      115085 max           0 min
Histogram: 8 4 4 0 10 6 8 8 24 32

Total # of neighbors = 8238205
Ave neighs/atom = 28.530481
Neighbor list builds = 0
Dangerous builds = 0
The dot product: 2.16746671584009e-07
Setting atom values ...
  1 settings made for x
  1 settings made for y
  1 settings made for z
Setting up cg style minimization ...
  Unit style    : metal
  Current step  : 2313
Per MPI rank memory allocation (min/avg/max) = 5.441 | 5.816 | 6.074 Mbytes
Step PotEng KinEng TotEng v_fx v_fy v_fz 
    2313   -1152449.3            0   -1152449.3 0.0058007227  0.042145388  0.028596924 
    2496   -1152449.3            0   -1152449.3 1.418252e-05 3.4869057e-06 -3.8323434e-05 
Loop time of 2.13584 on 104 procs for 183 steps with 288751 atoms

99.9% CPU use with 104 MPI tasks x 1 OpenMP threads

Minimization stats:
  Stopping criterion = energy tolerance
  Energy initial, next-to-last, final = 
     -1152449.31902024  -1152449.32120777  -1152449.32120777
  Force two-norm initial, final = 0.18310443 0.00019573651
  Force max component initial, final = 0.099878241 4.4072724e-05
  Final line search alpha, max atom move = 1.0000000 4.4072724e-05
  Iterations, force evaluations = 183 366

MPI task timing breakdown:
Section |  min time  |  avg time  |  max time  |%varavg| %total
---------------------------------------------------------------
Pair    | 0.5602     | 1.5369     | 1.9991     |  33.4 | 71.96
Neigh   | 0          | 0          | 0          |   0.0 |  0.00
Comm    | 0.03433    | 0.34982    | 1.0497     |  49.1 | 16.38
Output  | 0          | 0          | 0          |   0.0 |  0.00
Modify  | 2.227e-05  | 0.0030272  | 0.0065068  |   2.6 |  0.14
Other   |            | 0.2461     |            |       | 11.52

Nlocal:        2776.45 ave        3951 max           0 min
Histogram: 8 4 4 0 4 12 8 0 30 34
Nghost:        3879.12 ave        5424 max         232 min
Histogram: 8 0 8 0 16 0 8 8 16 40
Neighs:        79213.5 ave      115155 max           0 min
Histogram: 8 4 4 0 10 6 8 8 24 32

Total # of neighbors = 8238204
Ave neighs/atom = 28.530478
Neighbor list builds = 0
Dangerous builds = 0
The dot product: -2.59629510744015e-07
Setting atom values ...
  1 settings made for x
  1 settings made for y
  1 settings made for z
Setting up cg style minimization ...
  Unit style    : metal
  Current step  : 2496
Per MPI rank memory allocation (min/avg/max) = 5.441 | 5.816 | 6.074 Mbytes
Step PotEng KinEng TotEng v_fx v_fy v_fz 
    2496   -1152449.3            0   -1152449.3 0.0039023757  0.039038565  0.021820477 
    2704   -1152449.3            0   -1152449.3 -6.2253237e-06 -1.9624756e-06 1.5214668e-05 
Loop time of 2.45813 on 104 procs for 208 steps with 288751 atoms

99.9% CPU use with 104 MPI tasks x 1 OpenMP threads

Minimization stats:
  Stopping criterion = energy tolerance
  Energy initial, next-to-last, final = 
     -1152449.30088837  -1152449.30294923  -1152449.30294923
  Force two-norm initial, final = 0.18110518 9.6754964e-05
  Force max component initial, final = 0.10524789 2.1149995e-05
  Final line search alpha, max atom move = 1.0000000 2.1149995e-05
  Iterations, force evaluations = 208 416

MPI task timing breakdown:
Section |  min time  |  avg time  |  max time  |%varavg| %total
---------------------------------------------------------------
Pair    | 0.63419    | 1.754      | 2.2872     |  35.6 | 71.36
Neigh   | 0          | 0          | 0          |   0.0 |  0.00
Comm    | 0.037061   | 0.40564    | 1.2255     |  52.0 | 16.50
Output  | 0          | 0          | 0          |   0.0 |  0.00
Modify  | 2.5079e-05 | 0.0034428  | 0.0073211  |   2.8 |  0.14
Other   |            | 0.295      |            |       | 12.00

Nlocal:        2776.45 ave        3954 max           0 min
Histogram: 8 4 4 0 4 12 8 0 30 34
Nghost:        3879.13 ave        5424 max         232 min
Histogram: 8 0 8 0 16 0 8 8 16 40
Neighs:        79213.5 ave      115260 max           0 min
Histogram: 8 4 4 0 10 6 8 8 24 32

Total # of neighbors = 8238209
Ave neighs/atom = 28.530495
Neighbor list builds = 0
Dangerous builds = 0
The dot product: 8.98994208948562e-08
Setting atom values ...
  1 settings made for x
  1 settings made for y
  1 settings made for z
Setting up cg style minimization ...
  Unit style    : metal
  Current step  : 2704
Per MPI rank memory allocation (min/avg/max) = 5.441 | 5.816 | 6.074 Mbytes
Step PotEng KinEng TotEng v_fx v_fy v_fz 
    2704   -1152449.3            0   -1152449.3 0.0019613474  0.033480008  0.016916037 
    2884   -1152449.3            0   -1152449.3 1.0901811e-05 -1.9233715e-06 -2.8652533e-05 
Loop time of 2.10018 on 104 procs for 180 steps with 288751 atoms

99.9% CPU use with 104 MPI tasks x 1 OpenMP threads

Minimization stats:
  Stopping criterion = energy tolerance
  Energy initial, next-to-last, final = 
     -1152449.28142401  -1152449.28342409  -1152449.28342409
  Force two-norm initial, final = 0.1788347 0.00020355244
  Force max component initial, final = 0.10940696 2.8652533e-05
  Final line search alpha, max atom move = 1.0000000 2.8652533e-05
  Iterations, force evaluations = 180 360

MPI task timing breakdown:
Section |  min time  |  avg time  |  max time  |%varavg| %total
---------------------------------------------------------------
Pair    | 0.56023    | 1.5139     | 1.9694     |  32.8 | 72.08
Neigh   | 0          | 0          | 0          |   0.0 |  0.00
Comm    | 0.03394    | 0.3448     | 1.0487     |  48.6 | 16.42
Output  | 0          | 0          | 0          |   0.0 |  0.00
Modify  | 2.1429e-05 | 0.0029741  | 0.0063961  |   2.6 |  0.14
Other   |            | 0.2385     |            |       | 11.36

Nlocal:        2776.45 ave        3954 max           0 min
Histogram: 8 4 4 0 4 12 8 0 30 34
Nghost:        3879.13 ave        5424 max         232 min
Histogram: 8 0 8 0 16 0 8 8 16 40
Neighs:        79213.6 ave      115262 max           0 min
Histogram: 8 4 4 0 10 6 8 8 24 32

Total # of neighbors = 8238212
Ave neighs/atom = 28.530506
Neighbor list builds = 0
Dangerous builds = 0
The dot product: -2.43439473554753e-07
Setting atom values ...
  1 settings made for x
  1 settings made for y
  1 settings made for z
Setting up cg style minimization ...
  Unit style    : metal
  Current step  : 2884
Per MPI rank memory allocation (min/avg/max) = 5.441 | 5.816 | 6.074 Mbytes
Step PotEng KinEng TotEng v_fx v_fy v_fz 
    2884   -1152449.3            0   -1152449.3 -0.00019968534  0.027826614  0.015068173 
    3000   -1152449.3            0   -1152449.3 4.3213544e-07 1.141766e-05 4.9743613e-06 
    3085   -1152449.3            0   -1152449.3 -2.6265729e-06 -1.9266319e-06 5.1630182e-06 
Loop time of 2.3786 on 104 procs for 201 steps with 288751 atoms

99.9% CPU use with 104 MPI tasks x 1 OpenMP threads

Minimization stats:
  Stopping criterion = energy tolerance
  Energy initial, next-to-last, final = 
     -1152449.26076374  -1152449.26268114  -1152449.26268114
  Force two-norm initial, final = 0.17682851 0.00010786798
  Force max component initial, final = 0.11282498 1.4876175e-05
  Final line search alpha, max atom move = 1.0000000 1.4876175e-05
  Iterations, force evaluations = 201 402

MPI task timing breakdown:
Section |  min time  |  avg time  |  max time  |%varavg| %total
---------------------------------------------------------------
Pair    | 0.61268    | 1.698      | 2.2307     |  35.2 | 71.39
Neigh   | 0          | 0          | 0          |   0.0 |  0.00
Comm    | 0.034059   | 0.39234    | 1.1932     |  51.2 | 16.49
Output  | 0.00023481 | 0.00024921 | 0.00039037 |   0.0 |  0.01
Modify  | 2.399e-05  | 0.0033226  | 0.0070726  |   2.7 |  0.14
Other   |            | 0.2846     |            |       | 11.97

Nlocal:        2776.45 ave        3954 max           0 min
Histogram: 8 4 4 0 4 12 8 0 30 34
Nghost:        3879.13 ave        5424 max         232 min
Histogram: 8 0 8 0 16 0 8 8 16 40
Neighs:        79213.6 ave      115264 max           0 min
Histogram: 8 4 4 0 10 6 8 8 24 32

Total # of neighbors = 8238217
Ave neighs/atom = 28.530523
Neighbor list builds = 0
Dangerous builds = 0
The dot product: 2.54027978161837e-08
Setting atom values ...
  1 settings made for x
  1 settings made for y
  1 settings made for z
Setting up cg style minimization ...
  Unit style    : metal
  Current step  : 3085
Per MPI rank memory allocation (min/avg/max) = 5.441 | 5.816 | 6.074 Mbytes
Step PotEng KinEng TotEng v_fx v_fy v_fz 
    3085   -1152449.2            0   -1152449.2 -0.0019521176  0.022698684  0.014130674 
    3267   -1152449.2            0   -1152449.2 -1.9758746e-05 -1.194529e-07 4.3646166e-05 
Loop time of 2.12802 on 104 procs for 182 steps with 288751 atoms

99.9% CPU use with 104 MPI tasks x 1 OpenMP threads

Minimization stats:
  Stopping criterion = energy tolerance
  Energy initial, next-to-last, final = 
     -1152449.23885594  -1152449.24073585  -1152449.24073585
  Force two-norm initial, final = 0.17520854 0.0001768902
  Force max component initial, final = 0.11584037 4.3646166e-05
  Final line search alpha, max atom move = 1.0000000 4.3646166e-05
  Iterations, force evaluations = 182 364

MPI task timing breakdown:
Section |  min time  |  avg time  |  max time  |%varavg| %total
---------------------------------------------------------------
Pair    | 0.55678    | 1.5321     | 1.9987     |  33.3 | 72.00
Neigh   | 0          | 0          | 0          |   0.0 |  0.00
Comm    | 0.03131    | 0.3534     | 1.0718     |  48.8 | 16.61
Output  | 0          | 0          | 0          |   0.0 |  0.00
Modify  | 2.2235e-05 | 0.0030097  | 0.0064238  |   2.6 |  0.14
Other   |            | 0.2395     |            |       | 11.26

Nlocal:        2776.45 ave        3954 max           0 min
Histogram: 8 4 4 0 4 12 8 0 30 34
Nghost:        3879.12 ave        5424 max         232 min
Histogram: 8 0 8 0 16 0 8 8 16 40
Neighs:        79213.6 ave      115267 max           0 min
Histogram: 8 4 4 0 10 6 8 8 24 32

Total # of neighbors = 8238212
Ave neighs/atom = 28.530506
Neighbor list builds = 0
Dangerous builds = 0
The dot product: 3.87520507073271e-07
Setting atom values ...
  1 settings made for x
  1 settings made for y
  1 settings made for z
Setting up cg style minimization ...
  Unit style    : metal
  Current step  : 3267
Per MPI rank memory allocation (min/avg/max) = 5.441 | 5.816 | 6.074 Mbytes
Step PotEng KinEng TotEng v_fx v_fy v_fz 
    3267   -1152449.2            0   -1152449.2 -0.0040829225  0.019874245  0.015675054 
    3445   -1152449.2            0   -1152449.2 -2.2973325e-05 -5.1997786e-07 4.7641224e-05 
Loop time of 2.0876 on 104 procs for 178 steps with 288751 atoms

99.9% CPU use with 104 MPI tasks x 1 OpenMP threads

Minimization stats:
  Stopping criterion = energy tolerance
  Energy initial, next-to-last, final = 
     -1152449.21579581  -1152449.21781572  -1152449.21781572
  Force two-norm initial, final = 0.17423405 0.00020735886
  Force max component initial, final = 0.11861646 5.1434029e-05
  Final line search alpha, max atom move = 1.0000000 5.1434029e-05
  Iterations, force evaluations = 178 356

MPI task timing breakdown:
Section |  min time  |  avg time  |  max time  |%varavg| %total
---------------------------------------------------------------
Pair    | 0.54148    | 1.5017     | 1.9704     |  33.0 | 71.93
Neigh   | 0          | 0          | 0          |   0.0 |  0.00
Comm    | 0.029769   | 0.34557    | 1.0581     |  48.5 | 16.55
Output  | 0          | 0          | 0          |   0.0 |  0.00
Modify  | 2.0986e-05 | 0.002943   | 0.0062843  |   2.5 |  0.14
Other   |            | 0.2374     |            |       | 11.37

Nlocal:        2776.45 ave        3954 max           0 min
Histogram: 8 4 4 0 4 12 8 0 30 34
Nghost:        3879.12 ave        5424 max         232 min
Histogram: 8 0 8 0 16 0 8 8 16 40
Neighs:        79213.6 ave      115264 max           0 min
Histogram: 8 4 4 0 10 6 8 8 24 32

Total # of neighbors = 8238211
Ave neighs/atom = 28.530502
Neighbor list builds = 0
Dangerous builds = 0
The dot product: 5.64996597402247e-07
Setting atom values ...
  1 settings made for x
  1 settings made for y
  1 settings made for z
Setting up cg style minimization ...
  Unit style    : metal
  Current step  : 3445
Per MPI rank memory allocation (min/avg/max) = 5.441 | 5.816 | 6.074 Mbytes
Step PotEng KinEng TotEng v_fx v_fy v_fz 
    3445   -1152449.2            0   -1152449.2 -0.0086069775   0.02169854   0.02307281 
    3618   -1152449.2            0   -1152449.2 -2.7986724e-06 3.8056215e-06 6.5427272e-06 
Loop time of 2.04526 on 104 procs for 173 steps with 288751 atoms

99.9% CPU use with 104 MPI tasks x 1 OpenMP threads

Minimization stats:
  Stopping criterion = energy tolerance
  Energy initial, next-to-last, final = 
     -1152449.19205927  -1152449.19427903  -1152449.19427903
  Force two-norm initial, final = 0.17437373 0.00020007547
  Force max component initial, final = 0.12118162 3.3622324e-05
  Final line search alpha, max atom move = 1.0000000 3.3622324e-05
  Iterations, force evaluations = 173 346

MPI task timing breakdown:
Section |  min time  |  avg time  |  max time  |%varavg| %total
---------------------------------------------------------------
Pair    | 0.52932    | 1.4595     | 1.904      |  32.7 | 71.36
Neigh   | 0          | 0          | 0          |   0.0 |  0.00
Comm    | 0.029983   | 0.33873    | 0.99863    |  47.1 | 16.56
Output  | 0          | 0          | 0          |   0.0 |  0.00
Modify  | 2.0697e-05 | 0.0028593  | 0.0061341  |   2.5 |  0.14
Other   |            | 0.2442     |            |       | 11.94

Nlocal:        2776.45 ave        3955 max           0 min
Histogram: 8 4 4 0 4 12 8 0 30 34
Nghost:        3879.08 ave        5424 max         232 min
Histogram: 8 0 8 0 16 0 8 8 16 40
Neighs:        79213.6 ave      115292 max           0 min
Histogram: 8 4 4 0 10 6 8 8 24 32

Total # of neighbors = 8238212
Ave neighs/atom = 28.530506
Neighbor list builds = 0
Dangerous builds = 0
The dot product: 1.31002607907848e-07
Setting atom values ...
  1 settings made for x
  1 settings made for y
  1 settings made for z
Setting up cg style minimization ...
  Unit style    : metal
  Current step  : 3618
Per MPI rank memory allocation (min/avg/max) = 5.441 | 5.816 | 6.074 Mbytes
Step PotEng KinEng TotEng v_fx v_fy v_fz 
    3618   -1152449.2            0   -1152449.2  -0.01345415  0.024948192   0.02972012 
    3789   -1152449.2            0   -1152449.2 5.9606193e-06 7.5123768e-06 -8.8712392e-06 
Loop time of 1.99749 on 104 procs for 171 steps with 288751 atoms

99.9% CPU use with 104 MPI tasks x 1 OpenMP threads

Minimization stats:
  Stopping criterion = energy tolerance
  Energy initial, next-to-last, final = 
     -1152449.16788146  -1152449.17006703  -1152449.17006703
  Force two-norm initial, final = 0.17519001 0.000204634
  Force max component initial, final = 0.12390866 4.3081184e-05
  Final line search alpha, max atom move = 1.0000000 4.3081184e-05
  Iterations, force evaluations = 171 342

MPI task timing breakdown:
Section |  min time  |  avg time  |  max time  |%varavg| %total
---------------------------------------------------------------
Pair    | 0.52048    | 1.4384     | 1.8787     |  32.3 | 72.01
Neigh   | 0          | 0          | 0          |   0.0 |  0.00
Comm    | 0.028556   | 0.32867    | 0.99889    |  47.4 | 16.45
Output  | 0          | 0          | 0          |   0.0 |  0.00
Modify  | 2.0654e-05 | 0.0028245  | 0.0060224  |   2.5 |  0.14
Other   |            | 0.2276     |            |       | 11.39

Nlocal:        2776.45 ave        3954 max           0 min
Histogram: 8 4 4 0 4 12 8 0 30 34
Nghost:        3879.04 ave        5424 max         232 min
Histogram: 8 0 8 0 16 0 8 8 16 40
Neighs:        79213.6 ave      115267 max           0 min
Histogram: 8 4 4 0 10 6 8 8 24 32

Total # of neighbors = 8238215
Ave neighs/atom = 28.530516
Neighbor list builds = 0
Dangerous builds = 0
The dot product: -8.64610546621569e-08
Setting atom values ...
  1 settings made for x
  1 settings made for y
  1 settings made for z
Setting up cg style minimization ...
  Unit style    : metal
  Current step  : 3789
Per MPI rank memory allocation (min/avg/max) = 5.441 | 5.816 | 6.074 Mbytes
Step PotEng KinEng TotEng v_fx v_fy v_fz 
    3789   -1152449.1            0   -1152449.1 -0.014495037  0.023772581  0.028151723 
    3984   -1152449.1            0   -1152449.1 5.9239138e-06 -6.6214947e-07 -9.8777359e-06 
Loop time of 2.27277 on 104 procs for 195 steps with 288751 atoms

99.9% CPU use with 104 MPI tasks x 1 OpenMP threads

Minimization stats:
  Stopping criterion = energy tolerance
  Energy initial, next-to-last, final = 
     -1152449.14281398  -1152449.14487122  -1152449.14487122
  Force two-norm initial, final = 0.17470128 0.00010507738
  Force max component initial, final = 0.12699497 1.6658115e-05
  Final line search alpha, max atom move = 1.0000000 1.6658115e-05
  Iterations, force evaluations = 195 390

MPI task timing breakdown:
Section |  min time  |  avg time  |  max time  |%varavg| %total
---------------------------------------------------------------
Pair    | 0.59733    | 1.6367     | 2.1336     |  34.4 | 72.02
Neigh   | 0          | 0          | 0          |   0.0 |  0.00
Comm    | 0.034454   | 0.3737     | 1.1318     |  50.6 | 16.44
Output  | 0          | 0          | 0          |   0.0 |  0.00
Modify  | 2.3458e-05 | 0.0032234  | 0.0069286  |   2.7 |  0.14
Other   |            | 0.2591     |            |       | 11.40

Nlocal:        2776.45 ave        3955 max           0 min
Histogram: 8 4 4 0 4 12 8 0 30 34
Nghost:        3879.01 ave        5424 max         232 min
Histogram: 8 0 8 0 16 0 8 8 16 40
Neighs:        79213.6 ave      115313 max           0 min
Histogram: 8 4 4 0 10 6 8 8 24 32

Total # of neighbors = 8238215
Ave neighs/atom = 28.530516
Neighbor list builds = 0
Dangerous builds = 0
The dot product: -1.53199905522047e-07
Setting atom values ...
  1 settings made for x
  1 settings made for y
  1 settings made for z
Setting up cg style minimization ...
  Unit style    : metal
  Current step  : 3984
Per MPI rank memory allocation (min/avg/max) = 5.441 | 5.816 | 6.074 Mbytes
Step PotEng KinEng TotEng v_fx v_fy v_fz 
    3984   -1152449.1            0   -1152449.1 -0.013534744  0.020291079  0.023742213 
    4000   -1152449.1            0   -1152449.1 0.00040883608 0.00013515901 -0.00061143862 
    4189   -1152449.1            0   -1152449.1 -1.6061315e-05 -2.5423174e-06 2.4411785e-05 
Loop time of 2.40467 on 104 procs for 205 steps with 288751 atoms

99.9% CPU use with 104 MPI tasks x 1 OpenMP threads

Minimization stats:
  Stopping criterion = energy tolerance
  Energy initial, next-to-last, final = 
     -1152449.11663268  -1152449.11849942  -1152449.11849942
  Force two-norm initial, final = 0.17383024 8.7686253e-05
  Force max component initial, final = 0.12991996 2.4411785e-05
  Final line search alpha, max atom move = 1.0000000 2.4411785e-05
  Iterations, force evaluations = 205 410

MPI task timing breakdown:
Section |  min time  |  avg time  |  max time  |%varavg| %total
---------------------------------------------------------------
Pair    | 0.6239     | 1.7294     | 2.2603     |  35.5 | 71.92
Neigh   | 0          | 0          | 0          |   0.0 |  0.00
Comm    | 0.03985    | 0.39387    | 1.1886     |  52.2 | 16.38
Output  | 0.00014732 | 0.00015028 | 0.00022147 |   0.0 |  0.01
Modify  | 2.4662e-05 | 0.0033888  | 0.0072529  |   2.7 |  0.14
Other   |            | 0.2779     |            |       | 11.56

Nlocal:        2776.45 ave        3955 max           0 min
Histogram: 8 4 4 0 4 12 8 0 30 34
Nghost:        3879.01 ave        5424 max         232 min
Histogram: 8 0 8 0 16 0 8 8 16 40
Neighs:        79213.6 ave      115313 max           0 min
Histogram: 8 4 4 0 10 6 8 8 24 32

Total # of neighbors = 8238213
Ave neighs/atom = 28.530509
Neighbor list builds = 0
Dangerous builds = 0
The dot product: 3.07748207003686e-07
Setting atom values ...
  1 settings made for x
  1 settings made for y
  1 settings made for z
Setting up cg style minimization ...
  Unit style    : metal
  Current step  : 4189
Per MPI rank memory allocation (min/avg/max) = 5.441 | 5.816 | 6.074 Mbytes
Step PotEng KinEng TotEng v_fx v_fy v_fz 
    4189   -1152449.1            0   -1152449.1 -0.010957393  0.015847323  0.017848422 
    4457   -1152449.1            0   -1152449.1 5.126537e-07 1.0037309e-08 -7.4907674e-07 
Loop time of 3.12459 on 104 procs for 268 steps with 288751 atoms

99.9% CPU use with 104 MPI tasks x 1 OpenMP threads

Minimization stats:
  Stopping criterion = energy tolerance
  Energy initial, next-to-last, final = 
     -1152449.08911084   -1152449.0908462   -1152449.0908462
  Force two-norm initial, final = 0.17327852 4.9588941e-06
  Force max component initial, final = 0.13280116 1.3748392e-06
  Final line search alpha, max atom move = 1.0000000 1.3748392e-06
  Iterations, force evaluations = 268 536

MPI task timing breakdown:
Section |  min time  |  avg time  |  max time  |%varavg| %total
---------------------------------------------------------------
Pair    | 0.81686    | 2.2477     | 2.9293     |  40.4 | 71.93
Neigh   | 0          | 0          | 0          |   0.0 |  0.00
Comm    | 0.047902   | 0.51161    | 1.5272     |  59.3 | 16.37
Output  | 0          | 0          | 0          |   0.0 |  0.00
Modify  | 3.1639e-05 | 0.0044221  | 0.0094961  |   3.1 |  0.14
Other   |            | 0.3609     |            |       | 11.55

Nlocal:        2776.45 ave        3956 max           0 min
Histogram: 8 4 4 0 4 12 8 0 30 34
Nghost:        3879.00 ave        5424 max         232 min
Histogram: 8 0 8 0 16 0 8 8 16 40
Neighs:        79213.6 ave      115350 max           0 min
Histogram: 8 4 4 0 10 6 8 8 24 32

Total # of neighbors = 8238213
Ave neighs/atom = 28.530509
Neighbor list builds = 0
Dangerous builds = 0
The dot product: -8.32322872602002e-09
Setting atom values ...
  1 settings made for x
  1 settings made for y
  1 settings made for z
Setting up cg style minimization ...
  Unit style    : metal
  Current step  : 4457
Per MPI rank memory allocation (min/avg/max) = 5.441 | 5.816 | 6.074 Mbytes
Step PotEng KinEng TotEng v_fx v_fy v_fz 
    4457   -1152449.1            0   -1152449.1 -0.0080985856  0.011362145  0.012467343 
    4664   -1152449.1            0   -1152449.1 -8.1018551e-06 -1.0846681e-06 1.1272092e-05 
Loop time of 2.44871 on 104 procs for 207 steps with 288751 atoms

99.9% CPU use with 104 MPI tasks x 1 OpenMP threads

Minimization stats:
  Stopping criterion = energy tolerance
  Energy initial, next-to-last, final = 
     -1152449.06024693  -1152449.06190524  -1152449.06190524
  Force two-norm initial, final = 0.1733238 7.7606194e-05
  Force max component initial, final = 0.13547871 1.1272092e-05
  Final line search alpha, max atom move = 1.0000000 1.1272092e-05
  Iterations, force evaluations = 207 414

MPI task timing breakdown:
Section |  min time  |  avg time  |  max time  |%varavg| %total
---------------------------------------------------------------
Pair    | 0.6303     | 1.7519     | 2.2971     |  35.8 | 71.55
Neigh   | 0          | 0          | 0          |   0.0 |  0.00
Comm    | 0.036157   | 0.40521    | 1.2346     |  52.2 | 16.55
Output  | 0          | 0          | 0          |   0.0 |  0.00
Modify  | 2.4862e-05 | 0.0034284  | 0.0072899  |   2.7 |  0.14
Other   |            | 0.2881     |            |       | 11.77

Nlocal:        2776.45 ave        3957 max           0 min
Histogram: 8 4 4 0 4 12 8 2 28 34
Nghost:        3879.00 ave        5425 max         232 min
Histogram: 8 0 8 0 16 0 8 8 16 40
Neighs:        79213.6 ave      115381 max           0 min
Histogram: 8 4 4 0 10 6 8 8 24 32

Total # of neighbors = 8238214
Ave neighs/atom = 28.530512
Neighbor list builds = 0
Dangerous builds = 0
The dot product: 1.04342386974885e-07
Setting atom values ...
  1 settings made for x
  1 settings made for y
  1 settings made for z
Setting up cg style minimization ...
  Unit style    : metal
  Current step  : 4664
Per MPI rank memory allocation (min/avg/max) = 5.441 | 5.816 | 6.074 Mbytes
Step PotEng KinEng TotEng v_fx v_fy v_fz 
    4664     -1152449            0     -1152449 -0.0055442833 0.0074743263 0.0081672051 
    4853     -1152449            0     -1152449 -8.207984e-06 -2.6445251e-06 1.092895e-05 
Loop time of 2.20303 on 104 procs for 189 steps with 288751 atoms

99.9% CPU use with 104 MPI tasks x 1 OpenMP threads

Minimization stats:
  Stopping criterion = energy tolerance
  Energy initial, next-to-last, final = 
     -1152449.03009142  -1152449.03173261  -1152449.03173261
  Force two-norm initial, final = 0.17386028 0.00011991328
  Force max component initial, final = 0.13790451 1.4138856e-05
  Final line search alpha, max atom move = 1.0000000 1.4138856e-05
  Iterations, force evaluations = 189 378

MPI task timing breakdown:
Section |  min time  |  avg time  |  max time  |%varavg| %total
---------------------------------------------------------------
Pair    | 0.57438    | 1.586      | 2.0711     |  34.0 | 71.99
Neigh   | 0          | 0          | 0          |   0.0 |  0.00
Comm    | 0.031998   | 0.36102    | 1.0764     |  49.9 | 16.39
Output  | 0          | 0          | 0          |   0.0 |  0.00
Modify  | 2.2973e-05 | 0.0031265  | 0.0067184  |   2.6 |  0.14
Other   |            | 0.2528     |            |       | 11.48

Nlocal:        2776.45 ave        3958 max           0 min
Histogram: 8 4 4 0 4 12 8 2 28 34
Nghost:        3879.00 ave        5425 max         232 min
Histogram: 8 0 8 0 16 0 8 8 16 40
Neighs:        79213.6 ave      115413 max           0 min
Histogram: 8 4 4 0 10 6 8 8 24 32

Total # of neighbors = 8238218
Ave neighs/atom = 28.530526
Neighbor list builds = 0
Dangerous builds = 0
The dot product: 8.78979949765351e-08
Setting atom values ...
  1 settings made for x
  1 settings made for y
  1 settings made for z
Setting up cg style minimization ...
  Unit style    : metal
  Current step  : 4853
Per MPI rank memory allocation (min/avg/max) = 5.441 | 5.816 | 6.074 Mbytes
Step PotEng KinEng TotEng v_fx v_fy v_fz 
    4853     -1152449            0     -1152449 -0.0036395036 0.0045710454 0.0051651086 
    5000     -1152449            0     -1152449 -3.7924914e-05 -8.0982167e-06 4.9510756e-05 
    5070     -1152449            0     -1152449 -5.6445775e-06 -1.6047536e-06 7.3380602e-06 
Loop time of 2.58565 on 104 procs for 217 steps with 288751 atoms

99.9% CPU use with 104 MPI tasks x 1 OpenMP threads

Minimization stats:
  Stopping criterion = energy tolerance
  Energy initial, next-to-last, final = 
     -1152448.99879438  -1152449.00044313  -1152449.00044313
  Force two-norm initial, final = 0.17459575 6.6207391e-05
  Force max component initial, final = 0.1400159 1.0610103e-05
  Final line search alpha, max atom move = 1.0000000 1.0610103e-05
  Iterations, force evaluations = 217 434

MPI task timing breakdown:
Section |  min time  |  avg time  |  max time  |%varavg| %total
---------------------------------------------------------------
Pair    | 0.65487    | 1.8297     | 2.4167     |  36.5 | 70.76
Neigh   | 0          | 0          | 0          |   0.0 |  0.00
Comm    | 0.035892   | 0.42963    | 1.2872     |  52.6 | 16.62
Output  | 0.00023158 | 0.00023568 | 0.0003732  |   0.0 |  0.01
Modify  | 2.6108e-05 | 0.0035882  | 0.0076651  |   2.8 |  0.14
Other   |            | 0.3225     |            |       | 12.47

Nlocal:        2776.45 ave        3958 max           0 min
Histogram: 8 4 4 0 4 12 8 2 28 34
Nghost:        3878.91 ave        5425 max         232 min
Histogram: 8 0 8 0 16 0 8 8 16 40
Neighs:        79213.6 ave      115412 max           0 min
Histogram: 8 4 4 0 10 6 8 8 24 32

Total # of neighbors = 8238216
Ave neighs/atom = 28.530519
Neighbor list builds = 0
Dangerous builds = 0
The dot product: 5.42956072686889e-08
Setting atom values ...
  1 settings made for x
  1 settings made for y
  1 settings made for z
Setting up cg style minimization ...
  Unit style    : metal
  Current step  : 5070
Per MPI rank memory allocation (min/avg/max) = 5.441 | 5.816 | 6.074 Mbytes
Step PotEng KinEng TotEng v_fx v_fy v_fz 
    5070     -1152449            0     -1152449 -0.0018775486 0.0025562518 0.0026107976 
    5302     -1152449            0     -1152449 1.5378123e-06 7.809866e-07 -1.9290677e-06 
Loop time of 2.7142 on 104 procs for 232 steps with 288751 atoms

99.9% CPU use with 104 MPI tasks x 1 OpenMP threads

Minimization stats:
  Stopping criterion = energy tolerance
  Energy initial, next-to-last, final = 
     -1152448.96643682  -1152448.96809548  -1152448.96809548
  Force two-norm initial, final = 0.17546282 3.3081236e-05
  Force max component initial, final = 0.14194748 4.5755965e-06
  Final line search alpha, max atom move = 1.0000000 4.5755965e-06
  Iterations, force evaluations = 232 464

MPI task timing breakdown:
Section |  min time  |  avg time  |  max time  |%varavg| %total
---------------------------------------------------------------
Pair    | 0.70718    | 1.9514     | 2.5493     |  37.7 | 71.90
Neigh   | 0          | 0          | 0          |   0.0 |  0.00
Comm    | 0.039211   | 0.44934    | 1.3565     |  55.1 | 16.56
Output  | 0          | 0          | 0          |   0.0 |  0.00
Modify  | 2.781e-05  | 0.003831   | 0.0081497  |   2.9 |  0.14
Other   |            | 0.3096     |            |       | 11.41

Nlocal:        2776.45 ave        3958 max           0 min
Histogram: 8 4 4 0 4 12 8 2 28 34
Nghost:        3878.90 ave        5425 max         232 min
Histogram: 8 0 8 0 16 0 8 8 16 40
Neighs:        79213.6 ave      115413 max           0 min
Histogram: 8 4 4 0 10 6 8 8 24 32

Total # of neighbors = 8238218
Ave neighs/atom = 28.530526
Neighbor list builds = 0
Dangerous builds = 0
The dot product: -1.3238385031533e-08
Setting atom values ...
  1 settings made for x
  1 settings made for y
  1 settings made for z
Setting up cg style minimization ...
  Unit style    : metal
  Current step  : 5302
Per MPI rank memory allocation (min/avg/max) = 5.441 | 5.816 | 6.074 Mbytes
Step PotEng KinEng TotEng v_fx v_fy v_fz 
    5302   -1152448.9            0   -1152448.9 -0.00034782799 0.0013335743 0.00053348353 
    5489   -1152448.9            0   -1152448.9 1.614754e-06 -3.5244371e-06 -2.2897523e-06 
Loop time of 2.19775 on 104 procs for 187 steps with 288751 atoms

99.9% CPU use with 104 MPI tasks x 1 OpenMP threads

Minimization stats:
  Stopping criterion = energy tolerance
  Energy initial, next-to-last, final = 
     -1152448.93311526  -1152448.93483032  -1152448.93483032
  Force two-norm initial, final = 0.1763179 0.00016730053
  Force max component initial, final = 0.14365502 2.8746657e-05
  Final line search alpha, max atom move = 1.0000000 2.8746657e-05
  Iterations, force evaluations = 187 374

MPI task timing breakdown:
Section |  min time  |  avg time  |  max time  |%varavg| %total
---------------------------------------------------------------
Pair    | 0.56724    | 1.5772     | 2.0719     |  34.0 | 71.77
Neigh   | 0          | 0          | 0          |   0.0 |  0.00
Comm    | 0.032332   | 0.36417    | 1.0796     |  49.2 | 16.57
Output  | 0          | 0          | 0          |   0.0 |  0.00
Modify  | 2.3531e-05 | 0.0030949  | 0.0065948  |   2.6 |  0.14
Other   |            | 0.2533     |            |       | 11.52

Nlocal:        2776.45 ave        3958 max           0 min
Histogram: 8 4 4 0 4 12 8 2 28 34
Nghost:        3878.88 ave        5425 max         232 min
Histogram: 8 0 8 0 16 0 8 8 16 40
Neighs:        79213.6 ave      115411 max           0 min
Histogram: 8 4 4 0 10 6 8 8 24 32

Total # of neighbors = 8238215
Ave neighs/atom = 28.530516
Neighbor list builds = 0
Dangerous builds = 0
The dot product: -1.56101070771507e-08
Setting atom values ...
  1 settings made for x
  1 settings made for y
  1 settings made for z
Setting up cg style minimization ...
  Unit style    : metal
  Current step  : 5489
Per MPI rank memory allocation (min/avg/max) = 5.441 | 5.816 | 6.074 Mbytes
Step PotEng KinEng TotEng v_fx v_fy v_fz 
    5489   -1152448.9            0   -1152448.9 0.0010563135 0.00066969818 -0.0012657326 
    5686   -1152448.9            0   -1152448.9 -1.6585741e-05 -1.5946894e-06 2.0485205e-05 
Loop time of 2.30484 on 104 procs for 197 steps with 288751 atoms

99.9% CPU use with 104 MPI tasks x 1 OpenMP threads

Minimization stats:
  Stopping criterion = energy tolerance
  Energy initial, next-to-last, final = 
      -1152448.8989788  -1152448.90061647  -1152448.90061647
  Force two-norm initial, final = 0.17702376 0.00010121548
  Force max component initial, final = 0.14505152 2.4268939e-05
  Final line search alpha, max atom move = 1.0000000 2.4268939e-05
  Iterations, force evaluations = 197 394

MPI task timing breakdown:
Section |  min time  |  avg time  |  max time  |%varavg| %total
---------------------------------------------------------------
Pair    | 0.6015     | 1.658      | 2.1619     |  34.7 | 71.94
Neigh   | 0          | 0          | 0          |   0.0 |  0.00
Comm    | 0.033658   | 0.37852    | 1.1376     |  51.0 | 16.42
Output  | 0          | 0          | 0          |   0.0 |  0.00
Modify  | 2.3398e-05 | 0.0032597  | 0.0070078  |   2.7 |  0.14
Other   |            | 0.265      |            |       | 11.50

Nlocal:        2776.45 ave        3958 max           0 min
Histogram: 8 4 4 0 4 12 8 2 28 34
Nghost:        3878.86 ave        5425 max         232 min
Histogram: 8 0 8 0 16 0 8 8 16 40
Neighs:        79213.6 ave      115410 max           0 min
Histogram: 8 4 4 0 10 6 8 8 24 32

Total # of neighbors = 8238214
Ave neighs/atom = 28.530512
Neighbor list builds = 0
Dangerous builds = 0
The dot product: 1.15280172033099e-07
Setting atom values ...
  1 settings made for x
  1 settings made for y
  1 settings made for z
Setting up cg style minimization ...
  Unit style    : metal
  Current step  : 5686
Per MPI rank memory allocation (min/avg/max) = 5.441 | 5.816 | 6.074 Mbytes
Step PotEng KinEng TotEng v_fx v_fy v_fz 
    5686   -1152448.9            0   -1152448.9 0.0034974977 0.00028019942 -0.0042591491 
    5898   -1152448.9            0   -1152448.9 -8.9460309e-06 -3.0945092e-08 1.0940771e-05 
Loop time of 2.48207 on 104 procs for 212 steps with 288751 atoms

99.9% CPU use with 104 MPI tasks x 1 OpenMP threads

Minimization stats:
  Stopping criterion = energy tolerance
  Energy initial, next-to-last, final = 
     -1152448.86373856   -1152448.8653485   -1152448.8653485
  Force two-norm initial, final = 0.17827168 7.7816465e-05
  Force max component initial, final = 0.14676418 1.8559935e-05
  Final line search alpha, max atom move = 1.0000000 1.8559935e-05
  Iterations, force evaluations = 212 424

MPI task timing breakdown:
Section |  min time  |  avg time  |  max time  |%varavg| %total
---------------------------------------------------------------
Pair    | 0.6458     | 1.7852     | 2.3386     |  36.0 | 71.93
Neigh   | 0          | 0          | 0          |   0.0 |  0.00
Comm    | 0.035763   | 0.40878    | 1.2361     |  52.8 | 16.47
Output  | 0          | 0          | 0          |   0.0 |  0.00
Modify  | 2.9131e-05 | 0.0034987  | 0.0074575  |   2.8 |  0.14
Other   |            | 0.2845     |            |       | 11.46

Nlocal:        2776.45 ave        3957 max           0 min
Histogram: 8 4 4 0 4 12 8 2 28 34
Nghost:        3878.87 ave        5425 max         232 min
Histogram: 8 0 8 0 16 0 8 8 16 40
Neighs:        79213.6 ave      115380 max           0 min
Histogram: 8 4 4 0 10 6 8 8 24 32

Total # of neighbors = 8238214
Ave neighs/atom = 28.530512
Neighbor list builds = 0
Dangerous builds = 0
The dot product: 5.01392052134146e-08
Setting atom values ...
  1 settings made for x
  1 settings made for y
  1 settings made for z
Setting up cg style minimization ...
  Unit style    : metal
  Current step  : 5898
Per MPI rank memory allocation (min/avg/max) = 5.441 | 5.816 | 6.074 Mbytes
Step PotEng KinEng TotEng v_fx v_fy v_fz 
    5898   -1152448.8            0   -1152448.8 0.0060368363 0.00022628641 -0.0072827609 
    6000   -1152448.8            0   -1152448.8 2.5701401e-05 1.9238686e-05 -2.9764527e-05 
    6091   -1152448.8            0   -1152448.8 -2.533644e-05 -5.6570573e-06 3.0245816e-05 
Loop time of 2.25263 on 104 procs for 193 steps with 288751 atoms

99.9% CPU use with 104 MPI tasks x 1 OpenMP threads

Minimization stats:
  Stopping criterion = energy tolerance
  Energy initial, next-to-last, final = 
     -1152448.82742552  -1152448.82913842  -1152448.82913842
  Force two-norm initial, final = 0.17958297 0.00018626193
  Force max component initial, final = 0.148387 3.6846338e-05
  Final line search alpha, max atom move = 1.0000000 3.6846338e-05
  Iterations, force evaluations = 193 386

MPI task timing breakdown:
Section |  min time  |  avg time  |  max time  |%varavg| %total
---------------------------------------------------------------
Pair    | 0.58844    | 1.6177     | 2.1116     |  34.3 | 71.81
Neigh   | 0          | 0          | 0          |   0.0 |  0.00
Comm    | 0.03312    | 0.3665     | 1.0984     |  50.3 | 16.27
Output  | 0.0001502  | 0.00015871 | 0.00028474 |   0.0 |  0.01
Modify  | 2.3383e-05 | 0.0031874  | 0.0068473  |   2.7 |  0.14
Other   |            | 0.2651     |            |       | 11.77

Nlocal:        2776.45 ave        3957 max           0 min
Histogram: 8 4 4 0 4 12 8 2 28 34
Nghost:        3878.82 ave        5425 max         232 min
Histogram: 8 0 8 0 16 0 8 8 16 40
Neighs:        79213.6 ave      115382 max           0 min
Histogram: 8 4 4 0 10 6 8 8 24 32

Total # of neighbors = 8238216
Ave neighs/atom = 28.530519
Neighbor list builds = 0
Dangerous builds = 0
The dot product: 1.29394572995254e-07
Setting atom values ...
  1 settings made for x
  1 settings made for y
  1 settings made for z
Setting up cg style minimization ...
  Unit style    : metal
  Current step  : 6091
Per MPI rank memory allocation (min/avg/max) = 5.441 | 5.816 | 6.074 Mbytes
Step PotEng KinEng TotEng v_fx v_fy v_fz 
    6091   -1152448.8            0   -1152448.8 0.0077933719 0.00047041576 -0.0092926984 
    6265   -1152448.8            0   -1152448.8 -4.898264e-05 -7.7800863e-06 5.8076295e-05 
Loop time of 2.05274 on 104 procs for 174 steps with 288751 atoms

99.9% CPU use with 104 MPI tasks x 1 OpenMP threads

Minimization stats:
  Stopping criterion = energy tolerance
  Energy initial, next-to-last, final = 
     -1152448.79039961  -1152448.79202324  -1152448.79202324
  Force two-norm initial, final = 0.18012179 0.00022422441
  Force max component initial, final = 0.14938456 5.8076295e-05
  Final line search alpha, max atom move = 1.0000000 5.8076295e-05
  Iterations, force evaluations = 174 348

MPI task timing breakdown:
Section |  min time  |  avg time  |  max time  |%varavg| %total
---------------------------------------------------------------
Pair    | 0.52781    | 1.4707     | 1.9312     |  32.8 | 71.65
Neigh   | 0          | 0          | 0          |   0.0 |  0.00
Comm    | 0.02908    | 0.33887    | 1.0192     |  47.9 | 16.51
Output  | 0          | 0          | 0          |   0.0 |  0.00
Modify  | 2.1179e-05 | 0.0028776  | 0.0061225  |   2.5 |  0.14
Other   |            | 0.2403     |            |       | 11.71

Nlocal:        2776.45 ave        3956 max           0 min
Histogram: 8 4 4 0 4 12 8 0 30 34
Nghost:        3878.83 ave        5425 max         232 min
Histogram: 8 0 8 0 16 0 8 8 16 40
Neighs:        79213.6 ave      115357 max           0 min
Histogram: 8 4 4 0 10 6 8 8 24 32

Total # of neighbors = 8238213
Ave neighs/atom = 28.530509
Neighbor list builds = 0
Dangerous builds = 0
The dot product: 1.71186538683831e-07
Setting atom values ...
  1 settings made for x
  1 settings made for y
  1 settings made for z
Setting up cg style minimization ...
  Unit style    : metal
  Current step  : 6265
Per MPI rank memory allocation (min/avg/max) = 5.441 | 5.816 | 6.074 Mbytes
Step PotEng KinEng TotEng v_fx v_fy v_fz 
    6265   -1152448.8            0   -1152448.8  0.010806583 0.0010193516 -0.012771641 
    6491   -1152448.8            0   -1152448.8 -1.6501256e-06 -1.3236992e-06 1.8693399e-06 
Loop time of 2.6569 on 104 procs for 226 steps with 288751 atoms

99.9% CPU use with 104 MPI tasks x 1 OpenMP threads

Minimization stats:
  Stopping criterion = energy tolerance
  Energy initial, next-to-last, final = 
     -1152448.75226773  -1152448.75389648  -1152448.75389648
  Force two-norm initial, final = 0.1811488 5.0836475e-05
  Force max component initial, final = 0.15074705 6.6003249e-06
  Final line search alpha, max atom move = 1.0000000 6.6003249e-06
  Iterations, force evaluations = 226 452

MPI task timing breakdown:
Section |  min time  |  avg time  |  max time  |%varavg| %total
---------------------------------------------------------------
Pair    | 0.68954    | 1.8974     | 2.4852     |  37.1 | 71.41
Neigh   | 0          | 0          | 0          |   0.0 |  0.00
Comm    | 0.038605   | 0.43674    | 1.31       |  54.1 | 16.44
Output  | 0          | 0          | 0          |   0.0 |  0.00
Modify  | 2.7185e-05 | 0.003739   | 0.0079981  |   2.9 |  0.14
Other   |            | 0.319      |            |       | 12.01

Nlocal:        2776.45 ave        3956 max           0 min
Histogram: 8 4 4 0 4 12 8 0 30 34
Nghost:        3878.81 ave        5425 max         232 min
Histogram: 8 0 8 0 16 0 8 8 16 40
Neighs:        79213.6 ave      115356 max           0 min
Histogram: 8 4 4 0 10 6 8 8 24 32

Total # of neighbors = 8238212
Ave neighs/atom = 28.530506
Neighbor list builds = 0
Dangerous builds = 0
The dot product: 4.00587866799975e-09
Setting atom values ...
  1 settings made for x
  1 settings made for y
  1 settings made for z
Setting up cg style minimization ...
  Unit style    : metal
  Current step  : 6491
Per MPI rank memory allocation (min/avg/max) = 5.441 | 5.816 | 6.074 Mbytes
Step PotEng KinEng TotEng v_fx v_fy v_fz 
    6491   -1152448.7            0   -1152448.7  0.013614185 0.0018848295 -0.015982518 
    6641   -1152448.7            0   -1152448.7 -2.1712102e-05 -4.2207887e-06 2.5403715e-05 
Loop time of 1.75892 on 104 procs for 150 steps with 288751 atoms

99.9% CPU use with 104 MPI tasks x 1 OpenMP threads

Minimization stats:
  Stopping criterion = energy tolerance
  Energy initial, next-to-last, final = 
     -1152448.71320297  -1152448.71499248  -1152448.71499248
  Force two-norm initial, final = 0.18167894 0.00019254146
  Force max component initial, final = 0.15187784 2.5403715e-05
  Final line search alpha, max atom move = 1.0000000 2.5403715e-05
  Iterations, force evaluations = 150 300

MPI task timing breakdown:
Section |  min time  |  avg time  |  max time  |%varavg| %total
---------------------------------------------------------------
Pair    | 0.45802    | 1.2677     | 1.6578     |  30.3 | 72.07
Neigh   | 0          | 0          | 0          |   0.0 |  0.00
Comm    | 0.025351   | 0.28924    | 0.87878    |  44.9 | 16.44
Output  | 0          | 0          | 0          |   0.0 |  0.00
Modify  | 1.8476e-05 | 0.0024818  | 0.0052915  |   2.3 |  0.14
Other   |            | 0.1995     |            |       | 11.34

Nlocal:        2776.45 ave        3955 max           0 min
Histogram: 8 4 4 0 4 12 8 0 30 34
Nghost:        3878.82 ave        5425 max         232 min
Histogram: 8 0 8 0 16 0 8 8 16 40
Neighs:        79213.6 ave      115326 max           0 min
Histogram: 8 4 4 0 10 6 8 8 24 32

Total # of neighbors = 8238212
Ave neighs/atom = 28.530506
Neighbor list builds = 0
Dangerous builds = 0
The dot product: 3.06759562331966e-08
Setting atom values ...
  1 settings made for x
  1 settings made for y
  1 settings made for z
Setting up cg style minimization ...
  Unit style    : metal
  Current step  : 6641
Per MPI rank memory allocation (min/avg/max) = 5.441 | 5.816 | 6.074 Mbytes
Step PotEng KinEng TotEng v_fx v_fy v_fz 
    6641   -1152448.7            0   -1152448.7  0.015567695 0.0025494259 -0.018200073 
    6793   -1152448.7            0   -1152448.7 -3.5646724e-05 -5.9402982e-06 4.1666908e-05 
Loop time of 1.77402 on 104 procs for 152 steps with 288751 atoms

99.9% CPU use with 104 MPI tasks x 1 OpenMP threads

Minimization stats:
  Stopping criterion = energy tolerance
  Energy initial, next-to-last, final = 
     -1152448.67382829  -1152448.67557223  -1152448.67557223
  Force two-norm initial, final = 0.18055904 0.00018438825
  Force max component initial, final = 0.15188088 4.5040737e-05
  Final line search alpha, max atom move = 1.0000000 4.5040737e-05
  Iterations, force evaluations = 152 304

MPI task timing breakdown:
Section |  min time  |  avg time  |  max time  |%varavg| %total
---------------------------------------------------------------
Pair    | 0.46418    | 1.2786     | 1.6697     |  30.5 | 72.07
Neigh   | 0          | 0          | 0          |   0.0 |  0.00
Comm    | 0.025956   | 0.29105    | 0.873      |  44.8 | 16.41
Output  | 0          | 0          | 0          |   0.0 |  0.00
Modify  | 1.8463e-05 | 0.002514   | 0.0053783  |   2.4 |  0.14
Other   |            | 0.2019     |            |       | 11.38

Nlocal:        2776.45 ave        3955 max           0 min
Histogram: 8 4 4 0 4 12 8 0 30 34
Nghost:        3878.75 ave        5425 max         232 min
Histogram: 8 0 8 0 16 0 8 8 16 40
Neighs:        79213.5 ave      115328 max           0 min
Histogram: 8 4 4 0 10 6 8 8 24 32

Total # of neighbors = 8238205
Ave neighs/atom = 28.530481
Neighbor list builds = 0
Dangerous builds = 0
The dot product: -1.05131664485995e-08
Setting atom values ...
  1 settings made for x
  1 settings made for y
  1 settings made for z
Setting up cg style minimization ...
  Unit style    : metal
  Current step  : 6793
Per MPI rank memory allocation (min/avg/max) = 5.441 | 5.816 | 6.074 Mbytes
Step PotEng KinEng TotEng v_fx v_fy v_fz 
    6793   -1152448.6            0   -1152448.6  0.018270358 0.0037614724 -0.021314208 
    7000   -1152448.6            0   -1152448.6 8.084948e-06 6.1345556e-06 -9.0989736e-06 
    7064   -1152448.6            0   -1152448.6 1.4906033e-06 -8.5132747e-07 -1.8252025e-06 
Loop time of 3.21649 on 104 procs for 271 steps with 288751 atoms

99.9% CPU use with 104 MPI tasks x 1 OpenMP threads

Minimization stats:
  Stopping criterion = energy tolerance
  Energy initial, next-to-last, final = 
     -1152448.63407696  -1152448.63606372  -1152448.63606372
  Force two-norm initial, final = 0.17962308 4.1078661e-05
  Force max component initial, final = 0.15166406 4.7442269e-06
  Final line search alpha, max atom move = 1.0000000 4.7442269e-06
  Iterations, force evaluations = 271 542

MPI task timing breakdown:
Section |  min time  |  avg time  |  max time  |%varavg| %total
---------------------------------------------------------------
Pair    | 0.84039    | 2.2879     | 2.9931     |  40.4 | 71.13
Neigh   | 0          | 0          | 0          |   0.0 |  0.00
Comm    | 0.0597     | 0.53262    | 1.6257     |  59.0 | 16.56
Output  | 0.00018885 | 0.00019189 | 0.00035854 |   0.0 |  0.01
Modify  | 3.3556e-05 | 0.0044777  | 0.009548   |   3.1 |  0.14
Other   |            | 0.3913     |            |       | 12.17

Nlocal:        2776.45 ave        3955 max           0 min
Histogram: 8 4 4 0 4 12 8 0 30 34
Nghost:        3878.73 ave        5425 max         232 min
Histogram: 8 0 8 0 16 0 8 8 16 40
Neighs:        79213.5 ave      115329 max           0 min
Histogram: 8 4 4 0 10 6 8 8 24 32

Total # of neighbors = 8238200
Ave neighs/atom = 28.530464
Neighbor list builds = 0
Dangerous builds = 0
The dot product: 3.01300295319324e-09
Setting atom values ...
  1 settings made for x
  1 settings made for y
  1 settings made for z
Setting up cg style minimization ...
  Unit style    : metal
  Current step  : 7064
Per MPI rank memory allocation (min/avg/max) = 5.441 | 5.816 | 6.074 Mbytes
Step PotEng KinEng TotEng v_fx v_fy v_fz 
    7064   -1152448.6            0   -1152448.6  0.020963421 0.0014176521 -0.024716475 
    7278   -1152448.6            0   -1152448.6 -1.6854924e-05 -1.2277889e-06 1.9865594e-05 
Loop time of 2.52016 on 104 procs for 214 steps with 288751 atoms

99.9% CPU use with 104 MPI tasks x 1 OpenMP threads

Minimization stats:
  Stopping criterion = energy tolerance
  Energy initial, next-to-last, final = 
     -1152448.59529997  -1152448.59744411  -1152448.59744411
  Force two-norm initial, final = 0.17780312 9.3201231e-05
  Force max component initial, final = 0.14921764 1.9865594e-05
  Final line search alpha, max atom move = 1.0000000 1.9865594e-05
  Iterations, force evaluations = 214 428

MPI task timing breakdown:
Section |  min time  |  avg time  |  max time  |%varavg| %total
---------------------------------------------------------------
Pair    | 0.64977    | 1.7977     | 2.3466     |  36.3 | 71.33
Neigh   | 0          | 0          | 0          |   0.0 |  0.00
Comm    | 0.03763    | 0.41169    | 1.2288     |  53.0 | 16.34
Output  | 0          | 0          | 0          |   0.0 |  0.00
Modify  | 2.5301e-05 | 0.0035384  | 0.0075561  |   2.8 |  0.14
Other   |            | 0.3072     |            |       | 12.19

Nlocal:        2776.45 ave        3954 max           0 min
Histogram: 8 4 4 0 4 12 8 0 30 34
Nghost:        3878.73 ave        5425 max         232 min
Histogram: 8 0 8 0 16 0 8 8 16 40
Neighs:        79213.5 ave      115282 max           0 min
Histogram: 8 4 4 0 10 6 8 8 24 32

Total # of neighbors = 8238205
Ave neighs/atom = 28.530481
Neighbor list builds = 0
Dangerous builds = 0
The dot product: -1.36468023387305e-08
Setting atom values ...
  1 settings made for x
  1 settings made for y
  1 settings made for z
Setting up cg style minimization ...
  Unit style    : metal
  Current step  : 7278
Per MPI rank memory allocation (min/avg/max) = 5.441 | 5.816 | 6.074 Mbytes
Step PotEng KinEng TotEng v_fx v_fy v_fz 
    7278   -1152448.6            0   -1152448.6  0.021994583 -0.00050137093 -0.026131864 
    7512   -1152448.6            0   -1152448.6 8.5644354e-06 -3.6390976e-07 -1.0189236e-05 
Loop time of 2.76479 on 104 procs for 234 steps with 288751 atoms

99.9% CPU use with 104 MPI tasks x 1 OpenMP threads

Minimization stats:
  Stopping criterion = energy tolerance
  Energy initial, next-to-last, final = 
     -1152448.55833932  -1152448.57009133  -1152448.57009133
  Force two-norm initial, final = 0.18453087 0.00014002338
  Force max component initial, final = 0.14663538 1.0189236e-05
  Final line search alpha, max atom move = 1.0000000 1.0189236e-05
  Iterations, force evaluations = 234 468

MPI task timing breakdown:
Section |  min time  |  avg time  |  max time  |%varavg| %total
---------------------------------------------------------------
Pair    | 0.71254    | 1.9751     | 2.5966     |  38.0 | 71.44
Neigh   | 1.0136e-05 | 0.0029417  | 0.0042691  |   2.2 |  0.11
Comm    | 0.042613   | 0.45639    | 1.3512     |  55.0 | 16.51
Output  | 0          | 0          | 0          |   0.0 |  0.00
Modify  | 2.7851e-05 | 0.0038768  | 0.0083104  |   2.9 |  0.14
Other   |            | 0.3265     |            |       | 11.81

Nlocal:        2776.45 ave        3953 max           0 min
Histogram: 8 4 4 0 4 12 8 0 30 34
Nghost:        3878.75 ave        5425 max         232 min
Histogram: 8 0 8 0 16 0 8 8 16 40
Neighs:        79213.4 ave      115243 max           0 min
Histogram: 8 4 4 0 10 6 8 8 24 32

Total # of neighbors = 8238195
Ave neighs/atom = 28.530447
Neighbor list builds = 1
Dangerous builds = 0
The dot product: -1.85828302709501e-07
Setting atom values ...
  1 settings made for x
  1 settings made for y
  1 settings made for z
Setting up cg style minimization ...
  Unit style    : metal
  Current step  : 7512
Per MPI rank memory allocation (min/avg/max) = 5.441 | 5.816 | 6.074 Mbytes
Step PotEng KinEng TotEng v_fx v_fy v_fz 
    7512   -1152448.5            0   -1152448.5  0.014514429 0.0020548628 -0.016424051 
    7863   -1152448.5            0   -1152448.5 -4.1436045e-05 -5.2196497e-06 4.6942608e-05 
[...]
Histogram: 8 0 8 0 16 0 8 8 16 40
Neighs:        79213.2 ave      115461 max           0 min
Histogram: 8 4 4 0 10 6 8 8 24 32

Total # of neighbors = 8238174
Ave neighs/atom = 28.530374
Neighbor list builds = 0
Dangerous builds = 0
The dot product: 5.18767246572469e-09
Setting atom values ...
  1 settings made for x
  1 settings made for y
  1 settings made for z
Setting up cg style minimization ...
  Unit style    : metal
  Current step  : 27635
Per MPI rank memory allocation (min/avg/max) = 5.441 | 5.816 | 6.074 Mbytes
Step PotEng KinEng TotEng v_fx v_fy v_fz 
   27635   -1152449.1            0   -1152449.1 -0.0009174632 0.0072803904 0.0096883546 
   27838   -1152449.1            0   -1152449.1 1.6329056e-05 1.5773615e-06 -9.7684938e-06 
Loop time of 2.37632 on 104 procs for 203 steps with 288751 atoms

99.9% CPU use with 104 MPI tasks x 1 OpenMP threads

Minimization stats:
  Stopping criterion = energy tolerance
  Energy initial, next-to-last, final = 
     -1152449.10685094  -1152449.10821013  -1152449.10821013
  Force two-norm initial, final = 0.16203739 4.7401408e-05
  Force max component initial, final = 0.094546755 1.6329056e-05
  Final line search alpha, max atom move = 1.0000000 1.6329056e-05
  Iterations, force evaluations = 203 406

MPI task timing breakdown:
Section |  min time  |  avg time  |  max time  |%varavg| %total
---------------------------------------------------------------
Pair    | 0.60811    | 1.7023     | 2.2356     |  35.4 | 71.64
Neigh   | 0          | 0          | 0          |   0.0 |  0.00
Comm    | 0.036248   | 0.39169    | 1.1629     |  51.3 | 16.48
Output  | 0          | 0          | 0          |   0.0 |  0.00
Modify  | 2.56e-05   | 0.0033651  | 0.0072001  |   2.7 |  0.14
Other   |            | 0.279      |            |       | 11.74

Nlocal:        2776.45 ave        3961 max           0 min
Histogram: 8 4 4 0 6 10 8 4 26 34
Nghost:        3879.12 ave        5425 max         232 min
Histogram: 8 0 8 0 16 0 8 8 16 40
Neighs:        79213.2 ave      115461 max           0 min
Histogram: 8 4 4 0 10 6 8 8 24 32

Total # of neighbors = 8238172
Ave neighs/atom = 28.530367
Neighbor list builds = 0
Dangerous builds = 0
The dot product: 1.12945911350422e-08
Setting atom values ...
  1 settings made for x
  1 settings made for y
  1 settings made for z
Setting up cg style minimization ...
  Unit style    : metal
  Current step  : 27838
Per MPI rank memory allocation (min/avg/max) = 5.441 | 5.816 | 6.074 Mbytes
Step PotEng KinEng TotEng v_fx v_fy v_fz 
   27838   -1152449.1            0   -1152449.1 -0.0010490325 0.0061392398 0.0083765274 
   28000   -1152449.1            0   -1152449.1 -2.1833904e-05 2.3232036e-05 4.4521214e-05 
   28066   -1152449.1            0   -1152449.1 1.6928864e-06 4.229814e-07 -6.8990398e-07 
Loop time of 2.72336 on 104 procs for 228 steps with 288751 atoms

99.9% CPU use with 104 MPI tasks x 1 OpenMP threads

Minimization stats:
  Stopping criterion = linesearch alpha is zero
  Energy initial, next-to-last, final = 
     -1152449.08706131  -1152449.08845764  -1152449.08845764
  Force two-norm initial, final = 0.16179353 1.7936335e-05
  Force max component initial, final = 0.095347558 1.6928864e-06
  Final line search alpha, max atom move = 0.5 8.4644322e-07
  Iterations, force evaluations = 228 457

MPI task timing breakdown:
Section |  min time  |  avg time  |  max time  |%varavg| %total
---------------------------------------------------------------
Pair    | 0.68584    | 1.9194     | 2.5341     |  37.7 | 70.48
Neigh   | 0          | 0          | 0          |   0.0 |  0.00
Comm    | 0.046256   | 0.44504    | 1.3144     |  54.3 | 16.34
Output  | 0.0002155  | 0.00022746 | 0.00041942 |   0.0 |  0.01
Modify  | 2.9044e-05 | 0.0037795  | 0.0080094  |   2.9 |  0.14
Other   |            | 0.3549     |            |       | 13.03

Nlocal:        2776.45 ave        3961 max           0 min
Histogram: 8 4 4 0 6 10 8 4 26 34
Nghost:        3879.12 ave        5425 max         232 min
Histogram: 8 0 8 0 16 0 8 8 16 40
Neighs:        79213.2 ave      115476 max           0 min
Histogram: 8 4 4 0 10 6 8 8 24 32

Total # of neighbors = 8238172
Ave neighs/atom = 28.530367
Neighbor list builds = 0
Dangerous builds = 0
The dot product: 2.21049830436088e-09
Setting atom values ...
  1 settings made for x
  1 settings made for y
  1 settings made for z
Setting up cg style minimization ...
  Unit style    : metal
  Current step  : 28066
Per MPI rank memory allocation (min/avg/max) = 5.441 | 5.816 | 6.074 Mbytes
Step PotEng KinEng TotEng v_fx v_fy v_fz 
   28066   -1152449.1            0   -1152449.1 -0.0011830475 0.0051960221 0.0073090232 
   28244   -1152449.1            0   -1152449.1 -2.4968308e-05 -1.3221429e-05 1.4755563e-06 
Loop time of 2.0886 on 104 procs for 178 steps with 288751 atoms

99.9% CPU use with 104 MPI tasks x 1 OpenMP threads

Minimization stats:
  Stopping criterion = energy tolerance
  Energy initial, next-to-last, final = 
     -1152449.06626441  -1152449.06765049  -1152449.06765049
  Force two-norm initial, final = 0.16181252 0.00012078882
  Force max component initial, final = 0.096102441 2.4968308e-05
  Final line search alpha, max atom move = 1.0000000 2.4968308e-05
  Iterations, force evaluations = 178 356

MPI task timing breakdown:
Section |  min time  |  avg time  |  max time  |%varavg| %total
---------------------------------------------------------------
Pair    | 0.53224    | 1.4919     | 1.9542     |  33.1 | 71.43
Neigh   | 0          | 0          | 0          |   0.0 |  0.00
Comm    | 0.032711   | 0.34566    | 1.0211     |  47.8 | 16.55
Output  | 0          | 0          | 0          |   0.0 |  0.00
Modify  | 2.3493e-05 | 0.0029484  | 0.006256   |   2.5 |  0.14
Other   |            | 0.2481     |            |       | 11.88

Nlocal:        2776.45 ave        3961 max           0 min
Histogram: 8 4 4 0 6 10 8 4 26 34
Nghost:        3879.16 ave        5425 max         232 min
Histogram: 8 0 8 0 16 0 8 8 16 40
Neighs:        79213.2 ave      115467 max           0 min
Histogram: 8 4 4 0 10 6 8 8 24 32

Total # of neighbors = 8238171
Ave neighs/atom = 28.530364
Neighbor list builds = 0
Dangerous builds = 0
The dot product: -4.65698576883497e-08
Setting atom values ...
  1 settings made for x
  1 settings made for y
  1 settings made for z
Setting up cg style minimization ...
  Unit style    : metal
  Current step  : 28244
Per MPI rank memory allocation (min/avg/max) = 5.441 | 5.816 | 6.074 Mbytes
Step PotEng KinEng TotEng v_fx v_fy v_fz 
   28244     -1152449            0     -1152449 -0.0011869248 0.0042922973 0.0061936758 
   28429     -1152449            0     -1152449 1.7854755e-05 2.0654989e-06 -1.0233871e-05 
Loop time of 2.18241 on 104 procs for 185 steps with 288751 atoms

99.9% CPU use with 104 MPI tasks x 1 OpenMP threads

Minimization stats:
  Stopping criterion = energy tolerance
  Energy initial, next-to-last, final = 
     -1152449.04430757  -1152449.04566067  -1152449.04566067
  Force two-norm initial, final = 0.16192962 0.00010008479
  Force max component initial, final = 0.096811031 2.2259211e-05
  Final line search alpha, max atom move = 1.0000000 2.2259211e-05
  Iterations, force evaluations = 185 370

MPI task timing breakdown:
Section |  min time  |  avg time  |  max time  |%varavg| %total
---------------------------------------------------------------
Pair    | 0.56034    | 1.5554     | 2.0452     |  33.7 | 71.27
Neigh   | 0          | 0          | 0          |   0.0 |  0.00
Comm    | 0.038824   | 0.35818    | 1.0638     |  49.0 | 16.41
Output  | 0          | 0          | 0          |   0.0 |  0.00
Modify  | 2.3879e-05 | 0.0030644  | 0.0065137  |   2.6 |  0.14
Other   |            | 0.2658     |            |       | 12.18

Nlocal:        2776.45 ave        3960 max           0 min
Histogram: 8 4 4 0 4 12 8 4 26 34
Nghost:        3879.16 ave        5425 max         232 min
Histogram: 8 0 8 0 16 0 8 8 16 40
Neighs:        79213.2 ave      115428 max           0 min
Histogram: 8 4 4 0 10 6 8 8 24 32

Total # of neighbors = 8238170
Ave neighs/atom = 28.530360
Neighbor list builds = 0
Dangerous builds = 0
The dot product: 1.33449626579953e-08
Setting atom values ...
  1 settings made for x
  1 settings made for y
  1 settings made for z
Setting up cg style minimization ...
  Unit style    : metal
  Current step  : 28429
Per MPI rank memory allocation (min/avg/max) = 5.441 | 5.816 | 6.074 Mbytes
Step PotEng KinEng TotEng v_fx v_fy v_fz 
   28429     -1152449            0     -1152449 -0.00083086038 0.0035260891 0.0049883184 
   28590     -1152449            0     -1152449 4.1770276e-05 -4.9222757e-06 -3.6076349e-05 
Loop time of 1.8712 on 104 procs for 161 steps with 288751 atoms

99.9% CPU use with 104 MPI tasks x 1 OpenMP threads

Minimization stats:
  Stopping criterion = energy tolerance
  Energy initial, next-to-last, final = 
     -1152449.02104779  -1152449.02238031  -1152449.02238031
  Force two-norm initial, final = 0.16219074 0.0002528921
  Force max component initial, final = 0.097477877 6.5595476e-05
  Final line search alpha, max atom move = 1.0000000 6.5595476e-05
  Iterations, force evaluations = 161 322

MPI task timing breakdown:
Section |  min time  |  avg time  |  max time  |%varavg| %total
---------------------------------------------------------------
Pair    | 0.48208    | 1.3488     | 1.7654     |  31.6 | 72.08
Neigh   | 0          | 0          | 0          |   0.0 |  0.00
Comm    | 0.029062   | 0.30866    | 0.92213    |  45.8 | 16.50
Output  | 0          | 0          | 0          |   0.0 |  0.00
Modify  | 2.0892e-05 | 0.0026642  | 0.0056713  |   2.4 |  0.14
Other   |            | 0.2111     |            |       | 11.28

Nlocal:        2776.45 ave        3960 max           0 min
Histogram: 8 4 4 0 4 12 8 4 26 34
Nghost:        3879.18 ave        5425 max         232 min
Histogram: 8 0 8 0 16 0 8 8 16 40
Neighs:        79213.2 ave      115430 max           0 min
Histogram: 8 4 4 0 10 6 8 8 24 32

Total # of neighbors = 8238171
Ave neighs/atom = 28.530364
Neighbor list builds = 0
Dangerous builds = 0
The dot product: 1.51198043486713e-08
Setting atom values ...
  1 settings made for x
  1 settings made for y
  1 settings made for z
Setting up cg style minimization ...
  Unit style    : metal
  Current step  : 28590
Per MPI rank memory allocation (min/avg/max) = 5.441 | 5.816 | 6.074 Mbytes
Step PotEng KinEng TotEng v_fx v_fy v_fz 
   28590     -1152449            0     -1152449 -0.00020045899 0.0028466784 0.0036925743 
   28778     -1152449            0     -1152449 1.548114e-06 1.3594241e-06 5.8544011e-07 
Loop time of 2.21072 on 104 procs for 188 steps with 288751 atoms

99.9% CPU use with 104 MPI tasks x 1 OpenMP threads

Minimization stats:
  Stopping criterion = energy tolerance
  Energy initial, next-to-last, final = 
      -1152448.9963963  -1152448.99771078  -1152448.99771078
  Force two-norm initial, final = 0.16259057 0.0001019207
  Force max component initial, final = 0.098048459 1.7835755e-05
  Final line search alpha, max atom move = 1.0000000 1.7835755e-05
  Iterations, force evaluations = 188 376

MPI task timing breakdown:
Section |  min time  |  avg time  |  max time  |%varavg| %total
---------------------------------------------------------------
Pair    | 0.56536    | 1.5798     | 2.0815     |  34.2 | 71.46
Neigh   | 0          | 0          | 0          |   0.0 |  0.00
Comm    | 0.033956   | 0.36544    | 1.0708     |  49.1 | 16.53
Output  | 0          | 0          | 0          |   0.0 |  0.00
Modify  | 2.3909e-05 | 0.0031183  | 0.0066471  |   2.6 |  0.14
Other   |            | 0.2623     |            |       | 11.87

Nlocal:        2776.45 ave        3960 max           0 min
Histogram: 8 4 4 0 4 12 8 4 26 34
Nghost:        3879.20 ave        5425 max         232 min
Histogram: 8 0 8 0 16 0 8 8 16 40
Neighs:        79213.2 ave      115430 max           0 min
Histogram: 8 4 4 0 10 6 8 8 24 32

Total # of neighbors = 8238173
Ave neighs/atom = 28.530370
Neighbor list builds = 0
Dangerous builds = 0
The dot product: 2.89300233373546e-09
Setting atom values ...
  1 settings made for x
  1 settings made for y
  1 settings made for z
Setting up cg style minimization ...
  Unit style    : metal
  Current step  : 28778
Per MPI rank memory allocation (min/avg/max) = 5.441 | 5.816 | 6.074 Mbytes
Step PotEng KinEng TotEng v_fx v_fy v_fz 
   28778     -1152449            0     -1152449 0.00057425922 0.0022520826 0.0023978672 
   28995     -1152449            0     -1152449 1.1911709e-06 -5.9448418e-07 -1.5945753e-06 
Loop time of 2.53042 on 104 procs for 217 steps with 288751 atoms

99.9% CPU use with 104 MPI tasks x 1 OpenMP threads

Minimization stats:
  Stopping criterion = energy tolerance
  Energy initial, next-to-last, final = 
     -1152448.97025251  -1152448.97155242  -1152448.97155242
  Force two-norm initial, final = 0.16326594 3.5881137e-05
  Force max component initial, final = 0.098664599 4.8102077e-06
  Final line search alpha, max atom move = 1.0000000 4.8102077e-06
  Iterations, force evaluations = 217 434

MPI task timing breakdown:
Section |  min time  |  avg time  |  max time  |%varavg| %total
---------------------------------------------------------------
Pair    | 0.65025    | 1.8183     | 2.3861     |  36.7 | 71.86
Neigh   | 0          | 0          | 0          |   0.0 |  0.00
Comm    | 0.038511   | 0.41806    | 1.2445     |  53.0 | 16.52
Output  | 0          | 0          | 0          |   0.0 |  0.00
Modify  | 2.7543e-05 | 0.0035947  | 0.007565   |   2.8 |  0.14
Other   |            | 0.2905     |            |       | 11.48

Nlocal:        2776.45 ave        3960 max           0 min
Histogram: 8 4 4 0 4 12 8 4 26 34
Nghost:        3879.18 ave        5425 max         232 min
Histogram: 8 0 8 0 16 0 8 8 16 40
Neighs:        79213.2 ave      115435 max           0 min
Histogram: 8 4 4 0 10 6 8 8 24 32

Total # of neighbors = 8238171
Ave neighs/atom = 28.530364
Neighbor list builds = 0
Dangerous builds = 0
The dot product: 8.10037796430716e-10
Setting atom values ...
  1 settings made for x
  1 settings made for y
  1 settings made for z
Setting up cg style minimization ...
  Unit style    : metal
  Current step  : 28995
Per MPI rank memory allocation (min/avg/max) = 5.441 | 5.816 | 6.074 Mbytes
Step PotEng KinEng TotEng v_fx v_fy v_fz 
   28995   -1152448.9            0   -1152448.9 0.0014211162  0.001737626  0.001151206 
   29000   -1152448.9            0   -1152448.9 -0.0004188861 -0.00034081747 -0.00012550999 
   29209   -1152448.9            0   -1152448.9 2.2303103e-06 4.8167214e-07 -9.9495174e-07 
Loop time of 2.52518 on 104 procs for 214 steps with 288751 atoms

99.9% CPU use with 104 MPI tasks x 1 OpenMP threads

Minimization stats:
  Stopping criterion = energy tolerance
  Energy initial, next-to-last, final = 
      -1152448.9425252  -1152448.94381921  -1152448.94381921
  Force two-norm initial, final = 0.1641452 4.3380606e-05
  Force max component initial, final = 0.09923613 8.7865109e-06
  Final line search alpha, max atom move = 1.0000000 8.7865109e-06
  Iterations, force evaluations = 214 428

MPI task timing breakdown:
Section |  min time  |  avg time  |  max time  |%varavg| %total
---------------------------------------------------------------
Pair    | 0.64101    | 1.7997     | 2.3543     |  36.6 | 71.27
Neigh   | 0          | 0          | 0          |   0.0 |  0.00
Comm    | 0.03914    | 0.41592    | 1.2375     |  52.9 | 16.47
Output  | 0.00013461 | 0.00014291 | 0.0002215  |   0.0 |  0.01
Modify  | 2.8025e-05 | 0.003544   | 0.0075746  |   2.8 |  0.14
Other   |            | 0.3058     |            |       | 12.11

Nlocal:        2776.45 ave        3960 max           0 min
Histogram: 8 4 4 0 4 12 8 4 26 34
Nghost:        3879.17 ave        5426 max         232 min
Histogram: 8 0 8 0 16 0 8 8 16 40
Neighs:        79213.2 ave      115427 max           0 min
Histogram: 8 4 4 0 10 6 8 8 24 32

Total # of neighbors = 8238172
Ave neighs/atom = 28.530367
Neighbor list builds = 0
Dangerous builds = 0
The dot product: 3.04972715216003e-09
Setting atom values ...
  1 settings made for x
  1 settings made for y
  1 settings made for z
Setting up cg style minimization ...
  Unit style    : metal
  Current step  : 29209
Per MPI rank memory allocation (min/avg/max) = 5.441 | 5.816 | 6.074 Mbytes
Step PotEng KinEng TotEng v_fx v_fy v_fz 
   29209   -1152448.9            0   -1152448.9 0.0020853239 0.0012938314 0.00012387113 
   29426   -1152448.9            0   -1152448.9 -8.7049533e-07 -8.4337611e-07 -4.3019432e-07 
Loop time of 2.53257 on 104 procs for 217 steps with 288751 atoms

99.9% CPU use with 104 MPI tasks x 1 OpenMP threads

Minimization stats:
  Stopping criterion = energy tolerance
  Energy initial, next-to-last, final = 
     -1152448.91314449  -1152448.91443827  -1152448.91443827
  Force two-norm initial, final = 0.16521151 4.0950324e-05
  Force max component initial, final = 0.099777942 8.0357890e-06
  Final line search alpha, max atom move = 1.0000000 8.0357890e-06
  Iterations, force evaluations = 217 434

MPI task timing breakdown:
Section |  min time  |  avg time  |  max time  |%varavg| %total
---------------------------------------------------------------
Pair    | 0.65192    | 1.8184     | 2.3888     |  36.6 | 71.80
Neigh   | 0          | 0          | 0          |   0.0 |  0.00
Comm    | 0.038098   | 0.41721    | 1.2406     |  53.2 | 16.47
Output  | 0          | 0          | 0          |   0.0 |  0.00
Modify  | 2.7297e-05 | 0.0035931  | 0.0076136  |   2.8 |  0.14
Other   |            | 0.2934     |            |       | 11.58

Nlocal:        2776.45 ave        3960 max           0 min
Histogram: 8 4 4 0 4 12 8 4 26 34
Nghost:        3879.10 ave        5426 max         232 min
Histogram: 8 0 8 0 16 0 8 8 16 40
Neighs:        79213.2 ave      115425 max           0 min
Histogram: 8 4 4 0 10 6 8 8 24 32

Total # of neighbors = 8238170
Ave neighs/atom = 28.530360
Neighbor list builds = 0
Dangerous builds = 0
The dot product: -1.3868967694909e-09
Setting atom values ...
  1 settings made for x
  1 settings made for y
  1 settings made for z
Setting up cg style minimization ...
  Unit style    : metal
  Current step  : 29426
Per MPI rank memory allocation (min/avg/max) = 5.441 | 5.816 | 6.074 Mbytes
Step PotEng KinEng TotEng v_fx v_fy v_fz 
   29426   -1152448.9            0   -1152448.9 0.0023499104 0.00089304706 -0.00056359506 
   29604   -1152448.9            0   -1152448.9 1.5991758e-06 4.790157e-06 4.8363674e-06 
Loop time of 2.10103 on 104 procs for 178 steps with 288751 atoms

99.9% CPU use with 104 MPI tasks x 1 OpenMP threads

Minimization stats:
  Stopping criterion = energy tolerance
  Energy initial, next-to-last, final = 
     -1152448.88205116  -1152448.88334719  -1152448.88334719
  Force two-norm initial, final = 0.16635059 0.00018467018
  Force max component initial, final = 0.10025836 3.5211812e-05
  Final line search alpha, max atom move = 1.0000000 3.5211812e-05
  Iterations, force evaluations = 178 356

MPI task timing breakdown:
Section |  min time  |  avg time  |  max time  |%varavg| %total
---------------------------------------------------------------
Pair    | 0.53519    | 1.4974     | 1.9726     |  33.3 | 71.27
Neigh   | 0          | 0          | 0          |   0.0 |  0.00
Comm    | 0.032385   | 0.3458     | 1.0303     |  48.0 | 16.46
Output  | 0          | 0          | 0          |   0.0 |  0.00
Modify  | 2.348e-05  | 0.0029496  | 0.0062378  |   2.5 |  0.14
Other   |            | 0.2548     |            |       | 12.13

Nlocal:        2776.45 ave        3960 max           0 min
Histogram: 8 4 4 0 4 12 8 4 26 34
Nghost:        3879.09 ave        5426 max         232 min
Histogram: 8 0 8 0 16 0 8 8 16 40
Neighs:        79213.2 ave      115428 max           0 min
Histogram: 8 4 4 0 10 6 8 8 24 32

Total # of neighbors = 8238169
Ave neighs/atom = 28.530357
Neighbor list builds = 0
Dangerous builds = 0
The dot product: 2.45931943993441e-09
