LAMMPS (29 Oct 2020)
OMP_NUM_THREADS environment is not set. Defaulting to 1 thread. (../comm.cpp:94)
  using 1 OpenMP thread(s) per MPI task
OMP_NUM_THREADS environment is not set. Defaulting to 1 thread. (../comm.cpp:94)
  using 1 OpenMP thread(s) per MPI task
Reading data file ...
  orthogonal box = (-122.39241 -121.13707 -37.090501) to (122.39241 121.13707 37.090501)
  13 by 4 by 2 MPI processor grid
  reading atoms ...
  288751 atoms
  read_data CPU = 0.368 seconds
199981 atoms in group inner
88770 atoms in group outer
1 atoms in group carbon
Neighbor list info ...
  update every 1 steps, delay 0 steps, check yes
  max neighbors/atom: 2000, page size: 100000
  master list distance cutoff = 5.6
  ghost atom cutoff = 5.6
  binsize = 2.8, bins = 88 87 27
  1 neighbor lists, perpetual/occasional/extra = 1 0 0
  (1) pair eam/alloy, perpetual
      attributes: half, newton on
      pair build: half/bin/atomonly/newton
      stencil: half/bin/3d/newton
      bin: standard
Setting up cg style minimization ...
  Unit style    : metal
  Current step  : 0
Per MPI rank memory allocation (min/avg/max) = 5.441 | 5.816 | 6.074 Mbytes
Step v_fx v_fy v_fz PotEng KinEng TotEng 
       0     12.79573    23.557461    7.9194462   -1152441.7            0   -1152441.7 
     241 5.2888743e-06 9.8785091e-06 1.2236747e-05     -1152449            0     -1152449 
Loop time of 2.92978 on 104 procs for 241 steps with 288751 atoms

99.8% CPU use with 104 MPI tasks x 1 OpenMP threads

Minimization stats:
  Stopping criterion = energy tolerance
  Energy initial, next-to-last, final = 
     -1152441.72405151  -1152448.97218784  -1152448.97218784
  Force two-norm initial, final = 45.705926 0.00013012599
  Force max component initial, final = 29.894133 2.2233225e-05
  Final line search alpha, max atom move = 1.0000000 2.2233225e-05
  Iterations, force evaluations = 241 478

MPI task timing breakdown:
Section |  min time  |  avg time  |  max time  |%varavg| %total
---------------------------------------------------------------
Pair    | 0.77734    | 2.0324     | 2.6374     |  37.3 | 69.37
Neigh   | 0.0001061  | 0.029311   | 0.042416   |   7.1 |  1.00
Comm    | 0.055781   | 0.47229    | 1.3849     |  54.9 | 16.12
Output  | 0          | 0          | 0          |   0.0 |  0.00
Modify  | 2.7399e-05 | 0.002594   | 0.0066166  |   3.2 |  0.09
Other   |            | 0.3932     |            |       | 13.42

Nlocal:        2776.45 ave        3955 max           0 min
Histogram: 8 4 4 0 4 12 8 0 30 34
Nghost:        3879.04 ave        5424 max         232 min
Histogram: 8 0 8 0 16 0 8 8 16 40
Neighs:        79213.6 ave      115282 max           0 min
Histogram: 8 4 4 0 10 6 8 8 24 32

Total # of neighbors = 8238214
Ave neighs/atom = 28.530512
Neighbor list builds = 10
Dangerous builds = 0
Setting atom values ...
  1 settings made for x
  1 settings made for y
  1 settings made for z
Setting up cg style minimization ...
  Unit style    : metal
  Current step  : 241
Per MPI rank memory allocation (min/avg/max) = 5.441 | 5.816 | 6.074 Mbytes
Step PotEng KinEng TotEng v_fx v_fy v_fz 
     241     -1152449            0     -1152449 0.0058271401 0.0033801746  0.025321005 
     392     -1152449            0     -1152449 3.3200361e-07 -3.4524472e-06 -1.0195032e-05 
Loop time of 1.79022 on 104 procs for 151 steps with 288751 atoms

99.9% CPU use with 104 MPI tasks x 1 OpenMP threads

Minimization stats:
  Stopping criterion = energy tolerance
  Energy initial, next-to-last, final = 
     -1152448.97137335  -1152448.97197055  -1152448.97197055
  Force two-norm initial, final = 0.10767647 5.9308644e-05
  Force max component initial, final = 0.040169959 1.5340732e-05
  Final line search alpha, max atom move = 1.0000000 1.5340732e-05
  Iterations, force evaluations = 151 302

MPI task timing breakdown:
Section |  min time  |  avg time  |  max time  |%varavg| %total
---------------------------------------------------------------
Pair    | 0.46132    | 1.2786     | 1.6812     |  30.5 | 71.42
Neigh   | 0          | 0          | 0          |   0.0 |  0.00
Comm    | 0.028747   | 0.29118    | 0.86519    |  44.8 | 16.26
Output  | 0          | 0          | 0          |   0.0 |  0.00
Modify  | 1.8329e-05 | 0.0025034  | 0.0053315  |   2.3 |  0.14
Other   |            | 0.218      |            |       | 12.18

Nlocal:        2776.45 ave        3954 max           0 min
Histogram: 8 4 4 0 4 12 8 0 30 34
Nghost:        3879.12 ave        5424 max         232 min
Histogram: 8 0 8 0 16 0 8 8 16 40
Neighs:        79213.5 ave      115259 max           0 min
Histogram: 8 4 4 0 10 6 8 8 24 32

Total # of neighbors = 8238205
Ave neighs/atom = 28.530481
Neighbor list builds = 0
Dangerous builds = 0
Setting atom values ...
  1 settings made for x
  1 settings made for y
  1 settings made for z
Setting up cg style minimization ...
  Unit style    : metal
  Current step  : 392
Per MPI rank memory allocation (min/avg/max) = 5.441 | 5.816 | 6.074 Mbytes
Step PotEng KinEng TotEng v_fx v_fy v_fz 
     392     -1152449            0     -1152449  0.021907258 0.0047703366  0.031986039 
     633     -1152449            0     -1152449 -4.5279755e-06 -1.1654562e-05 -2.386982e-05 
Loop time of 2.84779 on 104 procs for 241 steps with 288751 atoms

99.9% CPU use with 104 MPI tasks x 1 OpenMP threads

Minimization stats:
  Stopping criterion = energy tolerance
  Energy initial, next-to-last, final = 
     -1152448.96921285  -1152448.97081656  -1152448.97081656
  Force two-norm initial, final = 0.1651184 0.00013474864
  Force max component initial, final = 0.082205886 3.5128002e-05
  Final line search alpha, max atom move = 1.0000000 3.5128002e-05
  Iterations, force evaluations = 241 482

MPI task timing breakdown:
Section |  min time  |  avg time  |  max time  |%varavg| %total
---------------------------------------------------------------
Pair    | 0.73617    | 2.0324     | 2.6515     |  38.5 | 71.37
Neigh   | 0          | 0          | 0          |   0.0 |  0.00
Comm    | 0.046995   | 0.4668     | 1.3841     |  56.1 | 16.39
Output  | 0          | 0          | 0          |   0.0 |  0.00
Modify  | 3.0637e-05 | 0.0039944  | 0.008486   |   3.0 |  0.14
Other   |            | 0.3446     |            |       | 12.10

Nlocal:        2776.45 ave        3954 max           0 min
Histogram: 8 4 4 0 4 12 8 0 30 34
Nghost:        3879.12 ave        5424 max         232 min
Histogram: 8 0 8 0 16 0 8 8 16 40
Neighs:        79213.5 ave      115258 max           0 min
Histogram: 8 4 4 0 10 6 8 8 24 32

Total # of neighbors = 8238205
Ave neighs/atom = 28.530481
Neighbor list builds = 0
Dangerous builds = 0
The dot product: -3.10892294644339e-07
Setting atom values ...
  1 settings made for x
  1 settings made for y
  1 settings made for z
Setting up cg style minimization ...
  Unit style    : metal
  Current step  : 633
Per MPI rank memory allocation (min/avg/max) = 5.441 | 5.816 | 6.074 Mbytes
Step PotEng KinEng TotEng v_fx v_fy v_fz 
     633     -1152449            0     -1152449  0.031168247 -0.000927713  0.014035601 
     815     -1152449            0     -1152449 9.0370955e-06 3.172358e-05 2.9851833e-05 
Loop time of 2.14744 on 104 procs for 182 steps with 288751 atoms

99.9% CPU use with 104 MPI tasks x 1 OpenMP threads

Minimization stats:
  Stopping criterion = energy tolerance
  Energy initial, next-to-last, final = 
     -1152448.96729805  -1152448.96901891  -1152448.96901891
  Force two-norm initial, final = 0.15541801 0.00023978512
  Force max component initial, final = 0.096216951 5.9518439e-05
  Final line search alpha, max atom move = 1.0000000 5.9518439e-05
  Iterations, force evaluations = 182 364

MPI task timing breakdown:
Section |  min time  |  avg time  |  max time  |%varavg| %total
---------------------------------------------------------------
Pair    | 0.55165    | 1.5403     | 2.0156     |  33.5 | 71.73
Neigh   | 0          | 0          | 0          |   0.0 |  0.00
Comm    | 0.036699   | 0.35452    | 1.0564     |  48.9 | 16.51
Output  | 0          | 0          | 0          |   0.0 |  0.00
Modify  | 2.1341e-05 | 0.0030029  | 0.0064925  |   2.6 |  0.14
Other   |            | 0.2496     |            |       | 11.62

Nlocal:        2776.45 ave        3954 max           0 min
Histogram: 8 4 4 0 4 12 8 0 30 34
Nghost:        3879.13 ave        5424 max         232 min
Histogram: 8 0 8 0 16 0 8 8 16 40
Neighs:        79213.4 ave      115242 max           0 min
Histogram: 8 4 4 0 10 6 8 8 24 32

Total # of neighbors = 8238198
Ave neighs/atom = 28.530457
Neighbor list builds = 0
Dangerous builds = 0
The dot product: 5.92790589384585e-07
Setting atom values ...
  1 settings made for x
  1 settings made for y
  1 settings made for z
Setting up cg style minimization ...
  Unit style    : metal
  Current step  : 815
Per MPI rank memory allocation (min/avg/max) = 5.441 | 5.816 | 6.074 Mbytes
Step PotEng KinEng TotEng v_fx v_fy v_fz 
     815     -1152449            0     -1152449  0.026978337 -0.018756538 -0.0031500552 
     983     -1152449            0     -1152449 -1.6531143e-05 -3.4820009e-05 -2.1120597e-05 
Loop time of 1.98908 on 104 procs for 168 steps with 288751 atoms

99.9% CPU use with 104 MPI tasks x 1 OpenMP threads

Minimization stats:
  Stopping criterion = energy tolerance
  Energy initial, next-to-last, final = 
     -1152448.96468326  -1152448.96686319  -1152448.96686319
  Force two-norm initial, final = 0.15906537 0.0001676904
  Force max component initial, final = 0.099279404 3.4820009e-05
  Final line search alpha, max atom move = 1.0000000 3.4820009e-05
  Iterations, force evaluations = 168 336

MPI task timing breakdown:
Section |  min time  |  avg time  |  max time  |%varavg| %total
---------------------------------------------------------------
Pair    | 0.50952    | 1.414      | 1.8465     |  32.1 | 71.09
Neigh   | 0          | 0          | 0          |   0.0 |  0.00
Comm    | 0.030387   | 0.32438    | 0.95874    |  46.6 | 16.31
Output  | 0          | 0          | 0          |   0.0 |  0.00
Modify  | 1.9773e-05 | 0.0027873  | 0.0059679  |   2.5 |  0.14
Other   |            | 0.2479     |            |       | 12.46

Nlocal:        2776.45 ave        3954 max           0 min
Histogram: 8 4 4 0 4 12 8 0 30 34
Nghost:        3879.08 ave        5424 max         232 min
Histogram: 8 0 8 0 16 0 8 8 16 40
Neighs:        79213.5 ave      115247 max           0 min
Histogram: 8 4 4 0 10 6 8 8 24 32

Total # of neighbors = 8238202
Ave neighs/atom = 28.530471
Neighbor list builds = 0
Dangerous builds = 0
The dot product: -1.38329928313887e-06
Setting atom values ...
  1 settings made for x
  1 settings made for y
  1 settings made for z
Setting up cg style minimization ...
  Unit style    : metal
  Current step  : 983
Per MPI rank memory allocation (min/avg/max) = 5.441 | 5.816 | 6.074 Mbytes
Step PotEng KinEng TotEng v_fx v_fy v_fz 
     983     -1152449            0     -1152449  0.018291398 -0.032519504 -0.0035592606 
    1000     -1152449            0     -1152449 -0.0025804819 -0.0040649122 -0.00050663546 
    1137     -1152449            0     -1152449 1.387978e-05 3.0845399e-05 3.7721391e-06 
Loop time of 1.82354 on 104 procs for 154 steps with 288751 atoms

99.9% CPU use with 104 MPI tasks x 1 OpenMP threads

Minimization stats:
  Stopping criterion = energy tolerance
  Energy initial, next-to-last, final = 
     -1152448.96246101   -1152448.9652888   -1152448.9652888
  Force two-norm initial, final = 0.18168535 0.00013636886
  Force max component initial, final = 0.088057211 3.0845399e-05
  Final line search alpha, max atom move = 1.0000000 3.0845399e-05
  Iterations, force evaluations = 154 308

MPI task timing breakdown:
Section |  min time  |  avg time  |  max time  |%varavg| %total
---------------------------------------------------------------
Pair    | 0.46849    | 1.3017     | 1.7104     |  30.8 | 71.38
Neigh   | 0          | 0          | 0          |   0.0 |  0.00
Comm    | 0.032827   | 0.2985     | 0.87934    |  44.7 | 16.37
Output  | 0.00023848 | 0.00024106 | 0.00031467 |   0.0 |  0.01
Modify  | 1.8359e-05 | 0.0025519  | 0.005458   |   2.4 |  0.14
Other   |            | 0.2205     |            |       | 12.09

Nlocal:        2776.45 ave        3956 max           0 min
Histogram: 8 4 4 0 4 12 8 0 30 34
Nghost:        3879.10 ave        5424 max         232 min
Histogram: 8 0 8 0 16 0 8 8 16 40
Neighs:        79213.6 ave      115304 max           0 min
Histogram: 8 4 4 0 10 6 8 8 24 32

Total # of neighbors = 8238211
Ave neighs/atom = 28.530502
Neighbor list builds = 0
Dangerous builds = 0
The dot product: 8.2156342980631e-07
Setting atom values ...
  1 settings made for x
  1 settings made for y
  1 settings made for z
Setting up cg style minimization ...
  Unit style    : metal
  Current step  : 1137
Per MPI rank memory allocation (min/avg/max) = 5.441 | 5.816 | 6.074 Mbytes
Step PotEng KinEng TotEng v_fx v_fy v_fz 
    1137     -1152449            0     -1152449 0.0064570087 -0.051540011 0.0040075815 
    1342     -1152449            0     -1152449 -6.9478899e-06 -1.5241506e-05 2.0266286e-06 
Loop time of 2.39788 on 104 procs for 205 steps with 288751 atoms

99.9% CPU use with 104 MPI tasks x 1 OpenMP threads

Minimization stats:
  Stopping criterion = energy tolerance
  Energy initial, next-to-last, final = 
     -1152448.96074246  -1152448.96401565  -1152448.96401565
  Force two-norm initial, final = 0.20202375 0.0001646437
  Force max component initial, final = 0.084621388 3.1707106e-05
  Final line search alpha, max atom move = 1.0000000 3.1707106e-05
  Iterations, force evaluations = 205 410

MPI task timing breakdown:
Section |  min time  |  avg time  |  max time  |%varavg| %total
---------------------------------------------------------------
Pair    | 0.62168    | 1.7226     | 2.2491     |  35.4 | 71.84
Neigh   | 0          | 0          | 0          |   0.0 |  0.00
Comm    | 0.037415   | 0.39296    | 1.1698     |  51.8 | 16.39
Output  | 0          | 0          | 0          |   0.0 |  0.00
Modify  | 2.4559e-05 | 0.0033858  | 0.0072401  |   2.7 |  0.14
Other   |            | 0.279      |            |       | 11.63

Nlocal:        2776.45 ave        3955 max           0 min
Histogram: 8 4 4 0 4 12 8 0 30 34
Nghost:        3879.10 ave        5424 max         232 min
Histogram: 8 0 8 0 16 0 8 8 16 40
Neighs:        79213.6 ave      115280 max           0 min
Histogram: 8 4 4 0 10 6 8 8 24 32

Total # of neighbors = 8238212
Ave neighs/atom = 28.530506
Neighbor list builds = 0
Dangerous builds = 0
The dot product: -2.44628148560822e-07
Setting atom values ...
  1 settings made for x
  1 settings made for y
  1 settings made for z
Setting up cg style minimization ...
  Unit style    : metal
  Current step  : 1342
Per MPI rank memory allocation (min/avg/max) = 5.441 | 5.816 | 6.074 Mbytes
Step PotEng KinEng TotEng v_fx v_fy v_fz 
    1342     -1152449            0     -1152449 -5.9765139e-05 -0.061204149  0.012072108 
    1573     -1152449            0     -1152449 -5.3413203e-08 1.1093636e-10 7.7963285e-09 
Loop time of 2.72113 on 104 procs for 231 steps with 288751 atoms

99.9% CPU use with 104 MPI tasks x 1 OpenMP threads

Minimization stats:
  Stopping criterion = energy tolerance
  Energy initial, next-to-last, final = 
     -1152448.95983818  -1152448.96231858  -1152448.96231858
  Force two-norm initial, final = 0.21413233 3.4261403e-05
  Force max component initial, final = 0.095197734 8.0088873e-06
  Final line search alpha, max atom move = 1.0000000 8.0088873e-06
  Iterations, force evaluations = 231 462

MPI task timing breakdown:
Section |  min time  |  avg time  |  max time  |%varavg| %total
---------------------------------------------------------------
Pair    | 0.70559    | 1.9517     | 2.5451     |  37.5 | 71.72
Neigh   | 0          | 0          | 0          |   0.0 |  0.00
Comm    | 0.041123   | 0.44317    | 1.3134     |  55.0 | 16.29
Output  | 0          | 0          | 0          |   0.0 |  0.00
Modify  | 2.6662e-05 | 0.0038182  | 0.0081409  |   2.9 |  0.14
Other   |            | 0.3224     |            |       | 11.85

Nlocal:        2776.45 ave        3955 max           0 min
Histogram: 8 4 4 0 4 12 8 0 30 34
Nghost:        3879.10 ave        5424 max         232 min
Histogram: 8 0 8 0 16 0 8 8 16 40
Neighs:        79213.6 ave      115305 max           0 min
Histogram: 8 4 4 0 10 6 8 8 24 32

Total # of neighbors = 8238213
Ave neighs/atom = 28.530509
Neighbor list builds = 0
Dangerous builds = 0
The dot product: -2.21555722786704e-11
Setting up cg style minimization ...
  Unit style    : metal
  Current step  : 1573
Per MPI rank memory allocation (min/avg/max) = 5.441 | 5.816 | 6.074 Mbytes
Step PotEng KinEng TotEng v_fx v_fy v_fz 
    1573     -1152449            0     -1152449 -0.014568149  -0.01961699 -0.099527918 
    1827     -1152449            0     -1152449 -3.9204654e-06 -1.4193121e-05 -1.151503e-05 
Loop time of 2.97511 on 104 procs for 254 steps with 288751 atoms

99.9% CPU use with 104 MPI tasks x 1 OpenMP threads

Minimization stats:
  Stopping criterion = energy tolerance
  Energy initial, next-to-last, final = 
     -1152448.96231858  -1152448.97218783  -1152448.97218783
  Force two-norm initial, final = 0.10248349 0.00016994698
  Force max component initial, final = 0.099527918 2.8484269e-05
  Final line search alpha, max atom move = 1.0000000 2.8484269e-05
  Iterations, force evaluations = 254 508

MPI task timing breakdown:
Section |  min time  |  avg time  |  max time  |%varavg| %total
---------------------------------------------------------------
Pair    | 0.77428    | 2.1361     | 2.7837     |  39.4 | 71.80
Neigh   | 1.0657e-05 | 0.0029168  | 0.0042404  |   2.2 |  0.10
Comm    | 0.050094   | 0.48583    | 1.4462     |  58.1 | 16.33
Output  | 0          | 0          | 0          |   0.0 |  0.00
Modify  | 2.839e-05  | 0.0027327  | 0.0070054  |   3.3 |  0.09
Other   |            | 0.3475     |            |       | 11.68

Nlocal:        2776.45 ave        3955 max           0 min
Histogram: 8 4 4 0 4 12 8 0 30 34
Nghost:        3879.12 ave        5424 max         232 min
Histogram: 8 0 8 0 16 0 8 8 16 40
Neighs:        79213.7 ave      115290 max           0 min
Histogram: 8 4 4 0 10 6 8 8 24 32

Total # of neighbors = 8238220
Ave neighs/atom = 28.530533
Neighbor list builds = 1
Dangerous builds = 0
OMP_NUM_THREADS environment is not set. Defaulting to 1 thread. (../comm.cpp:94)
  using 1 OpenMP thread(s) per MPI task
Reading data file ...
  orthogonal box = (-122.39241 -121.13707 -37.090501) to (122.39241 121.13707 37.090501)
  13 by 4 by 2 MPI processor grid
  reading atoms ...
  288751 atoms
  read_data CPU = 0.347 seconds
199981 atoms in group inner
88770 atoms in group outer
1 atoms in group carbon
Neighbor list info ...
  update every 1 steps, delay 0 steps, check yes
  max neighbors/atom: 2000, page size: 100000
  master list distance cutoff = 5.6
  ghost atom cutoff = 5.6
  binsize = 2.8, bins = 88 87 27
  1 neighbor lists, perpetual/occasional/extra = 1 0 0
  (1) pair eam/alloy, perpetual
      attributes: half, newton on
      pair build: half/bin/atomonly/newton
      stencil: half/bin/3d/newton
      bin: standard
Setting up cg style minimization ...
  Unit style    : metal
  Current step  : 0
Per MPI rank memory allocation (min/avg/max) = 5.441 | 5.816 | 6.074 Mbytes
Step v_fx v_fy v_fz PotEng KinEng TotEng 
       0     12.79573    23.557461    7.9194462   -1152441.7            0   -1152441.7 
     241 5.2888743e-06 9.8785091e-06 1.2236747e-05     -1152449            0     -1152449 
Loop time of 2.85093 on 104 procs for 241 steps with 288751 atoms

99.9% CPU use with 104 MPI tasks x 1 OpenMP threads

Minimization stats:
  Stopping criterion = energy tolerance
  Energy initial, next-to-last, final = 
     -1152441.72405151  -1152448.97218784  -1152448.97218784
  Force two-norm initial, final = 45.705926 0.00013012599
  Force max component initial, final = 29.894133 2.2233225e-05
  Final line search alpha, max atom move = 1.0000000 2.2233225e-05
  Iterations, force evaluations = 241 478

MPI task timing breakdown:
Section |  min time  |  avg time  |  max time  |%varavg| %total
---------------------------------------------------------------
Pair    | 0.76472    | 2.0247     | 2.6266     |  37.5 | 71.02
Neigh   | 0.00010223 | 0.029368   | 0.042583   |   7.1 |  1.03
Comm    | 0.044874   | 0.46134    | 1.3691     |  56.0 | 16.18
Output  | 0          | 0          | 0          |   0.0 |  0.00
Modify  | 2.836e-05  | 0.0025724  | 0.00658    |   3.2 |  0.09
Other   |            | 0.3329     |            |       | 11.68

Nlocal:        2776.45 ave        3955 max           0 min
Histogram: 8 4 4 0 4 12 8 0 30 34
Nghost:        3879.04 ave        5424 max         232 min
Histogram: 8 0 8 0 16 0 8 8 16 40
Neighs:        79213.6 ave      115282 max           0 min
Histogram: 8 4 4 0 10 6 8 8 24 32

Total # of neighbors = 8238214
Ave neighs/atom = 28.530512
Neighbor list builds = 10
Dangerous builds = 0
Setting atom values ...
  1 settings made for x
  1 settings made for y
  1 settings made for z
Setting up cg style minimization ...
  Unit style    : metal
  Current step  : 241
Per MPI rank memory allocation (min/avg/max) = 5.441 | 5.816 | 6.074 Mbytes
Step PotEng KinEng TotEng v_fx v_fy v_fz 
     241     -1152449            0     -1152449 0.0069754697 0.0077411079  0.041277371 
     428     -1152449            0     -1152449 -2.8947313e-07 -3.0895002e-07 -3.294437e-07 
Loop time of 2.20157 on 104 procs for 187 steps with 288751 atoms

99.9% CPU use with 104 MPI tasks x 1 OpenMP threads

Minimization stats:
  Stopping criterion = energy tolerance
  Energy initial, next-to-last, final = 
     -1152448.97003492  -1152448.97137247  -1152448.97137247
  Force two-norm initial, final = 0.16384016 2.5472545e-05
  Force max component initial, final = 0.097400086 9.0975980e-07
  Final line search alpha, max atom move = 1.0000000 9.0975980e-07
  Iterations, force evaluations = 187 374

MPI task timing breakdown:
Section |  min time  |  avg time  |  max time  |%varavg| %total
---------------------------------------------------------------
Pair    | 0.56134    | 1.5724     | 2.0451     |  34.0 | 71.42
Neigh   | 0          | 0          | 0          |   0.0 |  0.00
Comm    | 0.032681   | 0.35764    | 1.0583     |  49.6 | 16.24
Output  | 0          | 0          | 0          |   0.0 |  0.00
Modify  | 2.307e-05  | 0.003084   | 0.0065925  |   2.6 |  0.14
Other   |            | 0.2684     |            |       | 12.19

Nlocal:        2776.45 ave        3954 max           0 min
Histogram: 8 4 4 0 4 12 8 0 30 34
Nghost:        3879.12 ave        5424 max         232 min
Histogram: 8 0 8 0 16 0 8 8 16 40
Neighs:        79213.5 ave      115259 max           0 min
Histogram: 8 4 4 0 10 6 8 8 24 32

Total # of neighbors = 8238205
Ave neighs/atom = 28.530481
Neighbor list builds = 0
Dangerous builds = 0
Setting atom values ...
  1 settings made for x
  1 settings made for y
  1 settings made for z
Setting up cg style minimization ...
  Unit style    : metal
  Current step  : 428
Per MPI rank memory allocation (min/avg/max) = 5.441 | 5.816 | 6.074 Mbytes
Step PotEng KinEng TotEng v_fx v_fy v_fz 
     428     -1152449            0     -1152449 0.00018893836 0.0066971592  0.039834825 
     622     -1152449            0     -1152449 -5.9889717e-06 -7.4654829e-06 -1.0187828e-05 
Loop time of 2.27123 on 104 procs for 194 steps with 288751 atoms

99.9% CPU use with 104 MPI tasks x 1 OpenMP threads

Minimization stats:
  Stopping criterion = energy tolerance
  Energy initial, next-to-last, final = 
      -1152448.9680915  -1152448.96922771  -1152448.96922771
  Force two-norm initial, final = 0.14823285 8.5737792e-05
  Force max component initial, final = 0.089154817 1.0187828e-05
  Final line search alpha, max atom move = 1.0000000 1.0187828e-05
  Iterations, force evaluations = 194 388

MPI task timing breakdown:
Section |  min time  |  avg time  |  max time  |%varavg| %total
---------------------------------------------------------------
Pair    | 0.5849     | 1.6361     | 2.138      |  34.7 | 72.04
Neigh   | 0          | 0          | 0          |   0.0 |  0.00
Comm    | 0.034834   | 0.37137    | 1.1056     |  50.8 | 16.35
Output  | 0          | 0          | 0          |   0.0 |  0.00
Modify  | 2.3709e-05 | 0.0031925  | 0.006825   |   2.7 |  0.14
Other   |            | 0.2606     |            |       | 11.47

Nlocal:        2776.45 ave        3954 max           0 min
Histogram: 8 4 4 0 4 12 8 0 30 34
Nghost:        3879.12 ave        5424 max         232 min
Histogram: 8 0 8 0 16 0 8 8 16 40
Neighs:        79213.5 ave      115258 max           0 min
Histogram: 8 4 4 0 10 6 8 8 24 32

Total # of neighbors = 8238204
Ave neighs/atom = 28.530478
Neighbor list builds = 0
Dangerous builds = 0
The dot product: -5.59395139748831e-08
Setting atom values ...
  1 settings made for x
  1 settings made for y
  1 settings made for z
Setting up cg style minimization ...
  Unit style    : metal
  Current step  : 622
Per MPI rank memory allocation (min/avg/max) = 5.441 | 5.816 | 6.074 Mbytes
Step PotEng KinEng TotEng v_fx v_fy v_fz 
     622     -1152449            0     -1152449 -0.010977676 0.0071718871  0.041408041 
     824     -1152449            0     -1152449 1.4883832e-05 2.759766e-05 3.6565133e-05 
Loop time of 2.35814 on 104 procs for 202 steps with 288751 atoms

99.9% CPU use with 104 MPI tasks x 1 OpenMP threads

Minimization stats:
  Stopping criterion = energy tolerance
  Energy initial, next-to-last, final = 
     -1152448.96471828  -1152448.96620705  -1152448.96620705
  Force two-norm initial, final = 0.14542707 0.00018216704
  Force max component initial, final = 0.08361291 4.1609448e-05
  Final line search alpha, max atom move = 1.0000000 4.1609448e-05
  Iterations, force evaluations = 202 404

MPI task timing breakdown:
Section |  min time  |  avg time  |  max time  |%varavg| %total
---------------------------------------------------------------
Pair    | 0.61106    | 1.698      | 2.2109     |  35.2 | 72.01
Neigh   | 0          | 0          | 0          |   0.0 |  0.00
Comm    | 0.037703   | 0.38285    | 1.1436     |  51.9 | 16.24
Output  | 0          | 0          | 0          |   0.0 |  0.00
Modify  | 2.4491e-05 | 0.0033329  | 0.007131   |   2.7 |  0.14
Other   |            | 0.2739     |            |       | 11.62

Nlocal:        2776.45 ave        3954 max           0 min
Histogram: 8 4 4 0 4 12 8 0 30 34
Nghost:        3879.12 ave        5424 max         232 min
Histogram: 8 0 8 0 16 0 8 8 16 40
Neighs:        79213.5 ave      115258 max           0 min
Histogram: 8 4 4 0 10 6 8 8 24 32

Total # of neighbors = 8238201
Ave neighs/atom = 28.530467
Neighbor list builds = 0
Dangerous builds = 0
The dot product: 7.04867836809344e-07
Setting atom values ...
  1 settings made for x
  1 settings made for y
  1 settings made for z
Setting up cg style minimization ...
  Unit style    : metal
  Current step  : 824
Per MPI rank memory allocation (min/avg/max) = 5.441 | 5.816 | 6.074 Mbytes
Step PotEng KinEng TotEng v_fx v_fy v_fz 
     824     -1152449            0     -1152449 -0.029537161  0.011377843  0.038389828 
    1000     -1152449            0     -1152449 9.1713598e-06 3.3338544e-05 2.9413616e-05 
    1041     -1152449            0     -1152449 -7.5613026e-06 -2.8454478e-05 -2.5335807e-05 
Loop time of 2.53802 on 104 procs for 217 steps with 288751 atoms

99.9% CPU use with 104 MPI tasks x 1 OpenMP threads

Minimization stats:
  Stopping criterion = energy tolerance
  Energy initial, next-to-last, final = 
     -1152448.96086113  -1152448.96344442  -1152448.96344442
  Force two-norm initial, final = 0.14803537 0.00012748513
  Force max component initial, final = 0.065685706 2.8454478e-05
  Final line search alpha, max atom move = 1.0000000 2.8454478e-05
  Iterations, force evaluations = 217 434

MPI task timing breakdown:
Section |  min time  |  avg time  |  max time  |%varavg| %total
---------------------------------------------------------------
Pair    | 0.65632    | 1.8324     | 2.3831     |  36.8 | 72.20
Neigh   | 0          | 0          | 0          |   0.0 |  0.00
Comm    | 0.036073   | 0.41633    | 1.234      |  53.9 | 16.40
Output  | 0.00025507 | 0.00025933 | 0.00040613 |   0.0 |  0.01
Modify  | 2.6543e-05 | 0.0035739  | 0.0076593  |   2.8 |  0.14
Other   |            | 0.2855     |            |       | 11.25

Nlocal:        2776.45 ave        3953 max           0 min
Histogram: 8 4 4 0 4 12 8 0 30 34
Nghost:        3879.13 ave        5424 max         232 min
Histogram: 8 0 8 0 16 0 8 8 16 40
Neighs:        79213.5 ave      115213 max           0 min
Histogram: 8 4 4 0 10 6 8 8 24 32

Total # of neighbors = 8238199
Ave neighs/atom = 28.530461
Neighbor list builds = 0
Dangerous builds = 0
The dot product: -1.81077906543713e-06
Setting atom values ...
  1 settings made for x
  1 settings made for y
  1 settings made for z
Setting up cg style minimization ...
  Unit style    : metal
  Current step  : 1041
Per MPI rank memory allocation (min/avg/max) = 5.441 | 5.816 | 6.074 Mbytes
Step PotEng KinEng TotEng v_fx v_fy v_fz 
    1041     -1152449            0     -1152449  -0.03564311 0.0057655054  0.013479854 
    1287     -1152449            0     -1152449 -5.5482634e-06 -3.1466604e-05 -7.2906746e-06 
Loop time of 2.89638 on 104 procs for 246 steps with 288751 atoms

99.9% CPU use with 104 MPI tasks x 1 OpenMP threads

Minimization stats:
  Stopping criterion = energy tolerance
  Energy initial, next-to-last, final = 
     -1152448.95838965  -1152448.96342573  -1152448.96342573
  Force two-norm initial, final = 0.17232513 0.0001167592
  Force max component initial, final = 0.080155996 3.6438174e-05
  Final line search alpha, max atom move = 1.0000000 3.6438174e-05
  Iterations, force evaluations = 246 492

MPI task timing breakdown:
Section |  min time  |  avg time  |  max time  |%varavg| %total
---------------------------------------------------------------
Pair    | 0.74267    | 2.0709     | 2.6882     |  38.9 | 71.50
Neigh   | 0          | 0          | 0          |   0.0 |  0.00
Comm    | 0.046564   | 0.4716     | 1.3916     |  56.8 | 16.28
Output  | 0          | 0          | 0          |   0.0 |  0.00
Modify  | 3.0188e-05 | 0.0040515  | 0.0086418  |   3.0 |  0.14
Other   |            | 0.3499     |            |       | 12.08

Nlocal:        2776.45 ave        3955 max           0 min
Histogram: 8 4 4 0 4 12 8 0 30 34
Nghost:        3879.10 ave        5424 max         232 min
Histogram: 8 0 8 0 16 0 8 8 16 40
Neighs:        79213.6 ave      115280 max           0 min
Histogram: 8 4 4 0 10 6 8 8 24 32

Total # of neighbors = 8238211
Ave neighs/atom = 28.530502
Neighbor list builds = 0
Dangerous builds = 0
The dot product: -1.54287612202486e-06
Setting atom values ...
  1 settings made for x
  1 settings made for y
  1 settings made for z
Setting up cg style minimization ...
  Unit style    : metal
  Current step  : 1287
Per MPI rank memory allocation (min/avg/max) = 5.441 | 5.816 | 6.074 Mbytes
Step PotEng KinEng TotEng v_fx v_fy v_fz 
    1287     -1152449            0     -1152449 -0.010858154  -0.04579342 0.0073257764 
    1478     -1152449            0     -1152449 -3.9300856e-06 -8.8396774e-06 1.7480706e-06 
Loop time of 2.22876 on 104 procs for 191 steps with 288751 atoms

99.9% CPU use with 104 MPI tasks x 1 OpenMP threads

Minimization stats:
  Stopping criterion = energy tolerance
  Energy initial, next-to-last, final = 
     -1152448.95926245  -1152448.96171078  -1152448.96171078
  Force two-norm initial, final = 0.20527721 0.00013239726
  Force max component initial, final = 0.091288669 1.6810630e-05
  Final line search alpha, max atom move = 1.0000000 1.6810630e-05
  Iterations, force evaluations = 191 382

MPI task timing breakdown:
Section |  min time  |  avg time  |  max time  |%varavg| %total
---------------------------------------------------------------
Pair    | 0.57737    | 1.6109     | 2.0996     |  34.4 | 72.28
Neigh   | 0          | 0          | 0          |   0.0 |  0.00
Comm    | 0.034251   | 0.36538    | 1.0942     |  50.6 | 16.39
Output  | 0          | 0          | 0          |   0.0 |  0.00
Modify  | 2.5326e-05 | 0.0031525  | 0.0067433  |   2.6 |  0.14
Other   |            | 0.2493     |            |       | 11.19

Nlocal:        2776.45 ave        3955 max           0 min
Histogram: 8 4 4 0 4 12 8 0 30 34
Nghost:        3879.10 ave        5424 max         232 min
Histogram: 8 0 8 0 16 0 8 8 16 40
Neighs:        79213.6 ave      115301 max           0 min
Histogram: 8 4 4 0 10 6 8 8 24 32

Total # of neighbors = 8238213
Ave neighs/atom = 28.530509
Neighbor list builds = 0
Dangerous builds = 0
The dot product: -3.37476311571166e-08
Setting atom values ...
  1 settings made for x
  1 settings made for y
  1 settings made for z
Setting up cg style minimization ...
  Unit style    : metal
  Current step  : 1478
Per MPI rank memory allocation (min/avg/max) = 5.441 | 5.816 | 6.074 Mbytes
Step PotEng KinEng TotEng v_fx v_fy v_fz 
    1478     -1152449            0     -1152449 -0.0059113043  -0.06965362  0.011707475 
    1670     -1152449            0     -1152449 1.0285801e-05 2.2989164e-05 -5.1473101e-06 
Loop time of 2.23585 on 104 procs for 192 steps with 288751 atoms

99.9% CPU use with 104 MPI tasks x 1 OpenMP threads

Minimization stats:
  Stopping criterion = energy tolerance
  Energy initial, next-to-last, final = 
     -1152448.95677797  -1152448.95923658  -1152448.95923658
  Force two-norm initial, final = 0.2140174 0.00015712607
  Force max component initial, final = 0.093737324 3.7949052e-05
  Final line search alpha, max atom move = 1.0000000 3.7949052e-05
  Iterations, force evaluations = 192 384

MPI task timing breakdown:
Section |  min time  |  avg time  |  max time  |%varavg| %total
---------------------------------------------------------------
Pair    | 0.57949    | 1.6148     | 2.1008     |  34.3 | 72.22
Neigh   | 0          | 0          | 0          |   0.0 |  0.00
Comm    | 0.034027   | 0.36484    | 1.0887     |  50.6 | 16.32
Output  | 0          | 0          | 0          |   0.0 |  0.00
Modify  | 2.3797e-05 | 0.0031604  | 0.0067621  |   2.6 |  0.14
Other   |            | 0.253      |            |       | 11.32

Nlocal:        2776.45 ave        3955 max           0 min
Histogram: 8 4 4 0 4 12 8 0 30 34
Nghost:        3879.10 ave        5424 max         232 min
Histogram: 8 0 8 0 16 0 8 8 16 40
Neighs:        79213.5 ave      115307 max           0 min
Histogram: 8 4 4 0 10 6 8 8 24 32

Total # of neighbors = 8238209
Ave neighs/atom = 28.530495
Neighbor list builds = 0
Dangerous builds = 0
The dot product: -6.40186283752088e-08
Setting atom values ...
  1 settings made for x
  1 settings made for y
  1 settings made for z
Setting up cg style minimization ...
  Unit style    : metal
  Current step  : 1670
Per MPI rank memory allocation (min/avg/max) = 5.441 | 5.816 | 6.074 Mbytes
Step PotEng KinEng TotEng v_fx v_fy v_fz 
    1670     -1152449            0     -1152449 -0.0047845271   -0.0779723  0.011747423 
    1851     -1152449            0     -1152449 -5.9742041e-06 -1.2178865e-05 2.6027588e-06 
Loop time of 2.12172 on 104 procs for 181 steps with 288751 atoms

99.9% CPU use with 104 MPI tasks x 1 OpenMP threads

Minimization stats:
  Stopping criterion = energy tolerance
  Energy initial, next-to-last, final = 
     -1152448.95389863    -1152448.956329    -1152448.956329
  Force two-norm initial, final = 0.215702 0.00022062385
  Force max component initial, final = 0.093025186 3.5051089e-05
  Final line search alpha, max atom move = 1.0000000 3.5051089e-05
  Iterations, force evaluations = 181 362

MPI task timing breakdown:
Section |  min time  |  avg time  |  max time  |%varavg| %total
---------------------------------------------------------------
Pair    | 0.54493    | 1.5242     | 2.0019     |  33.5 | 71.84
Neigh   | 0          | 0          | 0          |   0.0 |  0.00
Comm    | 0.034292   | 0.34644    | 1.0319     |  49.0 | 16.33
Output  | 0          | 0          | 0          |   0.0 |  0.00
Modify  | 2.2118e-05 | 0.0029868  | 0.0063758  |   2.6 |  0.14
Other   |            | 0.2481     |            |       | 11.69

Nlocal:        2776.45 ave        3954 max           0 min
Histogram: 8 4 4 0 4 12 8 0 30 34
Nghost:        3879.10 ave        5424 max         232 min
Histogram: 8 0 8 0 16 0 8 8 16 40
Neighs:        79213.5 ave      115266 max           0 min
Histogram: 8 4 4 0 10 6 8 8 24 32

Total # of neighbors = 8238206
Ave neighs/atom = 28.530485
Neighbor list builds = 0
Dangerous builds = 0
The dot product: 6.86295678501945e-08
Setting atom values ...
  1 settings made for x
  1 settings made for y
  1 settings made for z
Setting up cg style minimization ...
  Unit style    : metal
  Current step  : 1851
Per MPI rank memory allocation (min/avg/max) = 5.441 | 5.816 | 6.074 Mbytes
Step PotEng KinEng TotEng v_fx v_fy v_fz 
    1851     -1152449            0     -1152449 -0.0048680933 -0.083820407  0.010220949 
    2000     -1152449            0     -1152449 -1.2076897e-05 -2.860051e-05 4.9794772e-06 
    2034     -1152449            0     -1152449 -6.9802588e-06 -1.3503556e-05 2.5341232e-06 
Loop time of 2.13338 on 104 procs for 183 steps with 288751 atoms

99.9% CPU use with 104 MPI tasks x 1 OpenMP threads

Minimization stats:
  Stopping criterion = energy tolerance
  Energy initial, next-to-last, final = 
     -1152448.95039733  -1152448.95264947  -1152448.95264947
  Force two-norm initial, final = 0.21551775 0.00013589249
  Force max component initial, final = 0.091337446 2.9353782e-05
  Final line search alpha, max atom move = 1.0000000 2.9353782e-05
  Iterations, force evaluations = 183 366

MPI task timing breakdown:
Section |  min time  |  avg time  |  max time  |%varavg| %total
---------------------------------------------------------------
Pair    | 0.55423    | 1.5418     | 2.005      |  33.6 | 72.27
Neigh   | 0          | 0          | 0          |   0.0 |  0.00
Comm    | 0.033431   | 0.34771    | 1.0417     |  49.7 | 16.30
Output  | 0.00024419 | 0.00025218 | 0.00040307 |   0.0 |  0.01
Modify  | 2.2995e-05 | 0.0030234  | 0.0064615  |   2.6 |  0.14
Other   |            | 0.2406     |            |       | 11.28

Nlocal:        2776.45 ave        3955 max           0 min
Histogram: 8 4 4 0 4 12 8 0 30 34
Nghost:        3879.10 ave        5424 max         232 min
Histogram: 8 0 8 0 16 0 8 8 16 40
Neighs:        79213.5 ave      115284 max           0 min
Histogram: 8 4 4 0 10 6 8 8 24 32

Total # of neighbors = 8238201
Ave neighs/atom = 28.530467
Neighbor list builds = 0
Dangerous builds = 0
The dot product: 1.07890170571895e-07
Setting atom values ...
  1 settings made for x
  1 settings made for y
  1 settings made for z
Setting up cg style minimization ...
  Unit style    : metal
  Current step  : 2034
Per MPI rank memory allocation (min/avg/max) = 5.441 | 5.816 | 6.074 Mbytes
Step PotEng KinEng TotEng v_fx v_fy v_fz 
    2034   -1152448.9            0   -1152448.9 -0.0057204828  -0.08897013 0.0077588767 
    2209   -1152448.9            0   -1152448.9 6.4475141e-06 1.6084173e-05 -2.1481565e-06 
Loop time of 2.05875 on 104 procs for 175 steps with 288751 atoms

99.9% CPU use with 104 MPI tasks x 1 OpenMP threads

Minimization stats:
  Stopping criterion = energy tolerance
  Energy initial, next-to-last, final = 
        -1152448.94598  -1152448.94820122  -1152448.94820122
  Force two-norm initial, final = 0.21441306 0.00014467288
  Force max component initial, final = 0.08897013 2.5612598e-05
  Final line search alpha, max atom move = 1.0000000 2.5612598e-05
  Iterations, force evaluations = 175 350

MPI task timing breakdown:
Section |  min time  |  avg time  |  max time  |%varavg| %total
---------------------------------------------------------------
Pair    | 0.52952    | 1.4781     | 1.9386     |  33.1 | 71.79
Neigh   | 0          | 0          | 0          |   0.0 |  0.00
Comm    | 0.033565   | 0.33936    | 1.0075     |  48.3 | 16.48
Output  | 0          | 0          | 0          |   0.0 |  0.00
Modify  | 2.1412e-05 | 0.0028874  | 0.0061823  |   2.5 |  0.14
Other   |            | 0.2384     |            |       | 11.58

Nlocal:        2776.45 ave        3955 max           0 min
Histogram: 8 4 4 0 4 12 8 0 30 34
Nghost:        3879.10 ave        5426 max         232 min
Histogram: 8 0 8 0 16 0 8 8 16 40
Neighs:        79213.5 ave      115282 max           0 min
Histogram: 8 4 4 0 10 6 8 8 24 32

Total # of neighbors = 8238202
Ave neighs/atom = 28.530471
Neighbor list builds = 0
Dangerous builds = 0
The dot product: -1.47977618973988e-07
Setting atom values ...
  1 settings made for x
  1 settings made for y
  1 settings made for z
Setting up cg style minimization ...
  Unit style    : metal
  Current step  : 2209
Per MPI rank memory allocation (min/avg/max) = 5.441 | 5.816 | 6.074 Mbytes
Step PotEng KinEng TotEng v_fx v_fy v_fz 
    2209   -1152448.9            0   -1152448.9 -0.0067913529 -0.092551822 0.0047128727 
    2416   -1152448.9            0   -1152448.9 -3.2910529e-07 -1.0482626e-08 4.3316552e-08 
Loop time of 2.40985 on 104 procs for 207 steps with 288751 atoms

99.9% CPU use with 104 MPI tasks x 1 OpenMP threads

Minimization stats:
  Stopping criterion = energy tolerance
  Energy initial, next-to-last, final = 
     -1152448.94086972  -1152448.94300591  -1152448.94300591
  Force two-norm initial, final = 0.21247724 6.8521140e-05
  Force max component initial, final = 0.092551822 7.2590540e-06
  Final line search alpha, max atom move = 1.0000000 7.2590540e-06
  Iterations, force evaluations = 207 414

MPI task timing breakdown:
Section |  min time  |  avg time  |  max time  |%varavg| %total
---------------------------------------------------------------
Pair    | 0.62595    | 1.7394     | 2.2646     |  35.7 | 72.18
Neigh   | 0          | 0          | 0          |   0.0 |  0.00
Comm    | 0.036887   | 0.3922     | 1.1702     |  52.4 | 16.27
Output  | 0          | 0          | 0          |   0.0 |  0.00
Modify  | 2.5399e-05 | 0.0034171  | 0.0073145  |   2.7 |  0.14
Other   |            | 0.2748     |            |       | 11.40

Nlocal:        2776.45 ave        3955 max           0 min
Histogram: 8 4 4 0 4 12 8 0 30 34
Nghost:        3879.10 ave        5427 max         232 min
Histogram: 8 0 8 0 16 0 8 8 16 40
Neighs:        79213.5 ave      115279 max           0 min
Histogram: 8 4 4 0 10 6 8 8 24 32

Total # of neighbors = 8238205
Ave neighs/atom = 28.530481
Neighbor list builds = 0
Dangerous builds = 0
The dot product: 4.20504335734778e-10
Setting atom values ...
  1 settings made for x
  1 settings made for y
  1 settings made for z
Setting up cg style minimization ...
  Unit style    : metal
  Current step  : 2416
Per MPI rank memory allocation (min/avg/max) = 5.441 | 5.816 | 6.074 Mbytes
Step PotEng KinEng TotEng v_fx v_fy v_fz 
    2416   -1152448.9            0   -1152448.9 -0.0063898569 -0.093899754   0.00157721 
    2635   -1152448.9            0   -1152448.9 1.0040417e-06 3.6775882e-06 -1.5694182e-07 
Loop time of 2.5661 on 104 procs for 219 steps with 288751 atoms

99.9% CPU use with 104 MPI tasks x 1 OpenMP threads

Minimization stats:
  Stopping criterion = energy tolerance
  Energy initial, next-to-last, final = 
     -1152448.93495312  -1152448.93699265  -1152448.93699265
  Force two-norm initial, final = 0.21016321 4.3134598e-05
  Force max component initial, final = 0.093899754 3.6775882e-06
  Final line search alpha, max atom move = 1.0000000 3.6775882e-06
  Iterations, force evaluations = 219 438

MPI task timing breakdown:
Section |  min time  |  avg time  |  max time  |%varavg| %total
---------------------------------------------------------------
Pair    | 0.66277    | 1.8495     | 2.4143     |  36.9 | 72.07
Neigh   | 0          | 0          | 0          |   0.0 |  0.00
Comm    | 0.038407   | 0.41953    | 1.2466     |  54.3 | 16.35
Output  | 0          | 0          | 0          |   0.0 |  0.00
Modify  | 2.6479e-05 | 0.0036099  | 0.0077223  |   2.8 |  0.14
Other   |            | 0.2934     |            |       | 11.44

Nlocal:        2776.45 ave        3955 max           0 min
Histogram: 8 4 4 0 4 12 8 0 30 34
Nghost:        3879.10 ave        5424 max         232 min
Histogram: 8 0 8 0 16 0 8 8 16 40
Neighs:        79213.5 ave      115277 max           0 min
Histogram: 8 4 4 0 10 6 8 8 24 32

Total # of neighbors = 8238203
Ave neighs/atom = 28.530474
Neighbor list builds = 0
Dangerous builds = 0
The dot product: -2.78906190277968e-08
Setting atom values ...
  1 settings made for x
  1 settings made for y
  1 settings made for z
Setting up cg style minimization ...
  Unit style    : metal
  Current step  : 2635
Per MPI rank memory allocation (min/avg/max) = 5.441 | 5.816 | 6.074 Mbytes
Step PotEng KinEng TotEng v_fx v_fy v_fz 
    2635   -1152448.9            0   -1152448.9 -0.0063386974 -0.093218372 -0.0010588437 
    2785   -1152448.9            0   -1152448.9 -1.7486452e-05 -4.0186759e-05 1.4134843e-06 
Loop time of 1.74951 on 104 procs for 150 steps with 288751 atoms

99.9% CPU use with 104 MPI tasks x 1 OpenMP threads

Minimization stats:
  Stopping criterion = energy tolerance
  Energy initial, next-to-last, final = 
     -1152448.92815996  -1152448.93010082  -1152448.93010082
  Force two-norm initial, final = 0.20759519 0.00023956702
  Force max component initial, final = 0.093218372 7.6039848e-05
  Final line search alpha, max atom move = 1.0000000 7.6039848e-05
  Iterations, force evaluations = 150 300

MPI task timing breakdown:
Section |  min time  |  avg time  |  max time  |%varavg| %total
---------------------------------------------------------------
Pair    | 0.4521     | 1.2621     | 1.6414     |  30.4 | 72.14
Neigh   | 0          | 0          | 0          |   0.0 |  0.00
Comm    | 0.02642    | 0.28479    | 0.85239    |  44.9 | 16.28
Output  | 0          | 0          | 0          |   0.0 |  0.00
Modify  | 1.8634e-05 | 0.0024769  | 0.0053256  |   2.3 |  0.14
Other   |            | 0.2001     |            |       | 11.44

Nlocal:        2776.45 ave        3955 max           0 min
Histogram: 8 4 4 0 4 12 8 0 30 34
Nghost:        3879.08 ave        5424 max         232 min
Histogram: 8 0 8 0 16 0 8 8 16 40
Neighs:        79213.5 ave      115274 max           0 min
Histogram: 8 4 4 0 10 6 8 8 24 32

Total # of neighbors = 8238200
Ave neighs/atom = 28.530464
Neighbor list builds = 0
Dangerous builds = 0
The dot product: 2.75753974080951e-07
Setting atom values ...
  1 settings made for x
  1 settings made for y
  1 settings made for z
Setting up cg style minimization ...
  Unit style    : metal
  Current step  : 2785
Per MPI rank memory allocation (min/avg/max) = 5.441 | 5.816 | 6.074 Mbytes
Step PotEng KinEng TotEng v_fx v_fy v_fz 
    2785   -1152448.9            0   -1152448.9 -0.013551963 -0.088254566 -0.0021735391 
    2951   -1152448.9            0   -1152448.9 -1.1443312e-05 -3.3501001e-05 -1.6555991e-08 
Loop time of 1.94708 on 104 procs for 166 steps with 288751 atoms

99.9% CPU use with 104 MPI tasks x 1 OpenMP threads

Minimization stats:
  Stopping criterion = energy tolerance
  Energy initial, next-to-last, final = 
      -1152448.9202325  -1152448.92211093  -1152448.92211093
  Force two-norm initial, final = 0.20375816 0.00013433821
  Force max component initial, final = 0.088254566 3.3501001e-05
  Final line search alpha, max atom move = 1.0000000 3.3501001e-05
  Iterations, force evaluations = 166 332

MPI task timing breakdown:
Section |  min time  |  avg time  |  max time  |%varavg| %total
---------------------------------------------------------------
Pair    | 0.50198    | 1.4033     | 1.825      |  32.2 | 72.07
Neigh   | 0          | 0          | 0          |   0.0 |  0.00
Comm    | 0.034382   | 0.31951    | 0.95048    |  47.3 | 16.41
Output  | 0          | 0          | 0          |   0.0 |  0.00
Modify  | 2.0366e-05 | 0.0027448  | 0.0058458  |   2.5 |  0.14
Other   |            | 0.2215     |            |       | 11.37

Nlocal:        2776.45 ave        3955 max           0 min
Histogram: 8 4 4 0 4 12 8 0 30 34
Nghost:        3879.07 ave        5424 max         232 min
Histogram: 8 0 8 0 16 0 8 8 16 40
Neighs:        79213.5 ave      115275 max           0 min
Histogram: 8 4 4 0 10 6 8 8 24 32

Total # of neighbors = 8238199
Ave neighs/atom = 28.530461
Neighbor list builds = 0
Dangerous builds = 0
The dot product: 1.935225080554e-07
Setting atom values ...
  1 settings made for x
  1 settings made for y
  1 settings made for z
Setting up cg style minimization ...
  Unit style    : metal
  Current step  : 2951
Per MPI rank memory allocation (min/avg/max) = 5.441 | 5.816 | 6.074 Mbytes
Step PotEng KinEng TotEng v_fx v_fy v_fz 
    2951   -1152448.9            0   -1152448.9 -0.020908844 -0.083350905 -0.0025472138 
    3000   -1152448.9            0   -1152448.9 4.3624702e-05 8.2146726e-05 -3.8523178e-07 
    3118   -1152448.9            0   -1152448.9 9.2209792e-06 2.2545967e-05 2.4050051e-07 
Loop time of 1.93602 on 104 procs for 167 steps with 288751 atoms

99.9% CPU use with 104 MPI tasks x 1 OpenMP threads

Minimization stats:
  Stopping criterion = energy tolerance
  Energy initial, next-to-last, final = 
      -1152448.9109474  -1152448.91281642  -1152448.91281642
  Force two-norm initial, final = 0.20140935 0.00013110426
  Force max component initial, final = 0.083350905 2.2545967e-05
  Final line search alpha, max atom move = 1.0000000 2.2545967e-05
  Iterations, force evaluations = 167 334

MPI task timing breakdown:
Section |  min time  |  avg time  |  max time  |%varavg| %total
---------------------------------------------------------------
Pair    | 0.50667    | 1.4051     | 1.8253     |  32.0 | 72.58
Neigh   | 0          | 0          | 0          |   0.0 |  0.00
Comm    | 0.030653   | 0.31767    | 0.94804    |  47.3 | 16.41
Output  | 0.00016224 | 0.00017058 | 0.0002739  |   0.0 |  0.01
Modify  | 2.092e-05  | 0.002752   | 0.0058957  |   2.5 |  0.14
Other   |            | 0.2103     |            |       | 10.86

Nlocal:        2776.45 ave        3955 max           0 min
Histogram: 8 4 4 0 4 12 8 0 30 34
Nghost:        3879.11 ave        5424 max         232 min
Histogram: 8 0 8 0 16 0 8 8 16 40
Neighs:        79213.4 ave      115271 max           0 min
Histogram: 8 4 4 0 10 6 8 8 24 32

Total # of neighbors = 8238198
Ave neighs/atom = 28.530457
Neighbor list builds = 0
Dangerous builds = 0
The dot product: -1.1168506723105e-07
Setting atom values ...
  1 settings made for x
  1 settings made for y
  1 settings made for z
Setting up cg style minimization ...
  Unit style    : metal
  Current step  : 3118
Per MPI rank memory allocation (min/avg/max) = 5.441 | 5.816 | 6.074 Mbytes
Step PotEng KinEng TotEng v_fx v_fy v_fz 
    3118   -1152448.9            0   -1152448.9 -0.024612758 -0.080760546 -0.0030873649 
    3267   -1152448.9            0   -1152448.9 -2.6850766e-06 -1.6322875e-05 -8.9917713e-07 
Loop time of 1.77696 on 104 procs for 149 steps with 288751 atoms

99.9% CPU use with 104 MPI tasks x 1 OpenMP threads

Minimization stats:
  Stopping criterion = energy tolerance
  Energy initial, next-to-last, final = 
     -1152448.90029895  -1152448.90216225  -1152448.90216225
  Force two-norm initial, final = 0.20004176 0.00027249861
  Force max component initial, final = 0.083114563 8.1911006e-05
  Final line search alpha, max atom move = 1.0000000 8.1911006e-05
  Iterations, force evaluations = 149 298

MPI task timing breakdown:
Section |  min time  |  avg time  |  max time  |%varavg| %total
---------------------------------------------------------------
Pair    | 0.46549    | 1.2619     | 1.649      |  30.0 | 71.01
Neigh   | 0          | 0          | 0          |   0.0 |  0.00
Comm    | 0.036835   | 0.29011    | 0.86476    |  43.9 | 16.33
Output  | 0          | 0          | 0          |   0.0 |  0.00
Modify  | 1.861e-05  | 0.0024646  | 0.0052879  |   2.3 |  0.14
Other   |            | 0.2225     |            |       | 12.52

Nlocal:        2776.45 ave        3955 max           0 min
Histogram: 8 4 4 0 4 12 8 0 30 34
Nghost:        3879.11 ave        5424 max         232 min
Histogram: 8 0 8 0 16 0 8 8 16 40
Neighs:        79213.5 ave      115274 max           0 min
Histogram: 8 4 4 0 10 6 8 8 24 32

Total # of neighbors = 8238199
Ave neighs/atom = 28.530461
Neighbor list builds = 0
Dangerous builds = 0
The dot product: 5.89054844050885e-08
Setting atom values ...
  1 settings made for x
  1 settings made for y
  1 settings made for z
Setting up cg style minimization ...
  Unit style    : metal
  Current step  : 3267
Per MPI rank memory allocation (min/avg/max) = 5.441 | 5.816 | 6.074 Mbytes
Step PotEng KinEng TotEng v_fx v_fy v_fz 
    3267   -1152448.9            0   -1152448.9 -0.026921892 -0.078681445 -0.003549848 
    3501   -1152448.9            0   -1152448.9 -6.0410929e-07 -1.9401462e-06 -9.4359309e-08 
Loop time of 2.72058 on 104 procs for 234 steps with 288751 atoms

99.9% CPU use with 104 MPI tasks x 1 OpenMP threads

Minimization stats:
  Stopping criterion = energy tolerance
  Energy initial, next-to-last, final = 
      -1152448.8882951   -1152448.8901798   -1152448.8901798
  Force two-norm initial, final = 0.19920749 2.5413002e-05
  Force max component initial, final = 0.084700375 2.7668293e-06
  Final line search alpha, max atom move = 1.0000000 2.7668293e-06
  Iterations, force evaluations = 234 468

MPI task timing breakdown:
Section |  min time  |  avg time  |  max time  |%varavg| %total
---------------------------------------------------------------
Pair    | 0.71125    | 1.9707     | 2.5568     |  37.8 | 72.44
Neigh   | 0          | 0          | 0          |   0.0 |  0.00
Comm    | 0.042503   | 0.44424    | 1.3306     |  56.2 | 16.33
Output  | 0          | 0          | 0          |   0.0 |  0.00
Modify  | 2.8821e-05 | 0.0038538  | 0.008253   |   2.9 |  0.14
Other   |            | 0.3017     |            |       | 11.09

Nlocal:        2776.45 ave        3955 max           0 min
Histogram: 8 4 4 0 4 12 8 0 30 34
Nghost:        3879.09 ave        5424 max         232 min
Histogram: 8 0 8 0 16 0 8 8 16 40
Neighs:        79213.4 ave      115276 max           0 min
Histogram: 8 4 4 0 10 6 8 8 24 32

Total # of neighbors = 8238198
Ave neighs/atom = 28.530457
Neighbor list builds = 0
Dangerous builds = 0
The dot product: 4.22239415182756e-09
Setting atom values ...
  1 settings made for x
  1 settings made for y
  1 settings made for z
Setting up cg style minimization ...
  Unit style    : metal
  Current step  : 3501
Per MPI rank memory allocation (min/avg/max) = 5.441 | 5.816 | 6.074 Mbytes
Step PotEng KinEng TotEng v_fx v_fy v_fz 
    3501   -1152448.9            0   -1152448.9 -0.027659242 -0.075528038 -0.0036622166 
    3644   -1152448.9            0   -1152448.9 2.171669e-05 6.0909248e-05 3.0182829e-06 
Loop time of 1.68052 on 104 procs for 143 steps with 288751 atoms

99.9% CPU use with 104 MPI tasks x 1 OpenMP threads

Minimization stats:
  Stopping criterion = energy tolerance
  Energy initial, next-to-last, final = 
     -1152448.87503624  -1152448.87726112  -1152448.87726112
  Force two-norm initial, final = 0.19817343 0.00020903616
  Force max component initial, final = 0.085952003 6.2815761e-05
  Final line search alpha, max atom move = 1.0000000 6.2815761e-05
  Iterations, force evaluations = 143 286

MPI task timing breakdown:
Section |  min time  |  avg time  |  max time  |%varavg| %total
---------------------------------------------------------------
Pair    | 0.43254    | 1.2089     | 1.5841     |  29.9 | 71.94
Neigh   | 0          | 0          | 0          |   0.0 |  0.00
Comm    | 0.023496   | 0.27675    | 0.82023    |  43.5 | 16.47
Output  | 0          | 0          | 0          |   0.0 |  0.00
Modify  | 1.8133e-05 | 0.0023606  | 0.0050654  |   2.3 |  0.14
Other   |            | 0.1925     |            |       | 11.45

Nlocal:        2776.45 ave        3955 max           0 min
Histogram: 8 4 4 0 4 12 8 0 30 34
Nghost:        3879.09 ave        5424 max         232 min
Histogram: 8 0 8 0 16 0 8 8 16 40
Neighs:        79213.4 ave      115282 max           0 min
Histogram: 8 4 4 0 10 6 8 8 24 32

Total # of neighbors = 8238197
Ave neighs/atom = 28.530454
Neighbor list builds = 0
Dangerous builds = 0
The dot product: 8.21752245596613e-07
Setting atom values ...
  1 settings made for x
  1 settings made for y
  1 settings made for z
Setting up cg style minimization ...
  Unit style    : metal
  Current step  : 3644
Per MPI rank memory allocation (min/avg/max) = 5.441 | 5.816 | 6.074 Mbytes
Step PotEng KinEng TotEng v_fx v_fy v_fz 
    3644   -1152448.9            0   -1152448.9 -0.016309017 -0.056082988 -0.0012967333 
    3860   -1152448.9            0   -1152448.9 -1.5150287e-06 -8.5608824e-06 -3.1986548e-07 
Loop time of 2.5112 on 104 procs for 216 steps with 288751 atoms

99.9% CPU use with 104 MPI tasks x 1 OpenMP threads

Minimization stats:
  Stopping criterion = energy tolerance
  Energy initial, next-to-last, final = 
     -1152448.86176725    -1152448.864234    -1152448.864234
  Force two-norm initial, final = 0.19342707 7.9391578e-05
  Force max component initial, final = 0.083125077 8.5608824e-06
  Final line search alpha, max atom move = 1.0000000 8.5608824e-06
  Iterations, force evaluations = 216 432

MPI task timing breakdown:
Section |  min time  |  avg time  |  max time  |%varavg| %total
---------------------------------------------------------------
Pair    | 0.65127    | 1.8117     | 2.3599     |  36.4 | 72.14
Neigh   | 0          | 0          | 0          |   0.0 |  0.00
Comm    | 0.041439   | 0.40786    | 1.2207     |  53.7 | 16.24
Output  | 0          | 0          | 0          |   0.0 |  0.00
Modify  | 2.9753e-05 | 0.003555   | 0.0076072  |   2.8 |  0.14
Other   |            | 0.2881     |            |       | 11.47

Nlocal:        2776.45 ave        3956 max           0 min
Histogram: 8 4 4 0 4 12 8 0 30 34
Nghost:        3879.09 ave        5424 max         232 min
Histogram: 8 0 8 0 16 0 8 8 16 40
Neighs:        79213.4 ave      115319 max           0 min
Histogram: 8 4 4 0 10 6 8 8 24 32

Total # of neighbors = 8238193
Ave neighs/atom = 28.530440
Neighbor list builds = 0
Dangerous builds = 0
The dot product: -1.32704239446863e-07
Setting atom values ...
  1 settings made for x
  1 settings made for y
  1 settings made for z
Setting up cg style minimization ...
  Unit style    : metal
  Current step  : 3860
Per MPI rank memory allocation (min/avg/max) = 5.441 | 5.816 | 6.074 Mbytes
Step PotEng KinEng TotEng v_fx v_fy v_fz 
    3860   -1152448.8            0   -1152448.8 -0.015555459 -0.052263324 0.00091970637 
    4000   -1152448.8            0   -1152448.8 -3.4266764e-05 -9.6856743e-05 2.4738641e-06 
    4058   -1152448.8            0   -1152448.8 -7.6981172e-06 -1.6591598e-05 6.8241429e-07 
Loop time of 2.3346 on 104 procs for 198 steps with 288751 atoms

99.9% CPU use with 104 MPI tasks x 1 OpenMP threads

Minimization stats:
  Stopping criterion = energy tolerance
  Energy initial, next-to-last, final = 
     -1152448.84786706  -1152448.84995119  -1152448.84995119
  Force two-norm initial, final = 0.19572224 0.00011497893
  Force max component initial, final = 0.079938636 2.8423886e-05
  Final line search alpha, max atom move = 1.0000000 2.8423886e-05
  Iterations, force evaluations = 198 396

MPI task timing breakdown:
Section |  min time  |  avg time  |  max time  |%varavg| %total
---------------------------------------------------------------
Pair    | 0.59761    | 1.6723     | 2.1916     |  35.2 | 71.63
Neigh   | 0          | 0          | 0          |   0.0 |  0.00
Comm    | 0.031974   | 0.38501    | 1.1401     |  51.2 | 16.49
Output  | 0.00022051 | 0.0002275  | 0.00037433 |   0.0 |  0.01
Modify  | 2.4542e-05 | 0.0032714  | 0.0070311  |   2.7 |  0.14
Other   |            | 0.2738     |            |       | 11.73

Nlocal:        2776.45 ave        3956 max           0 min
Histogram: 8 4 4 0 4 12 8 0 30 34
Nghost:        3879.16 ave        5425 max         232 min
Histogram: 8 0 8 0 16 0 8 8 16 40
Neighs:        79213.4 ave      115315 max           0 min
Histogram: 8 4 4 0 10 6 8 8 24 32

Total # of neighbors = 8238193
Ave neighs/atom = 28.530440
Neighbor list builds = 0
Dangerous builds = 0
The dot product: -1.97391159982628e-07
Setting atom values ...
  1 settings made for x
  1 settings made for y
  1 settings made for z
Setting up cg style minimization ...
  Unit style    : metal
  Current step  : 4058
Per MPI rank memory allocation (min/avg/max) = 5.441 | 5.816 | 6.074 Mbytes
Step PotEng KinEng TotEng v_fx v_fy v_fz 
    4058   -1152448.8            0   -1152448.8 -0.021326705 -0.058086299 0.0031582042 
    4227   -1152448.8            0   -1152448.8 2.5962882e-05 7.6546866e-05 -3.8408664e-06 
Loop time of 1.98451 on 104 procs for 169 steps with 288751 atoms

99.9% CPU use with 104 MPI tasks x 1 OpenMP threads

Minimization stats:
  Stopping criterion = energy tolerance
  Energy initial, next-to-last, final = 
     -1152448.83220733  -1152448.83433969  -1152448.83433969
  Force two-norm initial, final = 0.20001446 0.0002394196
  Force max component initial, final = 0.083969149 7.6546866e-05
  Final line search alpha, max atom move = 1.0000000 7.6546866e-05
  Iterations, force evaluations = 169 338

MPI task timing breakdown:
Section |  min time  |  avg time  |  max time  |%varavg| %total
---------------------------------------------------------------
Pair    | 0.50947    | 1.4219     | 1.8493     |  32.2 | 71.65
Neigh   | 0          | 0          | 0          |   0.0 |  0.00
Comm    | 0.033182   | 0.32318    | 0.96147    |  47.2 | 16.29
Output  | 0          | 0          | 0          |   0.0 |  0.00
Modify  | 2.0517e-05 | 0.0027886  | 0.0059659  |   2.5 |  0.14
Other   |            | 0.2366     |            |       | 11.92

Nlocal:        2776.45 ave        3955 max           0 min
Histogram: 8 4 4 0 4 12 8 0 30 34
Nghost:        3879.16 ave        5425 max         232 min
Histogram: 8 0 8 0 16 0 8 8 16 40
Neighs:        79213.4 ave      115284 max           0 min
Histogram: 8 4 4 0 10 6 8 8 24 32

Total # of neighbors = 8238192
Ave neighs/atom = 28.530436
Neighbor list builds = 0
Dangerous builds = 0
The dot product: 8.73474632034842e-07
Setting atom values ...
  1 settings made for x
  1 settings made for y
  1 settings made for z
Setting up cg style minimization ...
  Unit style    : metal
  Current step  : 4227
Per MPI rank memory allocation (min/avg/max) = 5.441 | 5.816 | 6.074 Mbytes
Step PotEng KinEng TotEng v_fx v_fy v_fz 
    4227   -1152448.8            0   -1152448.8 -0.023739579 -0.057150424  0.005002851 
    4391   -1152448.8            0   -1152448.8 -1.8615722e-05 -4.7786515e-05 3.9905578e-06 
Loop time of 1.90819 on 104 procs for 164 steps with 288751 atoms

99.9% CPU use with 104 MPI tasks x 1 OpenMP threads

Minimization stats:
  Stopping criterion = energy tolerance
  Energy initial, next-to-last, final = 
     -1152448.81534802  -1152448.81738614  -1152448.81738614
  Force two-norm initial, final = 0.20192094 0.00019591038
  Force max component initial, final = 0.087714991 4.7786515e-05
  Final line search alpha, max atom move = 1.0000000 4.7786515e-05
  Iterations, force evaluations = 164 328

MPI task timing breakdown:
Section |  min time  |  avg time  |  max time  |%varavg| %total
---------------------------------------------------------------
Pair    | 0.49395    | 1.3843     | 1.7993     |  32.0 | 72.54
Neigh   | 0          | 0          | 0          |   0.0 |  0.00
Comm    | 0.030086   | 0.31318    | 0.94014    |  47.2 | 16.41
Output  | 0          | 0          | 0          |   0.0 |  0.00
Modify  | 2.0144e-05 | 0.0027064  | 0.0058119  |   2.4 |  0.14
Other   |            | 0.208      |            |       | 10.90

Nlocal:        2776.45 ave        3955 max           0 min
Histogram: 8 4 4 0 4 12 8 0 30 34
Nghost:        3879.12 ave        5425 max         232 min
Histogram: 8 0 8 0 16 0 8 8 16 40
Neighs:        79213.4 ave      115276 max           0 min
Histogram: 8 4 4 0 10 6 8 8 24 32

Total # of neighbors = 8238193
Ave neighs/atom = 28.530440
Neighbor list builds = 0
Dangerous builds = 0
The dot product: -3.15979626195703e-07
Setting atom values ...
  1 settings made for x
  1 settings made for y
  1 settings made for z
Setting up cg style minimization ...
  Unit style    : metal
  Current step  : 4391
Per MPI rank memory allocation (min/avg/max) = 5.441 | 5.816 | 6.074 Mbytes
Step PotEng KinEng TotEng v_fx v_fy v_fz 
    4391   -1152448.8            0   -1152448.8 -0.027698433 -0.064902367 0.0067200707 
    4605   -1152448.8            0   -1152448.8 -2.7016435e-06 -7.6627805e-06  7.03426e-07 
Loop time of 2.47605 on 104 procs for 214 steps with 288751 atoms

99.9% CPU use with 104 MPI tasks x 1 OpenMP threads

Minimization stats:
  Stopping criterion = energy tolerance
  Energy initial, next-to-last, final = 
     -1152448.79700549   -1152448.7990005   -1152448.7990005
  Force two-norm initial, final = 0.20584854 5.0656452e-05
  Force max component initial, final = 0.089954654 7.6627805e-06
  Final line search alpha, max atom move = 1.0000000 7.6627805e-06
  Iterations, force evaluations = 214 428

MPI task timing breakdown:
Section |  min time  |  avg time  |  max time  |%varavg| %total
---------------------------------------------------------------
Pair    | 0.64531    | 1.797      | 2.333      |  36.2 | 72.58
Neigh   | 0          | 0          | 0          |   0.0 |  0.00
Comm    | 0.037317   | 0.40477    | 1.2147     |  53.5 | 16.35
Output  | 0          | 0          | 0          |   0.0 |  0.00
Modify  | 2.5962e-05 | 0.0035252  | 0.0075449  |   2.8 |  0.14
Other   |            | 0.2707     |            |       | 10.93

Nlocal:        2776.45 ave        3956 max           0 min
Histogram: 8 4 4 0 4 12 8 0 30 34
Nghost:        3879.12 ave        5425 max         232 min
Histogram: 8 0 8 0 16 0 8 8 16 40
Neighs:        79213.4 ave      115310 max           0 min
Histogram: 8 4 4 0 10 6 8 8 24 32

Total # of neighbors = 8238190
Ave neighs/atom = 28.530429
Neighbor list builds = 0
Dangerous builds = 0
The dot product: -2.4042171558936e-08
Setting atom values ...
  1 settings made for x
  1 settings made for y
  1 settings made for z
Setting up cg style minimization ...
  Unit style    : metal
  Current step  : 4605
Per MPI rank memory allocation (min/avg/max) = 5.441 | 5.816 | 6.074 Mbytes
Step PotEng KinEng TotEng v_fx v_fy v_fz 
    4605   -1152448.8            0   -1152448.8 -0.030680721 -0.070557889 0.0078475581 
    4769   -1152448.8            0   -1152448.8 -4.9571057e-06 -2.4114119e-05 1.8094797e-06 
Loop time of 1.91828 on 104 procs for 164 steps with 288751 atoms

99.9% CPU use with 104 MPI tasks x 1 OpenMP threads

Minimization stats:
  Stopping criterion = energy tolerance
  Energy initial, next-to-last, final = 
     -1152448.77723214   -1152448.7791393   -1152448.7791393
  Force two-norm initial, final = 0.20838089 0.00013900404
  Force max component initial, final = 0.090888605 2.4114119e-05
  Final line search alpha, max atom move = 1.0000000 2.4114119e-05
  Iterations, force evaluations = 164 328

MPI task timing breakdown:
Section |  min time  |  avg time  |  max time  |%varavg| %total
---------------------------------------------------------------
Pair    | 0.49614    | 1.3839     | 1.8057     |  31.8 | 72.14
Neigh   | 0          | 0          | 0          |   0.0 |  0.00
Comm    | 0.031485   | 0.31637    | 0.94649    |  46.7 | 16.49
Output  | 0          | 0          | 0          |   0.0 |  0.00
Modify  | 2.0035e-05 | 0.0027083  | 0.0058531  |   2.5 |  0.14
Other   |            | 0.2153     |            |       | 11.22

Nlocal:        2776.45 ave        3956 max           0 min
Histogram: 8 4 4 0 4 12 8 0 30 34
Nghost:        3879.05 ave        5424 max         232 min
Histogram: 8 0 8 0 16 0 8 8 16 40
Neighs:        79213.3 ave      115313 max           0 min
Histogram: 8 4 4 0 10 6 8 8 24 32

Total # of neighbors = 8238188
Ave neighs/atom = 28.530422
Neighbor list builds = 0
Dangerous builds = 0
The dot product: 9.94837999879653e-09
Setting atom values ...
  1 settings made for x
  1 settings made for y
  1 settings made for z
Setting up cg style minimization ...
  Unit style    : metal
  Current step  : 4769
Per MPI rank memory allocation (min/avg/max) = 5.441 | 5.816 | 6.074 Mbytes
Step PotEng KinEng TotEng v_fx v_fy v_fz 
    4769   -1152448.8            0   -1152448.8 -0.034409388  -0.07654289 0.0085529056 
    4949   -1152448.8            0   -1152448.8 3.855388e-06 1.0132351e-05 -1.0246222e-06 
Loop time of 2.08535 on 104 procs for 180 steps with 288751 atoms

99.9% CPU use with 104 MPI tasks x 1 OpenMP threads

Minimization stats:
  Stopping criterion = energy tolerance
  Energy initial, next-to-last, final = 
     -1152448.75588019  -1152448.75775128  -1152448.75775128
  Force two-norm initial, final = 0.21055878 5.8508349e-05
  Force max component initial, final = 0.090587085 1.0132351e-05
  Final line search alpha, max atom move = 1.0000000 1.0132351e-05
  Iterations, force evaluations = 180 360

MPI task timing breakdown:
Section |  min time  |  avg time  |  max time  |%varavg| %total
---------------------------------------------------------------
Pair    | 0.54252    | 1.5134     | 1.9677     |  33.3 | 72.57
Neigh   | 0          | 0          | 0          |   0.0 |  0.00
Comm    | 0.031123   | 0.34029    | 1.0209     |  49.2 | 16.32
Output  | 0          | 0          | 0          |   0.0 |  0.00
Modify  | 2.1846e-05 | 0.0029593  | 0.0063364  |   2.6 |  0.14
Other   |            | 0.2287     |            |       | 10.97

Nlocal:        2776.45 ave        3956 max           0 min
Histogram: 8 4 4 0 4 12 8 0 30 34
Nghost:        3879.07 ave        5423 max         232 min
Histogram: 8 0 8 0 16 0 8 8 16 40
Neighs:        79213.3 ave      115313 max           0 min
Histogram: 8 4 4 0 10 6 8 8 24 32

Total # of neighbors = 8238188
Ave neighs/atom = 28.530422
Neighbor list builds = 0
Dangerous builds = 0
The dot product: -3.51679487978808e-08
Setting atom values ...
  1 settings made for x
  1 settings made for y
  1 settings made for z
Setting up cg style minimization ...
  Unit style    : metal
  Current step  : 4949
Per MPI rank memory allocation (min/avg/max) = 5.441 | 5.816 | 6.074 Mbytes
Step PotEng KinEng TotEng v_fx v_fy v_fz 
    4949   -1152448.7            0   -1152448.7 -0.036977423  -0.08049917 0.0085448667 
    5000   -1152448.7            0   -1152448.7 -0.00013957197 -0.00042364723 3.6870974e-05 
    5109   -1152448.7            0   -1152448.7 -2.9367132e-06 -1.5830208e-06 4.9319971e-07 
Loop time of 1.91536 on 104 procs for 160 steps with 288751 atoms

99.9% CPU use with 104 MPI tasks x 1 OpenMP threads

Minimization stats:
  Stopping criterion = energy tolerance
  Energy initial, next-to-last, final = 
     -1152448.73299197  -1152448.73484021  -1152448.73484021
  Force two-norm initial, final = 0.21140267 0.00012476445
  Force max component initial, final = 0.089355633 2.4485854e-05
  Final line search alpha, max atom move = 1.0000000 2.4485854e-05
  Iterations, force evaluations = 160 320

MPI task timing breakdown:
Section |  min time  |  avg time  |  max time  |%varavg| %total
---------------------------------------------------------------
Pair    | 0.48305    | 1.3547     | 1.7719     |  31.6 | 70.73
Neigh   | 0          | 0          | 0          |   0.0 |  0.00
Comm    | 0.028024   | 0.31115    | 0.91806    |  46.0 | 16.24
Output  | 0.00015617 | 0.00015811 | 0.00025949 |   0.0 |  0.01
Modify  | 1.9814e-05 | 0.0026394  | 0.005659   |   2.4 |  0.14
Other   |            | 0.2467     |            |       | 12.88

Nlocal:        2776.45 ave        3956 max           0 min
Histogram: 8 4 4 0 4 12 8 0 30 34
Nghost:        3879.07 ave        5423 max         232 min
Histogram: 8 0 8 0 16 0 8 8 16 40
Neighs:        79213.3 ave      115296 max           0 min
Histogram: 8 4 4 0 10 6 8 8 24 32

Total # of neighbors = 8238186
Ave neighs/atom = 28.530415
Neighbor list builds = 0
Dangerous builds = 0
The dot product: 1.83556194868267e-08
Setting atom values ...
  1 settings made for x
  1 settings made for y
  1 settings made for z
Setting up cg style minimization ...
  Unit style    : metal
  Current step  : 5109
Per MPI rank memory allocation (min/avg/max) = 5.441 | 5.816 | 6.074 Mbytes
Step PotEng KinEng TotEng v_fx v_fy v_fz 
    5109   -1152448.7            0   -1152448.7 -0.037970133 -0.082973147 0.0079558609 
    5258   -1152448.7            0   -1152448.7 1.7272228e-05 4.4903906e-05 -3.8495292e-06 
Loop time of 1.72765 on 104 procs for 149 steps with 288751 atoms

99.9% CPU use with 104 MPI tasks x 1 OpenMP threads

Minimization stats:
  Stopping criterion = energy tolerance
  Energy initial, next-to-last, final = 
     -1152448.70859749  -1152448.71041927  -1152448.71041927
  Force two-norm initial, final = 0.21119696 0.00020318873
  Force max component initial, final = 0.087595647 4.7090286e-05
  Final line search alpha, max atom move = 1.0000000 4.7090286e-05
  Iterations, force evaluations = 149 298

MPI task timing breakdown:
Section |  min time  |  avg time  |  max time  |%varavg| %total
---------------------------------------------------------------
Pair    | 0.44971    | 1.2528     | 1.63       |  30.3 | 72.52
Neigh   | 0          | 0          | 0          |   0.0 |  0.00
Comm    | 0.02615    | 0.28083    | 0.84273    |  44.8 | 16.25
Output  | 0          | 0          | 0          |   0.0 |  0.00
Modify  | 1.8432e-05 | 0.002455   | 0.0052627  |   2.3 |  0.14
Other   |            | 0.1915     |            |       | 11.09

Nlocal:        2776.45 ave        3956 max           0 min
Histogram: 8 4 4 0 4 12 8 0 30 34
Nghost:        3879.08 ave        5423 max         232 min
Histogram: 8 0 8 0 16 0 8 8 16 40
Neighs:        79213.3 ave      115290 max           0 min
Histogram: 8 4 4 0 10 6 8 8 24 32

Total # of neighbors = 8238187
Ave neighs/atom = 28.530419
Neighbor list builds = 0
Dangerous builds = 0
The dot product: -2.80774051637824e-07
Setting atom values ...
  1 settings made for x
  1 settings made for y
  1 settings made for z
Setting up cg style minimization ...
  Unit style    : metal
  Current step  : 5258
Per MPI rank memory allocation (min/avg/max) = 5.441 | 5.816 | 6.074 Mbytes
Step PotEng KinEng TotEng v_fx v_fy v_fz 
    5258   -1152448.7            0   -1152448.7 -0.037462407 -0.084501988 0.0069627438 
    5445   -1152448.7            0   -1152448.7 -6.9524323e-06 -1.8214113e-05 1.354202e-06 
Loop time of 2.21411 on 104 procs for 187 steps with 288751 atoms

99.9% CPU use with 104 MPI tasks x 1 OpenMP threads

Minimization stats:
  Stopping criterion = energy tolerance
  Energy initial, next-to-last, final = 
     -1152448.68272053  -1152448.68450817  -1152448.68450817
  Force two-norm initial, final = 0.21017032 5.2054232e-05
  Force max component initial, final = 0.085332082 2.1477591e-05
  Final line search alpha, max atom move = 1.0000000 2.1477591e-05
  Iterations, force evaluations = 187 374

MPI task timing breakdown:
Section |  min time  |  avg time  |  max time  |%varavg| %total
---------------------------------------------------------------
Pair    | 0.56511    | 1.5819     | 2.0685     |  34.1 | 71.45
Neigh   | 0          | 0          | 0          |   0.0 |  0.00
Comm    | 0.030264   | 0.36472    | 1.0889     |  49.7 | 16.47
Output  | 0          | 0          | 0          |   0.0 |  0.00
Modify  | 2.2796e-05 | 0.0030871  | 0.00664    |   2.6 |  0.14
Other   |            | 0.2644     |            |       | 11.94

Nlocal:        2776.45 ave        3956 max           0 min
Histogram: 8 4 4 0 4 12 8 1 29 34
Nghost:        3879.09 ave        5423 max         232 min
Histogram: 8 0 8 0 16 0 8 8 16 40
Neighs:        79213.3 ave      115293 max           0 min
Histogram: 8 4 4 0 10 6 8 8 24 32

Total # of neighbors = 8238186
Ave neighs/atom = 28.530415
Neighbor list builds = 0
Dangerous builds = 0
The dot product: 1.27143134246818e-07
Setting atom values ...
  1 settings made for x
  1 settings made for y
  1 settings made for z
Setting up cg style minimization ...
  Unit style    : metal
  Current step  : 5445
Per MPI rank memory allocation (min/avg/max) = 5.441 | 5.816 | 6.074 Mbytes
Step PotEng KinEng TotEng v_fx v_fy v_fz 
    5445   -1152448.7            0   -1152448.7 -0.035517575 -0.085558854 0.0056964156 
    5607   -1152448.7            0   -1152448.7 1.580501e-05 3.6520436e-05 -2.5100797e-06 
Loop time of 1.87978 on 104 procs for 162 steps with 288751 atoms

99.9% CPU use with 104 MPI tasks x 1 OpenMP threads

Minimization stats:
  Stopping criterion = energy tolerance
  Energy initial, next-to-last, final = 
     -1152448.65538483  -1152448.65713273  -1152448.65713273
  Force two-norm initial, final = 0.20876402 0.00012959109
  Force max component initial, final = 0.085558854 3.9078424e-05
  Final line search alpha, max atom move = 1.0000000 3.9078424e-05
  Iterations, force evaluations = 162 324

MPI task timing breakdown:
Section |  min time  |  avg time  |  max time  |%varavg| %total
---------------------------------------------------------------
Pair    | 0.49372    | 1.3639     | 1.7689     |  31.4 | 72.56
Neigh   | 0          | 0          | 0          |   0.0 |  0.00
Comm    | 0.028346   | 0.30659    | 0.92019    |  46.7 | 16.31
Output  | 0          | 0          | 0          |   0.0 |  0.00
Modify  | 1.9927e-05 | 0.002667   | 0.0057017  |   2.4 |  0.14
Other   |            | 0.2066     |            |       | 10.99

Nlocal:        2776.45 ave        3956 max           0 min
Histogram: 8 4 4 0 4 12 8 2 28 34
Nghost:        3879.16 ave        5424 max         232 min
Histogram: 8 0 8 0 16 0 8 8 16 40
Neighs:        79213.3 ave      115293 max           0 min
Histogram: 8 4 4 0 10 6 8 8 24 32

Total # of neighbors = 8238187
Ave neighs/atom = 28.530419
Neighbor list builds = 0
Dangerous builds = 0
The dot product: -2.84519818004285e-07
Setting atom values ...
  1 settings made for x
  1 settings made for y
  1 settings made for z
Setting up cg style minimization ...
  Unit style    : metal
  Current step  : 5607
Per MPI rank memory allocation (min/avg/max) = 5.441 | 5.816 | 6.074 Mbytes
Step PotEng KinEng TotEng v_fx v_fy v_fz 
    5607   -1152448.6            0   -1152448.6 -0.031887651 -0.086147011 0.0042072582 
    5761   -1152448.6            0   -1152448.6 1.057199e-05 1.9664619e-05 -1.3347137e-06 
Loop time of 1.79549 on 104 procs for 154 steps with 288751 atoms

99.9% CPU use with 104 MPI tasks x 1 OpenMP threads

Minimization stats:
  Stopping criterion = energy tolerance
  Energy initial, next-to-last, final = 
     -1152448.62662231  -1152448.62832595  -1152448.62832595
  Force two-norm initial, final = 0.20692102 0.00017082182
  Force max component initial, final = 0.086147011 2.3736317e-05
  Final line search alpha, max atom move = 1.0000000 2.3736317e-05
  Iterations, force evaluations = 154 308

MPI task timing breakdown:
Section |  min time  |  avg time  |  max time  |%varavg| %total
---------------------------------------------------------------
Pair    | 0.46772    | 1.301      | 1.691      |  30.9 | 72.46
Neigh   | 0          | 0          | 0          |   0.0 |  0.00
Comm    | 0.03292    | 0.29438    | 0.88273    |  45.5 | 16.40
Output  | 0          | 0          | 0          |   0.0 |  0.00
Modify  | 1.8816e-05 | 0.0025398  | 0.0054263  |   2.4 |  0.14
Other   |            | 0.1976     |            |       | 11.01

Nlocal:        2776.45 ave        3955 max           0 min
Histogram: 8 4 4 0 4 12 8 2 28 34
Nghost:        3879.14 ave        5424 max         232 min
Histogram: 8 0 8 0 16 0 8 8 16 40
Neighs:        79213.3 ave      115255 max           0 min
Histogram: 8 4 4 0 10 6 8 8 24 32

Total # of neighbors = 8238188
Ave neighs/atom = 28.530422
Neighbor list builds = 0
Dangerous builds = 0
The dot product: -1.71453502088074e-07
Setting atom values ...
[...]
Histogram: 8 0 8 0 16 0 8 8 16 40
Neighs:        79213.5 ave      114594 max           0 min
Histogram: 8 4 4 0 8 8 8 8 20 36

Total # of neighbors = 8238207
Ave neighs/atom = 28.530488
Neighbor list builds = 0
Dangerous builds = 0
The dot product: 2.26933017285662e-07
Setting atom values ...
  1 settings made for x
  1 settings made for y
  1 settings made for z
Setting up cg style minimization ...
  Unit style    : metal
  Current step  : 26526
Per MPI rank memory allocation (min/avg/max) = 5.441 | 5.816 | 6.074 Mbytes
Step PotEng KinEng TotEng v_fx v_fy v_fz 
   26526     -1152449            0     -1152449 0.0004751961 -0.012670175 -0.018104974 
   26797     -1152449            0     -1152449 -3.7786031e-07 -3.7920579e-07 -2.0758342e-07 
Loop time of 3.13452 on 104 procs for 271 steps with 288751 atoms

99.9% CPU use with 104 MPI tasks x 1 OpenMP threads

Minimization stats:
  Stopping criterion = energy tolerance
  Energy initial, next-to-last, final = 
     -1152448.98339579  -1152448.98495764  -1152448.98495764
  Force two-norm initial, final = 0.16114504 7.2040658e-06
  Force max component initial, final = 0.085389725 6.3728582e-07
  Final line search alpha, max atom move = 1.0000000 6.3728582e-07
  Iterations, force evaluations = 271 542

MPI task timing breakdown:
Section |  min time  |  avg time  |  max time  |%varavg| %total
---------------------------------------------------------------
Pair    | 0.82067    | 2.2758     | 2.9536     |  40.9 | 72.60
Neigh   | 0          | 0          | 0          |   0.0 |  0.00
Comm    | 0.049247   | 0.51411    | 1.5345     |  60.2 | 16.40
Output  | 0          | 0          | 0          |   0.0 |  0.00
Modify  | 3.1784e-05 | 0.0044612  | 0.0095726  |   3.1 |  0.14
Other   |            | 0.3402     |            |       | 10.85

Nlocal:        2776.45 ave        3933 max           0 min
Histogram: 8 4 4 0 4 12 8 0 26 38
Nghost:        3879.16 ave        5425 max         232 min
Histogram: 8 0 8 0 16 0 8 8 16 40
Neighs:        79213.5 ave      114594 max           0 min
Histogram: 8 4 4 0 8 8 8 8 20 36

Total # of neighbors = 8238209
Ave neighs/atom = 28.530495
Neighbor list builds = 0
Dangerous builds = 0
The dot product: 2.5662577125468e-09
Setting atom values ...
  1 settings made for x
  1 settings made for y
  1 settings made for z
Setting up cg style minimization ...
  Unit style    : metal
  Current step  : 26797
Per MPI rank memory allocation (min/avg/max) = 5.441 | 5.816 | 6.074 Mbytes
Step PotEng KinEng TotEng v_fx v_fy v_fz 
   26797   -1152448.9            0   -1152448.9 -0.0012097025 -0.015082844 -0.019995382 
   26966   -1152448.9            0   -1152448.9 -2.0141958e-06 -6.7474018e-09 1.692545e-06 
Loop time of 1.96404 on 104 procs for 169 steps with 288751 atoms

99.9% CPU use with 104 MPI tasks x 1 OpenMP threads

Minimization stats:
  Stopping criterion = energy tolerance
  Energy initial, next-to-last, final = 
     -1152448.94619484  -1152448.94757286  -1152448.94757286
  Force two-norm initial, final = 0.15842901 0.00028088509
  Force max component initial, final = 0.084647776 4.4609861e-05
  Final line search alpha, max atom move = 1.0000000 4.4609861e-05
  Iterations, force evaluations = 169 338

MPI task timing breakdown:
Section |  min time  |  avg time  |  max time  |%varavg| %total
---------------------------------------------------------------
Pair    | 0.51157    | 1.4204     | 1.8474     |  32.2 | 72.32
Neigh   | 0          | 0          | 0          |   0.0 |  0.00
Comm    | 0.034336   | 0.32357    | 0.96371    |  47.4 | 16.47
Output  | 0          | 0          | 0          |   0.0 |  0.00
Modify  | 1.9579e-05 | 0.0027891  | 0.0059692  |   2.5 |  0.14
Other   |            | 0.2173     |            |       | 11.06

Nlocal:        2776.45 ave        3933 max           0 min
Histogram: 8 4 4 0 4 12 8 0 26 38
Nghost:        3879.16 ave        5425 max         232 min
Histogram: 8 0 8 0 16 0 8 8 16 40
Neighs:        79213.5 ave      114587 max           0 min
Histogram: 8 4 4 0 8 8 8 8 20 36

Total # of neighbors = 8238207
Ave neighs/atom = 28.530488
Neighbor list builds = 0
Dangerous builds = 0
The dot product: 1.65920233956304e-08
Setting atom values ...
  1 settings made for x
  1 settings made for y
  1 settings made for z
Setting up cg style minimization ...
  Unit style    : metal
  Current step  : 26966
Per MPI rank memory allocation (min/avg/max) = 5.441 | 5.816 | 6.074 Mbytes
Step PotEng KinEng TotEng v_fx v_fy v_fz 
   26966   -1152448.9            0   -1152448.9 -0.0022858751  -0.01765481 -0.022653297 
   27000   -1152448.9            0   -1152448.9 -0.0002132418 0.00022931237 0.00049830996 
   27160   -1152448.9            0   -1152448.9 1.7778236e-05 -1.1079093e-06 -1.6476598e-05 
Loop time of 2.26987 on 104 procs for 194 steps with 288751 atoms

99.9% CPU use with 104 MPI tasks x 1 OpenMP threads

Minimization stats:
  Stopping criterion = energy tolerance
  Energy initial, next-to-last, final = 
     -1152448.90742482  -1152448.90870687  -1152448.90870687
  Force two-norm initial, final = 0.15598844 0.00011607635
  Force max component initial, final = 0.084353521 2.3387038e-05
  Final line search alpha, max atom move = 1.0000000 2.3387038e-05
  Iterations, force evaluations = 194 388

MPI task timing breakdown:
Section |  min time  |  avg time  |  max time  |%varavg| %total
---------------------------------------------------------------
Pair    | 0.58694    | 1.631      | 2.1243     |  34.6 | 71.85
Neigh   | 0          | 0          | 0          |   0.0 |  0.00
Comm    | 0.040293   | 0.37463    | 1.1106     |  50.4 | 16.50
Output  | 0.00014784 | 0.00015607 | 0.00026086 |   0.0 |  0.01
Modify  | 2.2581e-05 | 0.0031995  | 0.0068484  |   2.7 |  0.14
Other   |            | 0.2609     |            |       | 11.49

Nlocal:        2776.45 ave        3932 max           0 min
Histogram: 8 4 4 0 4 12 8 0 26 38
Nghost:        3879.16 ave        5425 max         232 min
Histogram: 8 0 8 0 16 0 8 8 16 40
Neighs:        79213.6 ave      114556 max           0 min
Histogram: 8 4 4 0 8 8 8 8 20 36

Total # of neighbors = 8238210
Ave neighs/atom = 28.530499
Neighbor list builds = 0
Dangerous builds = 0
The dot product: -1.23390410878246e-07
Setting atom values ...
  1 settings made for x
  1 settings made for y
  1 settings made for z
Setting up cg style minimization ...
  Unit style    : metal
  Current step  : 27160
Per MPI rank memory allocation (min/avg/max) = 5.441 | 5.816 | 6.074 Mbytes
Step PotEng KinEng TotEng v_fx v_fy v_fz 
   27160   -1152448.9            0   -1152448.9 -0.0052090332 -0.021954723  -0.02619005 
   27330   -1152448.9            0   -1152448.9 5.1650147e-06 7.3777066e-06 5.9465027e-06 
Loop time of 1.98734 on 104 procs for 170 steps with 288751 atoms

99.9% CPU use with 104 MPI tasks x 1 OpenMP threads

Minimization stats:
  Stopping criterion = energy tolerance
  Energy initial, next-to-last, final = 
     -1152448.86730493  -1152448.86847738  -1152448.86847738
  Force two-norm initial, final = 0.15399114 0.00022259608
  Force max component initial, final = 0.084034816 2.4088077e-05
  Final line search alpha, max atom move = 1.0000000 2.4088077e-05
  Iterations, force evaluations = 170 340

MPI task timing breakdown:
Section |  min time  |  avg time  |  max time  |%varavg| %total
---------------------------------------------------------------
Pair    | 0.51365    | 1.4335     | 1.857      |  32.4 | 72.13
Neigh   | 0          | 0          | 0          |   0.0 |  0.00
Comm    | 0.031451   | 0.32423    | 0.96378    |  47.5 | 16.31
Output  | 0          | 0          | 0          |   0.0 |  0.00
Modify  | 2.0778e-05 | 0.0028046  | 0.0059893  |   2.5 |  0.14
Other   |            | 0.2268     |            |       | 11.41

Nlocal:        2776.45 ave        3931 max           0 min
Histogram: 8 4 4 0 4 12 8 0 26 38
Nghost:        3879.14 ave        5425 max         232 min
Histogram: 8 0 8 0 16 0 8 8 16 40
Neighs:        79213.6 ave      114519 max           0 min
Histogram: 8 4 4 0 8 8 8 8 20 36

Total # of neighbors = 8238211
Ave neighs/atom = 28.530502
Neighbor list builds = 0
Dangerous builds = 0
The dot product: -4.2444947199635e-08
Setting atom values ...
  1 settings made for x
  1 settings made for y
  1 settings made for z
Setting up cg style minimization ...
  Unit style    : metal
  Current step  : 27330
Per MPI rank memory allocation (min/avg/max) = 5.441 | 5.816 | 6.074 Mbytes
Step PotEng KinEng TotEng v_fx v_fy v_fz 
   27330   -1152448.8            0   -1152448.8 -0.0094621764 -0.029155835 -0.032721561 
   27484   -1152448.8            0   -1152448.8 -1.4377107e-05 2.9952262e-06 1.6150087e-05 
Loop time of 1.79054 on 104 procs for 154 steps with 288751 atoms

99.9% CPU use with 104 MPI tasks x 1 OpenMP threads

Minimization stats:
  Stopping criterion = energy tolerance
  Energy initial, next-to-last, final = 
     -1152448.82606708  -1152448.82732516  -1152448.82732516
  Force two-norm initial, final = 0.15503865 9.6565705e-05
  Force max component initial, final = 0.083913382 3.0440587e-05
  Final line search alpha, max atom move = 1.0000000 3.0440587e-05
  Iterations, force evaluations = 154 308

MPI task timing breakdown:
Section |  min time  |  avg time  |  max time  |%varavg| %total
---------------------------------------------------------------
Pair    | 0.4675     | 1.2964     | 1.6868     |  30.9 | 72.40
Neigh   | 0          | 0          | 0          |   0.0 |  0.00
Comm    | 0.029262   | 0.29344    | 0.87097    |  45.2 | 16.39
Output  | 0          | 0          | 0          |   0.0 |  0.00
Modify  | 1.8576e-05 | 0.0025405  | 0.0054775  |   2.4 |  0.14
Other   |            | 0.1982     |            |       | 11.07

Nlocal:        2776.45 ave        3930 max           0 min
Histogram: 8 4 4 0 4 12 8 0 26 38
Nghost:        3879.18 ave        5426 max         232 min
Histogram: 8 0 8 0 16 0 8 8 16 40
Neighs:        79213.6 ave      114469 max           0 min
Histogram: 8 4 4 0 8 8 8 8 20 36

Total # of neighbors = 8238211
Ave neighs/atom = 28.530502
Neighbor list builds = 0
Dangerous builds = 0
The dot product: -1.53196738466579e-08
Setting atom values ...
  1 settings made for x
  1 settings made for y
  1 settings made for z
Setting up cg style minimization ...
  Unit style    : metal
  Current step  : 27484
Per MPI rank memory allocation (min/avg/max) = 5.441 | 5.816 | 6.074 Mbytes
Step PotEng KinEng TotEng v_fx v_fy v_fz 
   27484   -1152448.8            0   -1152448.8 -0.017093315 -0.041688346 -0.044225335 
   27688   -1152448.8            0   -1152448.8 -4.0657632e-06 1.4180877e-05 2.3263036e-05 
Loop time of 2.38161 on 104 procs for 204 steps with 288751 atoms

99.9% CPU use with 104 MPI tasks x 1 OpenMP threads

Minimization stats:
  Stopping criterion = energy tolerance
  Energy initial, next-to-last, final = 
       -1152448.784914  -1152448.78768065  -1152448.78768065
  Force two-norm initial, final = 0.16309881 0.00014588673
  Force max component initial, final = 0.08389003 2.7871046e-05
  Final line search alpha, max atom move = 1.0000000 2.7871046e-05
  Iterations, force evaluations = 204 408

MPI task timing breakdown:
Section |  min time  |  avg time  |  max time  |%varavg| %total
---------------------------------------------------------------
Pair    | 0.61702    | 1.714      | 2.2408     |  35.5 | 71.97
Neigh   | 0          | 0          | 0          |   0.0 |  0.00
Comm    | 0.03686    | 0.38951    | 1.1536     |  51.9 | 16.35
Output  | 0          | 0          | 0          |   0.0 |  0.00
Modify  | 2.3609e-05 | 0.0033742  | 0.0071878  |   2.7 |  0.14
Other   |            | 0.2747     |            |       | 11.54

Nlocal:        2776.45 ave        3930 max           0 min
Histogram: 8 4 4 0 4 12 8 0 26 38
Nghost:        3879.18 ave        5426 max         232 min
Histogram: 8 0 8 0 16 0 8 8 16 40
Neighs:        79213.6 ave      114452 max           0 min
Histogram: 8 4 4 0 8 8 8 8 20 36

Total # of neighbors = 8238211
Ave neighs/atom = 28.530502
Neighbor list builds = 0
Dangerous builds = 0
The dot product: -7.35395763028102e-07
Setting atom values ...
  1 settings made for x
  1 settings made for y
  1 settings made for z
Setting up cg style minimization ...
  Unit style    : metal
  Current step  : 27688
Per MPI rank memory allocation (min/avg/max) = 5.441 | 5.816 | 6.074 Mbytes
Step PotEng KinEng TotEng v_fx v_fy v_fz 
   27688   -1152448.7            0   -1152448.7 -0.023800255 -0.050843026 -0.052989167 
   27833   -1152448.7            0   -1152448.7 2.7514296e-05 1.6231136e-06 -2.0600179e-05 
Loop time of 1.68387 on 104 procs for 145 steps with 288751 atoms

99.9% CPU use with 104 MPI tasks x 1 OpenMP threads

Minimization stats:
  Stopping criterion = energy tolerance
  Energy initial, next-to-last, final = 
     -1152448.74755567  -1152448.74939621  -1152448.74939621
  Force two-norm initial, final = 0.16566636 0.00021689614
  Force max component initial, final = 0.083662552 6.7264713e-05
  Final line search alpha, max atom move = 1.0000000 6.7264713e-05
  Iterations, force evaluations = 145 290

MPI task timing breakdown:
Section |  min time  |  avg time  |  max time  |%varavg| %total
---------------------------------------------------------------
Pair    | 0.44149    | 1.2213     | 1.5827     |  29.9 | 72.53
Neigh   | 0          | 0          | 0          |   0.0 |  0.00
Comm    | 0.024897   | 0.27581    | 0.82448    |  44.1 | 16.38
Output  | 0          | 0          | 0          |   0.0 |  0.00
Modify  | 1.7127e-05 | 0.0023927  | 0.0051167  |   2.3 |  0.14
Other   |            | 0.1843     |            |       | 10.95

Nlocal:        2776.45 ave        3932 max           0 min
Histogram: 8 4 4 0 4 12 8 0 26 38
Nghost:        3879.20 ave        5426 max         232 min
Histogram: 8 0 8 0 16 0 8 8 16 40
Neighs:        79213.6 ave      114551 max           0 min
Histogram: 8 4 4 0 8 8 8 8 20 36

Total # of neighbors = 8238212
Ave neighs/atom = 28.530506
Neighbor list builds = 0
Dangerous builds = 0
The dot product: -4.77818393553774e-08
Setting atom values ...
  1 settings made for x
  1 settings made for y
  1 settings made for z
Setting up cg style minimization ...
  Unit style    : metal
  Current step  : 27833
Per MPI rank memory allocation (min/avg/max) = 5.441 | 5.816 | 6.074 Mbytes
Step PotEng KinEng TotEng v_fx v_fy v_fz 
   27833   -1152448.7            0   -1152448.7 -0.021594946 -0.043977351 -0.045812116 
   27938   -1152448.7            0   -1152448.7 1.6924714e-05 9.0949177e-06 -9.0709008e-07 
Loop time of 1.22018 on 104 procs for 105 steps with 288751 atoms

99.9% CPU use with 104 MPI tasks x 1 OpenMP threads

Minimization stats:
  Stopping criterion = energy tolerance
  Energy initial, next-to-last, final = 
     -1152448.70976447  -1152448.71116502  -1152448.71116502
  Force two-norm initial, final = 0.15830531 0.00021640192
  Force max component initial, final = 0.083159409 5.1776369e-05
  Final line search alpha, max atom move = 1.0000000 5.1776369e-05
  Iterations, force evaluations = 105 210

MPI task timing breakdown:
Section |  min time  |  avg time  |  max time  |%varavg| %total
---------------------------------------------------------------
Pair    | 0.31763    | 0.88519    | 1.1497     |  25.5 | 72.55
Neigh   | 0          | 0          | 0          |   0.0 |  0.00
Comm    | 0.019969   | 0.20068    | 0.59578    |  37.4 | 16.45
Output  | 0          | 0          | 0          |   0.0 |  0.00
Modify  | 1.2753e-05 | 0.0017359  | 0.0037008  |   2.0 |  0.14
Other   |            | 0.1326     |            |       | 10.87

Nlocal:        2776.45 ave        3931 max           0 min
Histogram: 8 4 4 0 4 12 8 0 26 38
Nghost:        3879.16 ave        5425 max         232 min
Histogram: 8 0 8 0 16 0 8 8 16 40
Neighs:        79213.5 ave      114519 max           0 min
Histogram: 8 4 4 0 8 8 8 8 20 36

Total # of neighbors = 8238209
Ave neighs/atom = 28.530495
Neighbor list builds = 0
Dangerous builds = 0
The dot product: -2.18873704285785e-07
Setting atom values ...
  1 settings made for x
  1 settings made for y
  1 settings made for z
Setting up cg style minimization ...
  Unit style    : metal
  Current step  : 27938
Per MPI rank memory allocation (min/avg/max) = 5.441 | 5.816 | 6.074 Mbytes
Step PotEng KinEng TotEng v_fx v_fy v_fz 
   27938   -1152448.7            0   -1152448.7 -0.022231311 -0.042348703 -0.043485374 
   28000   -1152448.7            0   -1152448.7 -0.00029111591 -7.455721e-05 0.00013324501 
   28150   -1152448.7            0   -1152448.7 -8.9763219e-06 1.0243328e-05 2.2469554e-05 
Loop time of 2.45367 on 104 procs for 212 steps with 288751 atoms

99.9% CPU use with 104 MPI tasks x 1 OpenMP threads

Minimization stats:
  Stopping criterion = energy tolerance
  Energy initial, next-to-last, final = 
     -1152448.67163082  -1152448.67317852  -1152448.67317852
  Force two-norm initial, final = 0.15568378 8.0338293e-05
  Force max component initial, final = 0.082535918 2.2469554e-05
  Final line search alpha, max atom move = 1.0000000 2.2469554e-05
  Iterations, force evaluations = 212 424

MPI task timing breakdown:
Section |  min time  |  avg time  |  max time  |%varavg| %total
---------------------------------------------------------------
Pair    | 0.64084    | 1.7822     | 2.3123     |  36.2 | 72.63
Neigh   | 0          | 0          | 0          |   0.0 |  0.00
Comm    | 0.039236   | 0.40319    | 1.1973     |  53.2 | 16.43
Output  | 0.00015006 | 0.00015895 | 0.00028059 |   0.0 |  0.01
Modify  | 2.5295e-05 | 0.0034954  | 0.0074724  |   2.8 |  0.14
Other   |            | 0.2647     |            |       | 10.79

Nlocal:        2776.45 ave        3930 max           0 min
Histogram: 8 4 4 0 4 12 8 0 26 38
Nghost:        3879.20 ave        5426 max         232 min
Histogram: 8 0 8 0 16 0 8 8 16 40
Neighs:        79213.6 ave      114463 max           0 min
Histogram: 8 4 4 0 8 8 8 8 20 36

Total # of neighbors = 8238212
Ave neighs/atom = 28.530506
Neighbor list builds = 0
Dangerous builds = 0
The dot product: -3.52933622926811e-07
Setting atom values ...
  1 settings made for x
  1 settings made for y
  1 settings made for z
Setting up cg style minimization ...
  Unit style    : metal
  Current step  : 28150
Per MPI rank memory allocation (min/avg/max) = 5.441 | 5.816 | 6.074 Mbytes
Step PotEng KinEng TotEng v_fx v_fy v_fz 
   28150   -1152448.6            0   -1152448.6 -0.032662593 -0.056841994 -0.057208999 
   28403   -1152448.7            0   -1152448.7 1.1538362e-05 -2.2419787e-06 -1.2931427e-05 
Loop time of 2.99435 on 104 procs for 253 steps with 288751 atoms

99.9% CPU use with 104 MPI tasks x 1 OpenMP threads

Minimization stats:
  Stopping criterion = energy tolerance
  Energy initial, next-to-last, final = 
     -1152448.63519891  -1152448.66493865  -1152448.66493865
  Force two-norm initial, final = 0.16920485 5.8486065e-05
  Force max component initial, final = 0.081365756 1.8474101e-05
  Final line search alpha, max atom move = 1.0000000 1.8474101e-05
  Iterations, force evaluations = 253 506

MPI task timing breakdown:
Section |  min time  |  avg time  |  max time  |%varavg| %total
---------------------------------------------------------------
Pair    | 0.76732    | 2.1354     | 2.7796     |  39.5 | 71.31
Neigh   | 1.0323e-05 | 0.0029474  | 0.0042417  |   2.2 |  0.10
Comm    | 0.063311   | 0.48765    | 1.4483     |  57.9 | 16.29
Output  | 0          | 0          | 0          |   0.0 |  0.00
Modify  | 2.9772e-05 | 0.0041679  | 0.0089411  |   3.0 |  0.14
Other   |            | 0.3642     |            |       | 12.16

Nlocal:        2776.45 ave        3933 max           0 min
Histogram: 8 4 4 0 4 12 8 0 26 38
Nghost:        3879.14 ave        5425 max         232 min
Histogram: 8 0 8 0 16 0 8 8 16 40
Neighs:        79213.6 ave      114590 max           0 min
Histogram: 8 4 4 0 8 8 8 8 20 36

Total # of neighbors = 8238216
Ave neighs/atom = 28.530519
Neighbor list builds = 1
Dangerous builds = 0
The dot product: 2.69433811036085e-07
