LAMMPS (29 Oct 2020)
OMP_NUM_THREADS environment is not set. Defaulting to 1 thread. (../comm.cpp:94)
  using 1 OpenMP thread(s) per MPI task
OMP_NUM_THREADS environment is not set. Defaulting to 1 thread. (../comm.cpp:94)
  using 1 OpenMP thread(s) per MPI task
Reading data file ...
  orthogonal box = (-122.39241 -121.13707 -37.090501) to (122.39241 121.13707 37.090501)
  13 by 4 by 2 MPI processor grid
  reading atoms ...
  288751 atoms
  read_data CPU = 0.383 seconds
199981 atoms in group inner
88770 atoms in group outer
1 atoms in group carbon
Neighbor list info ...
  update every 1 steps, delay 0 steps, check yes
  max neighbors/atom: 2000, page size: 100000
  master list distance cutoff = 5.6
  ghost atom cutoff = 5.6
  binsize = 2.8, bins = 88 87 27
  1 neighbor lists, perpetual/occasional/extra = 1 0 0
  (1) pair eam/alloy, perpetual
      attributes: half, newton on
      pair build: half/bin/atomonly/newton
      stencil: half/bin/3d/newton
      bin: standard
Setting up cg style minimization ...
  Unit style    : metal
  Current step  : 0
Per MPI rank memory allocation (min/avg/max) = 5.441 | 5.816 | 6.074 Mbytes
Step v_fx v_fy v_fz PotEng KinEng TotEng 
       0    26.295319    15.610145   -51.667851   -1152432.9            0   -1152432.9 
     205 -2.683215e-06 -3.4658027e-06 1.4012395e-06   -1152449.5            0   -1152449.5 
Loop time of 2.39473 on 104 procs for 205 steps with 288751 atoms

99.8% CPU use with 104 MPI tasks x 1 OpenMP threads

Minimization stats:
  Stopping criterion = energy tolerance
  Energy initial, next-to-last, final = 
     -1152432.89569687  -1152449.45035262  -1152449.45035262
  Force two-norm initial, final = 89.792788 2.5705827e-05
  Force max component initial, final = 58.738879 3.4658027e-06
  Final line search alpha, max atom move = 1.0000000 3.4658027e-06
  Iterations, force evaluations = 205 401

MPI task timing breakdown:
Section |  min time  |  avg time  |  max time  |%varavg| %total
---------------------------------------------------------------
Pair    | 0.63836    | 1.6974     | 2.1982     |  34.5 | 70.88
Neigh   | 5.1719e-05 | 0.014694   | 0.021369   |   5.0 |  0.61
Comm    | 0.038543   | 0.38607    | 1.1377     |  50.9 | 16.12
Output  | 0          | 0          | 0          |   0.0 |  0.00
Modify  | 2.3027e-05 | 0.002171   | 0.0055295  |   2.9 |  0.09
Other   |            | 0.2944     |            |       | 12.30

Nlocal:        2776.45 ave        3961 max           0 min
Histogram: 8 4 4 0 6 10 8 2 28 34
Nghost:        3879.01 ave        5425 max         232 min
Histogram: 8 0 8 0 16 0 8 8 16 40
Neighs:        79213.5 ave      115456 max           0 min
Histogram: 8 4 4 0 10 6 8 8 24 32

Total # of neighbors = 8238207
Ave neighs/atom = 28.530488
Neighbor list builds = 5
Dangerous builds = 0
Setting atom values ...
  1 settings made for x
  1 settings made for y
  1 settings made for z
Setting up cg style minimization ...
  Unit style    : metal
  Current step  : 205
Per MPI rank memory allocation (min/avg/max) = 5.441 | 5.816 | 6.074 Mbytes
Step PotEng KinEng TotEng v_fx v_fy v_fz 
     205   -1152449.4            0   -1152449.4 0.0074118929   -0.0150709 -0.024556252 
     365   -1152449.5            0   -1152449.5 7.4366743e-06 4.1274551e-05 2.3605645e-05 
Loop time of 1.91254 on 104 procs for 160 steps with 288751 atoms

99.9% CPU use with 104 MPI tasks x 1 OpenMP threads

Minimization stats:
  Stopping criterion = energy tolerance
  Energy initial, next-to-last, final = 
     -1152449.44965286  -1152449.45007929  -1152449.45007929
  Force two-norm initial, final = 0.094091977 0.00018217342
  Force max component initial, final = 0.04395839 4.2665347e-05
  Final line search alpha, max atom move = 1.0000000 4.2665347e-05
  Iterations, force evaluations = 160 320

MPI task timing breakdown:
Section |  min time  |  avg time  |  max time  |%varavg| %total
---------------------------------------------------------------
Pair    | 0.48889    | 1.3589     | 1.7608     |  31.5 | 71.05
Neigh   | 0          | 0          | 0          |   0.0 |  0.00
Comm    | 0.034894   | 0.31002    | 0.91322    |  45.6 | 16.21
Output  | 0          | 0          | 0          |   0.0 |  0.00
Modify  | 2.0977e-05 | 0.002652   | 0.0056204  |   2.4 |  0.14
Other   |            | 0.2409     |            |       | 12.60

Nlocal:        2776.45 ave        3961 max           0 min
Histogram: 8 4 4 0 6 10 8 2 28 34
Nghost:        3879.01 ave        5424 max         232 min
Histogram: 8 0 8 0 16 0 8 8 16 40
Neighs:        79213.4 ave      115455 max           0 min
Histogram: 8 4 4 0 10 6 8 8 24 32

Total # of neighbors = 8238197
Ave neighs/atom = 28.530454
Neighbor list builds = 0
Dangerous builds = 0
Setting atom values ...
  1 settings made for x
  1 settings made for y
  1 settings made for z
Setting up cg style minimization ...
  Unit style    : metal
  Current step  : 365
Per MPI rank memory allocation (min/avg/max) = 5.441 | 5.816 | 6.074 Mbytes
Step PotEng KinEng TotEng v_fx v_fy v_fz 
     365   -1152449.4            0   -1152449.4 0.0084344395 -0.016936619 -0.038818836 
     567   -1152449.4            0   -1152449.4 3.7094605e-06 8.2297659e-07 -6.5146987e-06 
Loop time of 2.41133 on 104 procs for 202 steps with 288751 atoms

99.8% CPU use with 104 MPI tasks x 1 OpenMP threads

Minimization stats:
  Stopping criterion = energy tolerance
  Energy initial, next-to-last, final = 
     -1152449.44696369  -1152449.44825581  -1152449.44825581
  Force two-norm initial, final = 0.16101002 7.0692547e-05
  Force max component initial, final = 0.087276822 7.1010236e-06
  Final line search alpha, max atom move = 1.0000000 7.1010236e-06
  Iterations, force evaluations = 202 404

MPI task timing breakdown:
Section |  min time  |  avg time  |  max time  |%varavg| %total
---------------------------------------------------------------
Pair    | 0.6143     | 1.7029     | 2.2186     |  35.3 | 70.62
Neigh   | 0          | 0          | 0          |   0.0 |  0.00
Comm    | 0.039718   | 0.39085    | 1.1457     |  50.7 | 16.21
Output  | 0          | 0          | 0          |   0.0 |  0.00
Modify  | 2.7221e-05 | 0.0033416  | 0.0070717  |   2.7 |  0.14
Other   |            | 0.3143     |            |       | 13.03

Nlocal:        2776.45 ave        3961 max           0 min
Histogram: 8 4 4 0 6 10 8 2 28 34
Nghost:        3878.99 ave        5424 max         232 min
Histogram: 8 0 8 0 16 0 8 8 16 40
Neighs:        79213.4 ave      115455 max           0 min
Histogram: 8 4 4 0 10 6 8 8 24 32

Total # of neighbors = 8238196
Ave neighs/atom = 28.530450
Neighbor list builds = 0
Dangerous builds = 0
The dot product: 1.51960916013728e-08
Setting atom values ...
  1 settings made for x
  1 settings made for y
  1 settings made for z
Setting up cg style minimization ...
  Unit style    : metal
  Current step  : 567
Per MPI rank memory allocation (min/avg/max) = 5.441 | 5.816 | 6.074 Mbytes
Step PotEng KinEng TotEng v_fx v_fy v_fz 
     567   -1152449.4            0   -1152449.4 0.0058706057 -0.0096031956  -0.03129564 
     717   -1152449.4            0   -1152449.4 4.8455591e-07 4.1199505e-06 5.7503489e-06 
Loop time of 1.78116 on 104 procs for 150 steps with 288751 atoms

99.9% CPU use with 104 MPI tasks x 1 OpenMP threads

Minimization stats:
  Stopping criterion = energy tolerance
  Energy initial, next-to-last, final = 
      -1152449.4435884  -1152449.44482274  -1152449.44482274
  Force two-norm initial, final = 0.15521538 0.00016284959
  Force max component initial, final = 0.092335004 2.6987494e-05
  Final line search alpha, max atom move = 1.0000000 2.6987494e-05
  Iterations, force evaluations = 150 300

MPI task timing breakdown:
Section |  min time  |  avg time  |  max time  |%varavg| %total
---------------------------------------------------------------
Pair    | 0.45896    | 1.2729     | 1.6608     |  30.5 | 71.46
Neigh   | 0          | 0          | 0          |   0.0 |  0.00
Comm    | 0.026866   | 0.29035    | 0.86257    |  44.3 | 16.30
Output  | 0          | 0          | 0          |   0.0 |  0.00
Modify  | 1.8259e-05 | 0.0024836  | 0.0052875  |   2.3 |  0.14
Other   |            | 0.2155     |            |       | 12.10

Nlocal:        2776.45 ave        3961 max           0 min
Histogram: 8 4 4 0 6 10 8 2 28 34
Nghost:        3878.99 ave        5424 max         232 min
Histogram: 8 0 8 0 16 0 8 8 16 40
Neighs:        79213.4 ave      115457 max           0 min
Histogram: 8 4 4 0 10 6 8 8 24 32

Total # of neighbors = 8238193
Ave neighs/atom = 28.530440
Neighbor list builds = 0
Dangerous builds = 0
The dot product: -1.46838945462046e-08
Setting atom values ...
  1 settings made for x
  1 settings made for y
  1 settings made for z
Setting up cg style minimization ...
  Unit style    : metal
  Current step  : 717
Per MPI rank memory allocation (min/avg/max) = 5.441 | 5.816 | 6.074 Mbytes
Step PotEng KinEng TotEng v_fx v_fy v_fz 
     717   -1152449.4            0   -1152449.4 0.0023163026 -0.0089802859 -0.024925712 
     827   -1152449.4            0   -1152449.4 -7.9861248e-06 -6.0103201e-05 -9.6743662e-05 
Loop time of 1.29003 on 104 procs for 110 steps with 288751 atoms

99.9% CPU use with 104 MPI tasks x 1 OpenMP threads

Minimization stats:
  Stopping criterion = energy tolerance
  Energy initial, next-to-last, final = 
     -1152449.43869518  -1152449.43988059  -1152449.43988059
  Force two-norm initial, final = 0.15169182 0.00028852928
  Force max component initial, final = 0.09603231 9.6743662e-05
  Final line search alpha, max atom move = 1.0000000 9.6743662e-05
  Iterations, force evaluations = 110 220

MPI task timing breakdown:
Section |  min time  |  avg time  |  max time  |%varavg| %total
---------------------------------------------------------------
Pair    | 0.33307    | 0.92517    | 1.203      |  26.0 | 71.72
Neigh   | 0          | 0          | 0          |   0.0 |  0.00
Comm    | 0.021718   | 0.20858    | 0.6244     |  38.2 | 16.17
Output  | 0          | 0          | 0          |   0.0 |  0.00
Modify  | 1.3538e-05 | 0.0018253  | 0.0038891  |   2.0 |  0.14
Other   |            | 0.1544     |            |       | 11.97

Nlocal:        2776.45 ave        3960 max           0 min
Histogram: 8 4 4 0 4 12 8 2 28 34
Nghost:        3878.99 ave        5424 max         232 min
Histogram: 8 0 8 0 16 0 8 8 16 40
Neighs:        79213.4 ave      115434 max           0 min
Histogram: 8 4 4 0 10 6 8 8 24 32

Total # of neighbors = 8238194
Ave neighs/atom = 28.530443
Neighbor list builds = 0
Dangerous builds = 0
The dot product: 2.21553917502254e-07
Setting atom values ...
  1 settings made for x
  1 settings made for y
  1 settings made for z
Setting up cg style minimization ...
  Unit style    : metal
  Current step  : 827
Per MPI rank memory allocation (min/avg/max) = 5.441 | 5.816 | 6.074 Mbytes
Step PotEng KinEng TotEng v_fx v_fy v_fz 
     827   -1152449.4            0   -1152449.4 -0.0028875408 -0.012857515 -0.019553364 
     981   -1152449.4            0   -1152449.4 -3.3271432e-06 -3.3581746e-05 -6.4925023e-05 
Loop time of 1.81828 on 104 procs for 154 steps with 288751 atoms

99.9% CPU use with 104 MPI tasks x 1 OpenMP threads

Minimization stats:
  Stopping criterion = energy tolerance
  Energy initial, next-to-last, final = 
     -1152449.43236544  -1152449.43353224  -1152449.43353224
  Force two-norm initial, final = 0.15013238 0.00019243322
  Force max component initial, final = 0.099049448 6.4925023e-05
  Final line search alpha, max atom move = 1.0000000 6.4925023e-05
  Iterations, force evaluations = 154 308

MPI task timing breakdown:
Section |  min time  |  avg time  |  max time  |%varavg| %total
---------------------------------------------------------------
Pair    | 0.46507    | 1.3029     | 1.6971     |  30.9 | 71.66
Neigh   | 0          | 0          | 0          |   0.0 |  0.00
Comm    | 0.028616   | 0.29384    | 0.87795    |  45.2 | 16.16
Output  | 0          | 0          | 0          |   0.0 |  0.00
Modify  | 1.8136e-05 | 0.0025484  | 0.0053965  |   2.4 |  0.14
Other   |            | 0.219      |            |       | 12.04

Nlocal:        2776.45 ave        3960 max           0 min
Histogram: 8 4 4 0 4 12 8 2 28 34
Nghost:        3878.99 ave        5424 max         232 min
Histogram: 8 0 8 0 16 0 8 8 16 40
Neighs:        79213.4 ave      115434 max           0 min
Histogram: 8 4 4 0 10 6 8 8 24 32

Total # of neighbors = 8238194
Ave neighs/atom = 28.530443
Neighbor list builds = 0
Dangerous builds = 0
The dot product: 1.75574859379814e-07
Setting atom values ...
  1 settings made for x
  1 settings made for y
  1 settings made for z
Setting up cg style minimization ...
  Unit style    : metal
  Current step  : 981
Per MPI rank memory allocation (min/avg/max) = 5.441 | 5.816 | 6.074 Mbytes
Step PotEng KinEng TotEng v_fx v_fy v_fz 
     981   -1152449.4            0   -1152449.4 -0.0078707486 -0.016496068  -0.01452286 
    1000   -1152449.4            0   -1152449.4 8.7818264e-05 0.00039507022 0.00069517385 
    1130   -1152449.4            0   -1152449.4 1.0585546e-05 3.2943346e-05 4.6711042e-05 
Loop time of 1.7561 on 104 procs for 149 steps with 288751 atoms

99.9% CPU use with 104 MPI tasks x 1 OpenMP threads

Minimization stats:
  Stopping criterion = energy tolerance
  Energy initial, next-to-last, final = 
     -1152449.42472361  -1152449.42589751  -1152449.42589751
  Force two-norm initial, final = 0.14951939 0.00014904236
  Force max component initial, final = 0.10165884 4.6711042e-05
  Final line search alpha, max atom move = 1.0000000 4.6711042e-05
  Iterations, force evaluations = 149 298

MPI task timing breakdown:
Section |  min time  |  avg time  |  max time  |%varavg| %total
---------------------------------------------------------------
Pair    | 0.45489    | 1.2541     | 1.6308     |  30.2 | 71.41
Neigh   | 0          | 0          | 0          |   0.0 |  0.00
Comm    | 0.027957   | 0.2839     | 0.84082    |  44.0 | 16.17
Output  | 0.00024776 | 0.0002567  | 0.0003401  |   0.0 |  0.01
Modify  | 2.0073e-05 | 0.0024702  | 0.0053032  |   2.3 |  0.14
Other   |            | 0.2154     |            |       | 12.27

Nlocal:        2776.45 ave        3959 max           0 min
Histogram: 8 4 4 0 4 12 8 2 28 34
Nghost:        3878.99 ave        5424 max         232 min
Histogram: 8 0 8 0 16 0 8 8 16 40
Neighs:        79213.4 ave      115401 max           0 min
Histogram: 8 4 4 0 10 6 8 8 24 32

Total # of neighbors = 8238194
Ave neighs/atom = 28.530443
Neighbor list builds = 0
Dangerous builds = 0
The dot product: -2.06142685233026e-07
Setting atom values ...
  1 settings made for x
  1 settings made for y
  1 settings made for z
Setting up cg style minimization ...
  Unit style    : metal
  Current step  : 1130
Per MPI rank memory allocation (min/avg/max) = 5.441 | 5.816 | 6.074 Mbytes
Step PotEng KinEng TotEng v_fx v_fy v_fz 
    1130   -1152449.4            0   -1152449.4 -0.010852874 -0.017231447 -0.010246299 
    1285   -1152449.4            0   -1152449.4 4.6558669e-06 1.1833744e-05 1.6842958e-05 
Loop time of 1.80253 on 104 procs for 155 steps with 288751 atoms

99.9% CPU use with 104 MPI tasks x 1 OpenMP threads

Minimization stats:
  Stopping criterion = energy tolerance
  Energy initial, next-to-last, final = 
      -1152449.4158027  -1152449.41698657  -1152449.41698657
  Force two-norm initial, final = 0.14931446 0.00015247929
  Force max component initial, final = 0.10383614 1.8493724e-05
  Final line search alpha, max atom move = 1.0000000 1.8493724e-05
  Iterations, force evaluations = 155 310

MPI task timing breakdown:
Section |  min time  |  avg time  |  max time  |%varavg| %total
---------------------------------------------------------------
Pair    | 0.46971    | 1.3086     | 1.6931     |  30.9 | 72.60
Neigh   | 0          | 0          | 0          |   0.0 |  0.00
Comm    | 0.029257   | 0.29177    | 0.8815     |  45.9 | 16.19
Output  | 0          | 0          | 0          |   0.0 |  0.00
Modify  | 1.8385e-05 | 0.002557   | 0.0054206  |   2.4 |  0.14
Other   |            | 0.1996     |            |       | 11.07

Nlocal:        2776.45 ave        3959 max           0 min
Histogram: 8 4 4 0 4 12 8 2 28 34
Nghost:        3878.99 ave        5424 max         232 min
Histogram: 8 0 8 0 16 0 8 8 16 40
Neighs:        79213.4 ave      115405 max           0 min
Histogram: 8 4 4 0 10 6 8 8 24 32

Total # of neighbors = 8238193
Ave neighs/atom = 28.530440
Neighbor list builds = 0
Dangerous builds = 0
The dot product: -8.53194795349434e-08
Setting atom values ...
  1 settings made for x
  1 settings made for y
  1 settings made for z
Setting up cg style minimization ...
  Unit style    : metal
  Current step  : 1285
Per MPI rank memory allocation (min/avg/max) = 5.441 | 5.816 | 6.074 Mbytes
Step PotEng KinEng TotEng v_fx v_fy v_fz 
    1285   -1152449.4            0   -1152449.4 -0.011632609 -0.015574244 -0.0069675324 
    1410   -1152449.4            0   -1152449.4 -5.6488877e-06 1.1720601e-05 5.5624682e-05 
Loop time of 1.46064 on 104 procs for 125 steps with 288751 atoms

99.9% CPU use with 104 MPI tasks x 1 OpenMP threads

Minimization stats:
  Stopping criterion = energy tolerance
  Energy initial, next-to-last, final = 
     -1152449.40558941  -1152449.40677487  -1152449.40677487
  Force two-norm initial, final = 0.14942072 0.00017331514
  Force max component initial, final = 0.10558973 5.5624682e-05
  Final line search alpha, max atom move = 1.0000000 5.5624682e-05
  Iterations, force evaluations = 125 250

MPI task timing breakdown:
Section |  min time  |  avg time  |  max time  |%varavg| %total
---------------------------------------------------------------
Pair    | 0.3786     | 1.0526     | 1.3694     |  27.7 | 72.07
Neigh   | 0          | 0          | 0          |   0.0 |  0.00
Comm    | 0.022756   | 0.23615    | 0.70816    |  40.8 | 16.17
Output  | 0          | 0          | 0          |   0.0 |  0.00
Modify  | 1.5494e-05 | 0.002074   | 0.004413   |   2.2 |  0.14
Other   |            | 0.1698     |            |       | 11.62

Nlocal:        2776.45 ave        3958 max           0 min
Histogram: 8 4 4 0 4 12 8 2 28 34
Nghost:        3878.99 ave        5424 max         232 min
Histogram: 8 0 8 0 16 0 8 8 16 40
Neighs:        79213.4 ave      115368 max           0 min
Histogram: 8 4 4 0 10 6 8 8 24 32

Total # of neighbors = 8238195
Ave neighs/atom = 28.530447
Neighbor list builds = 0
Dangerous builds = 0
The dot product: -7.72245000441139e-08
Setting atom values ...
  1 settings made for x
  1 settings made for y
  1 settings made for z
Setting up cg style minimization ...
  Unit style    : metal
  Current step  : 1410
Per MPI rank memory allocation (min/avg/max) = 5.441 | 5.816 | 6.074 Mbytes
Step PotEng KinEng TotEng v_fx v_fy v_fz 
    1410   -1152449.4            0   -1152449.4 -0.010483462 -0.012410172 -0.0044727455 
    1524   -1152449.4            0   -1152449.4 5.6186191e-06 -2.1388157e-05 -8.9788478e-05 
Loop time of 1.33911 on 104 procs for 114 steps with 288751 atoms

99.9% CPU use with 104 MPI tasks x 1 OpenMP threads

Minimization stats:
  Stopping criterion = energy tolerance
  Energy initial, next-to-last, final = 
     -1152449.39404951  -1152449.39522747  -1152449.39522747
  Force two-norm initial, final = 0.14970681 0.00026007453
  Force max component initial, final = 0.10707968 8.9788478e-05
  Final line search alpha, max atom move = 1.0000000 8.9788478e-05
  Iterations, force evaluations = 114 228

MPI task timing breakdown:
Section |  min time  |  avg time  |  max time  |%varavg| %total
---------------------------------------------------------------
Pair    | 0.34826    | 0.96753    | 1.2558     |  26.5 | 72.25
Neigh   | 0          | 0          | 0          |   0.0 |  0.00
Comm    | 0.020203   | 0.21906    | 0.65607    |  39.0 | 16.36
Output  | 0          | 0          | 0          |   0.0 |  0.00
Modify  | 1.3495e-05 | 0.0018896  | 0.0040221  |   2.0 |  0.14
Other   |            | 0.1506     |            |       | 11.25

Nlocal:        2776.45 ave        3957 max           0 min
Histogram: 8 4 4 0 4 12 8 2 28 34
Nghost:        3878.99 ave        5424 max         232 min
Histogram: 8 0 8 0 16 0 8 8 16 40
Neighs:        79213.4 ave      115333 max           0 min
Histogram: 8 4 4 0 10 6 8 8 24 32

Total # of neighbors = 8238196
Ave neighs/atom = 28.530450
Neighbor list builds = 0
Dangerous builds = 0
The dot product: 1.36927005098085e-07
Setting atom values ...
  1 settings made for x
  1 settings made for y
  1 settings made for z
Setting up cg style minimization ...
  Unit style    : metal
  Current step  : 1524
Per MPI rank memory allocation (min/avg/max) = 5.441 | 5.816 | 6.074 Mbytes
Step PotEng KinEng TotEng v_fx v_fy v_fz 
    1524   -1152449.4            0   -1152449.4 -0.0079235599 -0.0086156294 -0.0028113061 
    1678   -1152449.4            0   -1152449.4 -7.3339193e-06 -1.4035475e-05 -2.3709409e-05 
Loop time of 1.82149 on 104 procs for 154 steps with 288751 atoms

99.9% CPU use with 104 MPI tasks x 1 OpenMP threads

Minimization stats:
  Stopping criterion = energy tolerance
  Energy initial, next-to-last, final = 
     -1152449.38114642  -1152449.38231356  -1152449.38231356
  Force two-norm initial, final = 0.1502144 0.00019929457
  Force max component initial, final = 0.10844014 2.8706012e-05
  Final line search alpha, max atom move = 1.0000000 2.8706012e-05
  Iterations, force evaluations = 154 308

MPI task timing breakdown:
Section |  min time  |  avg time  |  max time  |%varavg| %total
---------------------------------------------------------------
Pair    | 0.47179    | 1.3024     | 1.6922     |  30.7 | 71.50
Neigh   | 0          | 0          | 0          |   0.0 |  0.00
Comm    | 0.027043   | 0.2957     | 0.87943    |  45.1 | 16.23
Output  | 0          | 0          | 0          |   0.0 |  0.00
Modify  | 1.8257e-05 | 0.0025473  | 0.0054401  |   2.4 |  0.14
Other   |            | 0.2209     |            |       | 12.13

Nlocal:        2776.45 ave        3953 max           0 min
Histogram: 8 4 4 0 4 12 8 0 30 34
Nghost:        3878.99 ave        5424 max         232 min
Histogram: 8 0 8 0 16 0 8 8 16 40
Neighs:        79213.4 ave      115227 max           0 min
Histogram: 8 4 4 0 10 6 8 8 24 32

Total # of neighbors = 8238193
Ave neighs/atom = 28.530440
Neighbor list builds = 0
Dangerous builds = 0
The dot product: 9.22481332947043e-08
Setting atom values ...
  1 settings made for x
  1 settings made for y
  1 settings made for z
Setting up cg style minimization ...
  Unit style    : metal
  Current step  : 1678
Per MPI rank memory allocation (min/avg/max) = 5.441 | 5.816 | 6.074 Mbytes
Step PotEng KinEng TotEng v_fx v_fy v_fz 
    1678   -1152449.4            0   -1152449.4 -0.0045067752 -0.0046186607 -0.0014631741 
    1814   -1152449.4            0   -1152449.4 9.4214636e-06 3.8352346e-06 -1.8168364e-05 
Loop time of 1.57508 on 104 procs for 136 steps with 288751 atoms

99.9% CPU use with 104 MPI tasks x 1 OpenMP threads

Minimization stats:
  Stopping criterion = energy tolerance
  Energy initial, next-to-last, final = 
     -1152449.36685641  -1152449.36801326  -1152449.36801326
  Force two-norm initial, final = 0.15091887 0.00015312602
  Force max component initial, final = 0.10983678 3.7703527e-05
  Final line search alpha, max atom move = 1.0000000 3.7703527e-05
  Iterations, force evaluations = 136 272

MPI task timing breakdown:
Section |  min time  |  avg time  |  max time  |%varavg| %total
---------------------------------------------------------------
Pair    | 0.41101    | 1.1488     | 1.4838     |  28.9 | 72.93
Neigh   | 0          | 0          | 0          |   0.0 |  0.00
Comm    | 0.02554    | 0.25593    | 0.77092    |  42.9 | 16.25
Output  | 0          | 0          | 0          |   0.0 |  0.00
Modify  | 1.757e-05  | 0.0022499  | 0.0047679  |   2.2 |  0.14
Other   |            | 0.1681     |            |       | 10.68

Nlocal:        2776.45 ave        3949 max           0 min
Histogram: 8 4 4 0 4 12 8 0 28 36
Nghost:        3879.01 ave        5424 max         232 min
Histogram: 8 0 8 0 16 0 8 8 16 40
Neighs:        79213.4 ave      115090 max           0 min
Histogram: 8 4 4 0 10 6 8 8 24 32

Total # of neighbors = 8238192
Ave neighs/atom = 28.530436
Neighbor list builds = 0
Dangerous builds = 0
The dot product: -1.98652923432432e-08
Setting atom values ...
  1 settings made for x
  1 settings made for y
  1 settings made for z
Setting up cg style minimization ...
  Unit style    : metal
  Current step  : 1814
Per MPI rank memory allocation (min/avg/max) = 5.441 | 5.816 | 6.074 Mbytes
Step PotEng KinEng TotEng v_fx v_fy v_fz 
    1814   -1152449.4            0   -1152449.4 -0.0006604794 -0.00077145366 -0.00066531291 
    2000   -1152449.4            0   -1152449.4 -7.5535451e-07 -1.8361547e-06 -4.3760692e-06 
    2045   -1152449.4            0   -1152449.4 1.7278132e-06 2.7419349e-06 4.4836814e-06 
Loop time of 2.69249 on 104 procs for 231 steps with 288751 atoms

99.9% CPU use with 104 MPI tasks x 1 OpenMP threads

Minimization stats:
  Stopping criterion = energy tolerance
  Energy initial, next-to-last, final = 
     -1152449.35116369  -1152449.35230887  -1152449.35230887
  Force two-norm initial, final = 0.15188714 1.5448031e-05
  Force max component initial, final = 0.11136944 4.4836814e-06
  Final line search alpha, max atom move = 1.0000000 4.4836814e-06
  Iterations, force evaluations = 231 462

MPI task timing breakdown:
Section |  min time  |  avg time  |  max time  |%varavg| %total
---------------------------------------------------------------
Pair    | 0.70203    | 1.938      | 2.5158     |  37.5 | 71.98
Neigh   | 0          | 0          | 0          |   0.0 |  0.00
Comm    | 0.041841   | 0.43379    | 1.3096     |  55.4 | 16.11
Output  | 0.00028106 | 0.00029657 | 0.00046492 |   0.0 |  0.01
Modify  | 2.7749e-05 | 0.0038098  | 0.0080896  |   2.9 |  0.14
Other   |            | 0.3166     |            |       | 11.76

Nlocal:        2776.45 ave        3947 max           0 min
Histogram: 8 4 4 0 4 12 8 0 28 36
Nghost:        3879.01 ave        5424 max         232 min
Histogram: 8 0 8 0 16 0 8 8 16 40
Neighs:        79213.4 ave      115030 max           0 min
Histogram: 8 4 4 0 10 6 8 8 24 32

Total # of neighbors = 8238192
Ave neighs/atom = 28.530436
Neighbor list builds = 0
Dangerous builds = 0
The dot product: -1.20122247904771e-08
Setting atom values ...
  1 settings made for x
  1 settings made for y
  1 settings made for z
Setting up cg style minimization ...
  Unit style    : metal
  Current step  : 2045
Per MPI rank memory allocation (min/avg/max) = 5.441 | 5.816 | 6.074 Mbytes
Step PotEng KinEng TotEng v_fx v_fy v_fz 
    2045   -1152449.3            0   -1152449.3 0.0030549202 0.0027611015 0.0002659183 
    2202   -1152449.3            0   -1152449.3 -1.0066498e-05 2.6730135e-07 3.5686229e-05 
Loop time of 1.84969 on 104 procs for 157 steps with 288751 atoms

99.9% CPU use with 104 MPI tasks x 1 OpenMP threads

Minimization stats:
  Stopping criterion = energy tolerance
  Energy initial, next-to-last, final = 
     -1152449.33404492  -1152449.33518123  -1152449.33518123
  Force two-norm initial, final = 0.15307967 0.00012253857
  Force max component initial, final = 0.11306352 3.5686229e-05
  Final line search alpha, max atom move = 1.0000000 3.5686229e-05
  Iterations, force evaluations = 157 314

MPI task timing breakdown:
Section |  min time  |  avg time  |  max time  |%varavg| %total
---------------------------------------------------------------
Pair    | 0.47696    | 1.3261     | 1.7242     |  31.1 | 71.70
Neigh   | 0          | 0          | 0          |   0.0 |  0.00
Comm    | 0.02904    | 0.29856    | 0.89339    |  45.7 | 16.14
Output  | 0          | 0          | 0          |   0.0 |  0.00
Modify  | 1.8663e-05 | 0.0025956  | 0.0055218  |   2.4 |  0.14
Other   |            | 0.2224     |            |       | 12.02

Nlocal:        2776.45 ave        3942 max           0 min
Histogram: 8 4 4 0 4 12 8 0 28 36
Nghost:        3879.01 ave        5424 max         232 min
Histogram: 8 0 8 0 16 0 8 8 16 40
Neighs:        79213.4 ave      114891 max           0 min
Histogram: 8 4 4 0 10 6 8 8 22 34

Total # of neighbors = 8238191
Ave neighs/atom = 28.530433
Neighbor list builds = 0
Dangerous builds = 0
The dot product: -1.77787243012502e-08
Setting atom values ...
  1 settings made for x
  1 settings made for y
  1 settings made for z
Setting up cg style minimization ...
  Unit style    : metal
  Current step  : 2202
Per MPI rank memory allocation (min/avg/max) = 5.441 | 5.816 | 6.074 Mbytes
Step PotEng KinEng TotEng v_fx v_fy v_fz 
    2202   -1152449.3            0   -1152449.3  0.006576252 0.0059844934 0.0010225103 
    2316   -1152449.3            0   -1152449.3 -2.4914605e-05 -2.7638095e-05 -2.3693216e-05 
Loop time of 1.32254 on 104 procs for 114 steps with 288751 atoms

99.9% CPU use with 104 MPI tasks x 1 OpenMP threads

Minimization stats:
  Stopping criterion = energy tolerance
  Energy initial, next-to-last, final = 
     -1152449.31547988  -1152449.31661528  -1152449.31661528
  Force two-norm initial, final = 0.15453715 0.00022000257
  Force max component initial, final = 0.11497582 3.0828805e-05
  Final line search alpha, max atom move = 1.0000000 3.0828805e-05
  Iterations, force evaluations = 114 228

MPI task timing breakdown:
Section |  min time  |  avg time  |  max time  |%varavg| %total
---------------------------------------------------------------
Pair    | 0.34629    | 0.95914    | 1.2435     |  26.5 | 72.52
Neigh   | 0          | 0          | 0          |   0.0 |  0.00
Comm    | 0.020411   | 0.21389    | 0.64368    |  39.1 | 16.17
Output  | 0          | 0          | 0          |   0.0 |  0.00
Modify  | 1.39e-05   | 0.0018871  | 0.0040227  |   2.0 |  0.14
Other   |            | 0.1476     |            |       | 11.16

Nlocal:        2776.45 ave        3932 max           0 min
Histogram: 8 4 4 0 4 12 8 0 26 38
Nghost:        3878.99 ave        5424 max         232 min
Histogram: 8 0 8 0 16 0 8 8 16 40
Neighs:        79213.4 ave      114565 max           0 min
Histogram: 8 4 4 0 8 8 8 8 20 36

Total # of neighbors = 8238191
Ave neighs/atom = 28.530433
Neighbor list builds = 0
Dangerous builds = 0
The dot product: 2.8371359221302e-08
Setting atom values ...
  1 settings made for x
  1 settings made for y
  1 settings made for z
Setting up cg style minimization ...
  Unit style    : metal
  Current step  : 2316
Per MPI rank memory allocation (min/avg/max) = 5.441 | 5.816 | 6.074 Mbytes
Step PotEng KinEng TotEng v_fx v_fy v_fz 
    2316   -1152449.3            0   -1152449.3 0.0099249896 0.0090240266 0.0016173211 
    2523   -1152449.3            0   -1152449.3 1.7697425e-07 1.009225e-06 3.4667624e-06 
Loop time of 2.43131 on 104 procs for 207 steps with 288751 atoms

99.9% CPU use with 104 MPI tasks x 1 OpenMP threads

Minimization stats:
  Stopping criterion = energy tolerance
  Energy initial, next-to-last, final = 
     -1152449.29545798  -1152449.29660119  -1152449.29660119
  Force two-norm initial, final = 0.15631036 3.0757641e-05
  Force max component initial, final = 0.11709843 3.4667624e-06
  Final line search alpha, max atom move = 1.0000000 3.4667624e-06
  Iterations, force evaluations = 207 414

MPI task timing breakdown:
Section |  min time  |  avg time  |  max time  |%varavg| %total
---------------------------------------------------------------
Pair    | 0.62835    | 1.7491     | 2.2639     |  35.7 | 71.94
Neigh   | 0          | 0          | 0          |   0.0 |  0.00
Comm    | 0.037059   | 0.39414    | 1.1862     |  52.6 | 16.21
Output  | 0          | 0          | 0          |   0.0 |  0.00
Modify  | 2.4377e-05 | 0.003421   | 0.0072858  |   2.8 |  0.14
Other   |            | 0.2846     |            |       | 11.71

Nlocal:        2776.45 ave        3930 max           0 min
Histogram: 8 4 4 0 4 12 8 0 26 38
Nghost:        3879.01 ave        5424 max         232 min
Histogram: 8 0 8 0 16 0 8 8 16 40
Neighs:        79213.4 ave      114486 max           0 min
Histogram: 8 4 4 0 8 8 8 8 20 36

Total # of neighbors = 8238191
Ave neighs/atom = 28.530433
Neighbor list builds = 0
Dangerous builds = 0
The dot product: -1.31986696812889e-09
Setting atom values ...
  1 settings made for x
  1 settings made for y
  1 settings made for z
Setting up cg style minimization ...
  Unit style    : metal
  Current step  : 2523
Per MPI rank memory allocation (min/avg/max) = 5.441 | 5.816 | 6.074 Mbytes
Step PotEng KinEng TotEng v_fx v_fy v_fz 
    2523   -1152449.3            0   -1152449.3  0.013163284  0.012064018 0.0022801736 
    2673   -1152449.3            0   -1152449.3 2.3662361e-06 -1.6419151e-06 -1.5160432e-05 
Loop time of 1.73906 on 104 procs for 150 steps with 288751 atoms

99.9% CPU use with 104 MPI tasks x 1 OpenMP threads

Minimization stats:
  Stopping criterion = energy tolerance
  Energy initial, next-to-last, final = 
      -1152449.2739739  -1152449.27513358  -1152449.27513358
  Force two-norm initial, final = 0.15844725 0.00012876531
  Force max component initial, final = 0.11937668 2.4930543e-05
  Final line search alpha, max atom move = 1.0000000 2.4930543e-05
  Iterations, force evaluations = 150 300

MPI task timing breakdown:
Section |  min time  |  avg time  |  max time  |%varavg| %total
---------------------------------------------------------------
Pair    | 0.4566     | 1.2611     | 1.6346     |  30.3 | 72.52
Neigh   | 0          | 0          | 0          |   0.0 |  0.00
Comm    | 0.028278   | 0.28128    | 0.84273    |  44.7 | 16.17
Output  | 0          | 0          | 0          |   0.0 |  0.00
Modify  | 1.8299e-05 | 0.0024786  | 0.0052608  |   2.3 |  0.14
Other   |            | 0.1942     |            |       | 11.17

Nlocal:        2776.45 ave        3930 max           0 min
Histogram: 8 4 4 0 4 12 8 0 26 38
Nghost:        3879.09 ave        5424 max         232 min
Histogram: 8 0 8 0 16 0 8 8 16 40
Neighs:        79213.3 ave      114486 max           0 min
Histogram: 8 4 4 0 8 8 8 8 20 36

Total # of neighbors = 8238188
Ave neighs/atom = 28.530422
Neighbor list builds = 0
Dangerous builds = 0
The dot product: 9.20363599606565e-09
Setting atom values ...
  1 settings made for x
  1 settings made for y
  1 settings made for z
Setting up cg style minimization ...
  Unit style    : metal
  Current step  : 2673
Per MPI rank memory allocation (min/avg/max) = 5.441 | 5.816 | 6.074 Mbytes
Step PotEng KinEng TotEng v_fx v_fy v_fz 
    2673   -1152449.3            0   -1152449.3  0.016280622  0.015011142 0.0024377568 
    2807   -1152449.3            0   -1152449.3 -1.2678285e-06 -7.3468371e-06 -2.5522452e-05 
Loop time of 1.56232 on 104 procs for 134 steps with 288751 atoms

99.9% CPU use with 104 MPI tasks x 1 OpenMP threads

Minimization stats:
  Stopping criterion = energy tolerance
  Energy initial, next-to-last, final = 
      -1152449.2510256  -1152449.25221237  -1152449.25221237
  Force two-norm initial, final = 0.16101303 0.00015666397
  Force max component initial, final = 0.12187035 2.5522452e-05
  Final line search alpha, max atom move = 1.0000000 2.5522452e-05
  Iterations, force evaluations = 134 268

MPI task timing breakdown:
Section |  min time  |  avg time  |  max time  |%varavg| %total
---------------------------------------------------------------
Pair    | 0.40733    | 1.136      | 1.4679     |  28.8 | 72.71
Neigh   | 0          | 0          | 0          |   0.0 |  0.00
Comm    | 0.024861   | 0.2554     | 0.76664    |  42.6 | 16.35
Output  | 0          | 0          | 0          |   0.0 |  0.00
Modify  | 1.6317e-05 | 0.00222    | 0.004711   |   2.2 |  0.14
Other   |            | 0.1687     |            |       | 10.80

Nlocal:        2776.45 ave        3930 max           0 min
Histogram: 8 4 4 0 4 12 8 0 26 38
Nghost:        3879.07 ave        5424 max         232 min
Histogram: 8 0 8 0 16 0 8 8 16 40
Neighs:        79213.3 ave      114486 max           0 min
Histogram: 8 4 4 0 8 8 8 8 20 36

Total # of neighbors = 8238188
Ave neighs/atom = 28.530422
Neighbor list builds = 0
Dangerous builds = 0
The dot product: -5.63415873173104e-09
Setting atom values ...
  1 settings made for x
  1 settings made for y
  1 settings made for z
Setting up cg style minimization ...
  Unit style    : metal
  Current step  : 2807
Per MPI rank memory allocation (min/avg/max) = 5.441 | 5.816 | 6.074 Mbytes
Step PotEng KinEng TotEng v_fx v_fy v_fz 
    2807   -1152449.2            0   -1152449.2   0.01919003  0.017906558 0.0024006376 
    2972   -1152449.2            0   -1152449.2 -1.1021274e-05 -5.6713368e-06 1.753153e-05 
Loop time of 1.92303 on 104 procs for 165 steps with 288751 atoms

99.9% CPU use with 104 MPI tasks x 1 OpenMP threads

Minimization stats:
  Stopping criterion = energy tolerance
  Energy initial, next-to-last, final = 
     -1152449.22661816  -1152449.22784237  -1152449.22784237
  Force two-norm initial, final = 0.16399171 0.000190926
  Force max component initial, final = 0.12449953 4.9426986e-05
  Final line search alpha, max atom move = 1.0000000 4.9426986e-05
  Iterations, force evaluations = 165 330

MPI task timing breakdown:
Section |  min time  |  avg time  |  max time  |%varavg| %total
---------------------------------------------------------------
Pair    | 0.50059    | 1.3897     | 1.8038     |  31.9 | 72.26
Neigh   | 0          | 0          | 0          |   0.0 |  0.00
Comm    | 0.029877   | 0.31328    | 0.94194    |  46.8 | 16.29
Output  | 0          | 0          | 0          |   0.0 |  0.00
Modify  | 1.9767e-05 | 0.0027279  | 0.0057754  |   2.5 |  0.14
Other   |            | 0.2174     |            |       | 11.30

Nlocal:        2776.45 ave        3930 max           0 min
Histogram: 8 4 4 0 4 12 8 0 26 38
Nghost:        3879.07 ave        5424 max         232 min
Histogram: 8 0 8 0 16 0 8 8 16 40
Neighs:        79213.3 ave      114486 max           0 min
Histogram: 8 4 4 0 8 8 8 8 20 36

Total # of neighbors = 8238188
Ave neighs/atom = 28.530422
Neighbor list builds = 0
Dangerous builds = 0
The dot product: -5.87265829031872e-08
Setting atom values ...
  1 settings made for x
  1 settings made for y
  1 settings made for z
Setting up cg style minimization ...
  Unit style    : metal
  Current step  : 2972
Per MPI rank memory allocation (min/avg/max) = 5.441 | 5.816 | 6.074 Mbytes
Step PotEng KinEng TotEng v_fx v_fy v_fz 
    2972   -1152449.2            0   -1152449.2  0.021790981  0.020714908  0.002295587 
    3000   -1152449.2            0   -1152449.2 3.6185315e-05 0.00013745563 0.00042490469 
    3102   -1152449.2            0   -1152449.2 -1.1746317e-06 5.2186295e-06 2.5762175e-05 
Loop time of 1.53201 on 104 procs for 130 steps with 288751 atoms

99.9% CPU use with 104 MPI tasks x 1 OpenMP threads

Minimization stats:
  Stopping criterion = energy tolerance
  Energy initial, next-to-last, final = 
     -1152449.20076367  -1152449.20203496  -1152449.20203496
  Force two-norm initial, final = 0.16736623 0.0001506654
  Force max component initial, final = 0.1272617 2.5762175e-05
  Final line search alpha, max atom move = 1.0000000 2.5762175e-05
  Iterations, force evaluations = 130 260

MPI task timing breakdown:
Section |  min time  |  avg time  |  max time  |%varavg| %total
---------------------------------------------------------------
Pair    | 0.39276    | 1.1032     | 1.4241     |  28.3 | 72.01
Neigh   | 0          | 0          | 0          |   0.0 |  0.00
Comm    | 0.02288    | 0.25007    | 0.74475    |  41.6 | 16.32
Output  | 0.00014583 | 0.00015139 | 0.0002393  |   0.0 |  0.01
Modify  | 1.5648e-05 | 0.002152   | 0.0045939  |   2.2 |  0.14
Other   |            | 0.1764     |            |       | 11.52

Nlocal:        2776.45 ave        3930 max           0 min
Histogram: 8 4 4 0 4 12 8 0 26 38
Nghost:        3879.07 ave        5424 max         232 min
Histogram: 8 0 8 0 16 0 8 8 16 40
Neighs:        79213.3 ave      114487 max           0 min
Histogram: 8 4 4 0 8 8 8 8 20 36

Total # of neighbors = 8238183
Ave neighs/atom = 28.530405
Neighbor list builds = 0
Dangerous builds = 0
The dot product: -5.70708383570703e-10
Setting atom values ...
  1 settings made for x
  1 settings made for y
  1 settings made for z
Setting up cg style minimization ...
  Unit style    : metal
  Current step  : 3102
Per MPI rank memory allocation (min/avg/max) = 5.441 | 5.816 | 6.074 Mbytes
Step PotEng KinEng TotEng v_fx v_fy v_fz 
    3102   -1152449.2            0   -1152449.2  0.025225154  0.024370666 0.0014459116 
    3223   -1152449.2            0   -1152449.2 4.8430487e-06 -7.0765702e-06 -4.7529843e-05 
Loop time of 1.41838 on 104 procs for 121 steps with 288751 atoms

99.9% CPU use with 104 MPI tasks x 1 OpenMP threads

Minimization stats:
  Stopping criterion = energy tolerance
  Energy initial, next-to-last, final = 
     -1152449.17348597  -1152449.17482749  -1152449.17482749
  Force two-norm initial, final = 0.17144235 0.00020611133
  Force max component initial, final = 0.13025579 4.7529843e-05
  Final line search alpha, max atom move = 1.0000000 4.7529843e-05
  Iterations, force evaluations = 121 242

MPI task timing breakdown:
Section |  min time  |  avg time  |  max time  |%varavg| %total
---------------------------------------------------------------
Pair    | 0.36893    | 1.0247     | 1.3283     |  27.4 | 72.24
Neigh   | 0          | 0          | 0          |   0.0 |  0.00
Comm    | 0.021818   | 0.22981    | 0.69581    |  40.5 | 16.20
Output  | 0          | 0          | 0          |   0.0 |  0.00
Modify  | 1.6068e-05 | 0.0020104  | 0.00426    |   2.1 |  0.14
Other   |            | 0.1619     |            |       | 11.41

Nlocal:        2776.45 ave        3930 max           0 min
Histogram: 8 4 4 0 4 12 8 0 26 38
Nghost:        3879.07 ave        5424 max         232 min
Histogram: 8 0 8 0 16 0 8 8 16 40
Neighs:        79213.3 ave      114487 max           0 min
Histogram: 8 4 4 0 8 8 8 8 20 36

Total # of neighbors = 8238183
Ave neighs/atom = 28.530405
Neighbor list builds = 0
Dangerous builds = 0
The dot product: 3.25990071403095e-08
Setting atom values ...
  1 settings made for x
  1 settings made for y
  1 settings made for z
Setting up cg style minimization ...
  Unit style    : metal
  Current step  : 3223
Per MPI rank memory allocation (min/avg/max) = 5.441 | 5.816 | 6.074 Mbytes
Step PotEng KinEng TotEng v_fx v_fy v_fz 
    3223   -1152449.1            0   -1152449.1  0.030355184  0.029050812 -0.0037434747 
    3394   -1152449.1            0   -1152449.1 -8.4277266e-06 -9.7259538e-06 -5.6825167e-06 
Loop time of 2.01109 on 104 procs for 171 steps with 288751 atoms

99.9% CPU use with 104 MPI tasks x 1 OpenMP threads

Minimization stats:
  Stopping criterion = energy tolerance
  Energy initial, next-to-last, final = 
     -1152449.14482387   -1152449.1462884   -1152449.1462884
  Force two-norm initial, final = 0.17599187 0.00015628501
  Force max component initial, final = 0.13336119 2.1892474e-05
  Final line search alpha, max atom move = 1.0000000 2.1892474e-05
  Iterations, force evaluations = 171 342

MPI task timing breakdown:
Section |  min time  |  avg time  |  max time  |%varavg| %total
---------------------------------------------------------------
Pair    | 0.52055    | 1.4468     | 1.8641     |  32.4 | 71.94
Neigh   | 0          | 0          | 0          |   0.0 |  0.00
Comm    | 0.033672   | 0.32527    | 0.9684     |  47.5 | 16.17
Output  | 0          | 0          | 0          |   0.0 |  0.00
Modify  | 2.0352e-05 | 0.0028272  | 0.0060087  |   2.5 |  0.14
Other   |            | 0.2362     |            |       | 11.75

Nlocal:        2776.45 ave        3930 max           0 min
Histogram: 8 4 4 0 4 12 8 0 26 38
Nghost:        3879.07 ave        5424 max         232 min
Histogram: 8 0 8 0 16 0 8 8 16 40
Neighs:        79213.3 ave      114487 max           0 min
Histogram: 8 4 4 0 8 8 8 8 20 36

Total # of neighbors = 8238185
Ave neighs/atom = 28.530412
Neighbor list builds = 0
Dangerous builds = 0
The dot product: -1.18058268053602e-07
Setting atom values ...
  1 settings made for x
  1 settings made for y
  1 settings made for z
Setting up cg style minimization ...
  Unit style    : metal
  Current step  : 3394
Per MPI rank memory allocation (min/avg/max) = 5.441 | 5.816 | 6.074 Mbytes
Step PotEng KinEng TotEng v_fx v_fy v_fz 
    3394   -1152449.1            0   -1152449.1  0.038981034  0.036290477 -0.017059752 
    3558   -1152449.1            0   -1152449.1 -3.6020227e-07 9.2964477e-08 1.9036218e-06 
Loop time of 1.90031 on 104 procs for 164 steps with 288751 atoms

99.9% CPU use with 104 MPI tasks x 1 OpenMP threads

Minimization stats:
  Stopping criterion = energy tolerance
  Energy initial, next-to-last, final = 
     -1152449.11471571  -1152449.11645576  -1152449.11645576
  Force two-norm initial, final = 0.18325495 6.4624775e-05
  Force max component initial, final = 0.13706855 1.3488918e-05
  Final line search alpha, max atom move = 1.0000000 1.3488918e-05
  Iterations, force evaluations = 164 328

MPI task timing breakdown:
Section |  min time  |  avg time  |  max time  |%varavg| %total
---------------------------------------------------------------
Pair    | 0.50082    | 1.3794     | 1.7849     |  31.6 | 72.59
Neigh   | 0          | 0          | 0          |   0.0 |  0.00
Comm    | 0.02828    | 0.3078     | 0.92568    |  47.0 | 16.20
Output  | 0          | 0          | 0          |   0.0 |  0.00
Modify  | 1.9729e-05 | 0.0027139  | 0.0058022  |   2.5 |  0.14
Other   |            | 0.2104     |            |       | 11.07

Nlocal:        2776.45 ave        3930 max           0 min
Histogram: 8 4 4 0 4 12 8 0 26 38
Nghost:        3879.10 ave        5425 max         232 min
Histogram: 8 0 8 0 16 0 8 8 16 40
Neighs:        79213.3 ave      114487 max           0 min
Histogram: 8 4 4 0 8 8 8 8 20 36

Total # of neighbors = 8238183
Ave neighs/atom = 28.530405
Neighbor list builds = 0
Dangerous builds = 0
The dot product: -1.211899132228e-08
Setting atom values ...
  1 settings made for x
  1 settings made for y
  1 settings made for z
Setting up cg style minimization ...
  Unit style    : metal
  Current step  : 3558
Per MPI rank memory allocation (min/avg/max) = 5.441 | 5.816 | 6.074 Mbytes
Step PotEng KinEng TotEng v_fx v_fy v_fz 
    3558   -1152449.1            0   -1152449.1  0.047941315  0.046380726 -0.029207327 
    3738   -1152449.1            0   -1152449.1 -2.0031372e-06 -4.2671547e-06 -8.6109018e-06 
Loop time of 2.09035 on 104 procs for 180 steps with 288751 atoms

99.9% CPU use with 104 MPI tasks x 1 OpenMP threads

Minimization stats:
  Stopping criterion = energy tolerance
  Energy initial, next-to-last, final = 
     -1152449.08328068  -1152449.08534591  -1152449.08534591
  Force two-norm initial, final = 0.19293299 4.6293586e-05
  Force max component initial, final = 0.1412513 8.6109018e-06
  Final line search alpha, max atom move = 1.0000000 8.6109018e-06
  Iterations, force evaluations = 180 360

MPI task timing breakdown:
Section |  min time  |  avg time  |  max time  |%varavg| %total
---------------------------------------------------------------
Pair    | 0.54212    | 1.5193     | 1.9647     |  33.3 | 72.68
Neigh   | 0          | 0          | 0          |   0.0 |  0.00
Comm    | 0.031315   | 0.33868    | 1.0238     |  49.6 | 16.20
Output  | 0          | 0          | 0          |   0.0 |  0.00
Modify  | 2.1811e-05 | 0.0029754  | 0.0063376  |   2.6 |  0.14
Other   |            | 0.2293     |            |       | 10.97

Nlocal:        2776.45 ave        3930 max           0 min
Histogram: 8 4 4 0 4 12 8 0 26 38
Nghost:        3879.10 ave        5425 max         232 min
Histogram: 8 0 8 0 16 0 8 8 16 40
Neighs:        79213.3 ave      114487 max           0 min
Histogram: 8 4 4 0 8 8 8 8 20 36

Total # of neighbors = 8238183
Ave neighs/atom = 28.530405
Neighbor list builds = 0
Dangerous builds = 0
The dot product: -1.76337382831799e-08
Setting atom values ...
  1 settings made for x
  1 settings made for y
  1 settings made for z
Setting up cg style minimization ...
  Unit style    : metal
  Current step  : 3738
Per MPI rank memory allocation (min/avg/max) = 5.441 | 5.816 | 6.074 Mbytes
Step PotEng KinEng TotEng v_fx v_fy v_fz 
    3738   -1152449.1            0   -1152449.1  0.053143522  0.055550469 -0.037876325 
    3862   -1152449.1            0   -1152449.1 1.6337966e-05 2.4714849e-05 2.2659412e-05 
Loop time of 1.43315 on 104 procs for 124 steps with 288751 atoms

99.9% CPU use with 104 MPI tasks x 1 OpenMP threads

Minimization stats:
  Stopping criterion = energy tolerance
  Energy initial, next-to-last, final = 
     -1152449.05062618  -1152449.05295955  -1152449.05295955
  Force two-norm initial, final = 0.20169263 0.00023306312
  Force max component initial, final = 0.14558679 3.0183384e-05
  Final line search alpha, max atom move = 1.0000000 3.0183384e-05
  Iterations, force evaluations = 124 248

MPI task timing breakdown:
Section |  min time  |  avg time  |  max time  |%varavg| %total
---------------------------------------------------------------
Pair    | 0.37711    | 1.043      | 1.3509     |  27.5 | 72.78
Neigh   | 0          | 0          | 0          |   0.0 |  0.00
Comm    | 0.022401   | 0.23237    | 0.69714    |  40.8 | 16.21
Output  | 0          | 0          | 0          |   0.0 |  0.00
Modify  | 1.5534e-05 | 0.0020555  | 0.0043568  |   2.1 |  0.14
Other   |            | 0.1557     |            |       | 10.86

Nlocal:        2776.45 ave        3930 max           0 min
Histogram: 8 4 4 0 4 12 8 0 26 38
Nghost:        3879.11 ave        5425 max         232 min
Histogram: 8 0 8 0 16 0 8 8 16 40
Neighs:        79213.3 ave      114487 max           0 min
Histogram: 8 4 4 0 8 8 8 8 20 36

Total # of neighbors = 8238182
Ave neighs/atom = 28.530402
Neighbor list builds = 0
Dangerous builds = 0
The dot product: 3.6374437808736e-07
Setting atom values ...
  1 settings made for x
  1 settings made for y
  1 settings made for z
Setting up cg style minimization ...
  Unit style    : metal
  Current step  : 3862
Per MPI rank memory allocation (min/avg/max) = 5.441 | 5.816 | 6.074 Mbytes
Step PotEng KinEng TotEng v_fx v_fy v_fz 
    3862     -1152449            0     -1152449  0.055121082  0.062092433 -0.050326295 
    4000     -1152449            0     -1152449 1.0603778e-05 1.1128627e-05 -1.3724049e-05 
    4073     -1152449            0     -1152449 -5.7280462e-06 -9.2267322e-06 -8.5102861e-06 
Loop time of 2.45774 on 104 procs for 211 steps with 288751 atoms

99.9% CPU use with 104 MPI tasks x 1 OpenMP threads

Minimization stats:
  Stopping criterion = energy tolerance
  Energy initial, next-to-last, final = 
     -1152449.01681921  -1152449.01940491  -1152449.01940491
  Force two-norm initial, final = 0.20996099 5.6850996e-05
  Force max component initial, final = 0.14970256 9.5786863e-06
  Final line search alpha, max atom move = 1.0000000 9.5786863e-06
  Iterations, force evaluations = 211 422

MPI task timing breakdown:
Section |  min time  |  avg time  |  max time  |%varavg| %total
---------------------------------------------------------------
Pair    | 0.64152    | 1.7879     | 2.3187     |  36.1 | 72.75
Neigh   | 0          | 0          | 0          |   0.0 |  0.00
Comm    | 0.037319   | 0.40204    | 1.215      |  53.7 | 16.36
Output  | 0.00014717 | 0.00016057 | 0.00029203 |   0.0 |  0.01
Modify  | 2.4862e-05 | 0.0034955  | 0.0074579  |   2.8 |  0.14
Other   |            | 0.2641     |            |       | 10.75

Nlocal:        2776.45 ave        3930 max           0 min
Histogram: 8 4 4 0 4 12 8 0 26 38
Nghost:        3879.11 ave        5425 max         232 min
Histogram: 8 0 8 0 16 0 8 8 16 40
Neighs:        79213.2 ave      114487 max           0 min
Histogram: 8 4 4 0 8 8 8 8 20 36

Total # of neighbors = 8238178
Ave neighs/atom = 28.530388
Neighbor list builds = 0
Dangerous builds = 0
The dot product: -1.06409414988052e-07
Setting atom values ...
  1 settings made for x
  1 settings made for y
  1 settings made for z
Setting up cg style minimization ...
  Unit style    : metal
  Current step  : 4073
Per MPI rank memory allocation (min/avg/max) = 5.441 | 5.816 | 6.074 Mbytes
Step PotEng KinEng TotEng v_fx v_fy v_fz 
    4073     -1152449            0     -1152449  0.053641522  0.065101938 -0.068693203 
    4288     -1152449            0     -1152449 -8.5218954e-06 -1.2618769e-05 -2.6859998e-06 
Loop time of 2.48912 on 104 procs for 215 steps with 288751 atoms

99.9% CPU use with 104 MPI tasks x 1 OpenMP threads

Minimization stats:
  Stopping criterion = energy tolerance
  Energy initial, next-to-last, final = 
     -1152448.98210826  -1152448.98489003  -1152448.98489003
  Force two-norm initial, final = 0.21847285 5.6348493e-05
  Force max component initial, final = 0.15356484 1.2618769e-05
  Final line search alpha, max atom move = 1.0000000 1.2618769e-05
  Iterations, force evaluations = 215 430

MPI task timing breakdown:
Section |  min time  |  avg time  |  max time  |%varavg| %total
---------------------------------------------------------------
Pair    | 0.65055    | 1.8052     | 2.3397     |  36.2 | 72.52
Neigh   | 0          | 0          | 0          |   0.0 |  0.00
Comm    | 0.037707   | 0.403      | 1.211      |  53.7 | 16.19
Output  | 0          | 0          | 0          |   0.0 |  0.00
Modify  | 2.6001e-05 | 0.0035486  | 0.007581   |   2.8 |  0.14
Other   |            | 0.2773     |            |       | 11.14

Nlocal:        2776.45 ave        3930 max           0 min
Histogram: 8 4 4 0 4 12 8 0 26 38
Nghost:        3879.00 ave        5425 max         232 min
Histogram: 8 0 8 0 16 0 8 8 16 40
Neighs:        79213.2 ave      114486 max           0 min
Histogram: 8 4 4 0 8 8 8 8 20 36

Total # of neighbors = 8238178
Ave neighs/atom = 28.530388
Neighbor list builds = 0
Dangerous builds = 0
The dot product: -2.46651772402298e-07
Setting atom values ...
  1 settings made for x
  1 settings made for y
  1 settings made for z
Setting up cg style minimization ...
  Unit style    : metal
  Current step  : 4288
Per MPI rank memory allocation (min/avg/max) = 5.441 | 5.816 | 6.074 Mbytes
Step PotEng KinEng TotEng v_fx v_fy v_fz 
    4288   -1152448.9            0   -1152448.9  0.047423302  0.063604239 -0.081779821 
    4707     -1152449            0     -1152449 -5.0226224e-07 -7.8106735e-07 -3.4201982e-08 
Loop time of 4.91978 on 104 procs for 419 steps with 288751 atoms

99.9% CPU use with 104 MPI tasks x 1 OpenMP threads

Minimization stats:
  Stopping criterion = energy tolerance
  Energy initial, next-to-last, final = 
     -1152448.94672517  -1152448.98110003  -1152448.98110003
  Force two-norm initial, final = 0.22438947 9.7671947e-06
  Force max component initial, final = 0.15708392 1.2234720e-06
  Final line search alpha, max atom move = 1.0000000 1.2234720e-06
  Iterations, force evaluations = 419 838

MPI task timing breakdown:
Section |  min time  |  avg time  |  max time  |%varavg| %total
---------------------------------------------------------------
Pair    | 1.2817     | 3.5418     | 4.6037     |  50.6 | 71.99
Neigh   | 2.1422e-05 | 0.0058625  | 0.0085189  |   3.2 |  0.12
Comm    | 0.074284   | 0.80686    | 2.4007     |  74.0 | 16.40
Output  | 0          | 0          | 0          |   0.0 |  0.00
Modify  | 5.0191e-05 | 0.0069239  | 0.0148     |   3.9 |  0.14
Other   |            | 0.5584     |            |       | 11.35

Nlocal:        2776.45 ave        3952 max           0 min
Histogram: 8 4 4 0 4 12 8 1 29 34
Nghost:        3878.99 ave        5426 max         232 min
Histogram: 8 0 8 0 16 0 8 8 16 40
Neighs:        79213.3 ave      115188 max           0 min
Histogram: 8 4 4 0 10 6 8 8 24 32

Total # of neighbors = 8238182
Ave neighs/atom = 28.530402
Neighbor list builds = 2
Dangerous builds = 0
The dot product: -2.0288218690414e-08
Setting atom values ...
  1 settings made for x
  1 settings made for y
  1 settings made for z
Setting up cg style minimization ...
  Unit style    : metal
  Current step  : 4707
Per MPI rank memory allocation (min/avg/max) = 5.441 | 5.816 | 6.074 Mbytes
Step PotEng KinEng TotEng v_fx v_fy v_fz 
    4707     -1152449            0     -1152449  0.021537166  0.051747844  -0.14002421 
    4884     -1152449            0     -1152449 -2.3265988e-06 -4.7777204e-06 7.4887439e-06 
Loop time of 2.05983 on 104 procs for 177 steps with 288751 atoms

99.9% CPU use with 104 MPI tasks x 1 OpenMP threads

Minimization stats:
  Stopping criterion = energy tolerance
  Energy initial, next-to-last, final = 
     -1152448.95874874   -1152448.9626285   -1152448.9626285
  Force two-norm initial, final = 0.25576833 0.00021693545
  Force max component initial, final = 0.16440075 8.3729444e-06
  Final line search alpha, max atom move = 1.0000000 8.3729444e-06
  Iterations, force evaluations = 177 354

MPI task timing breakdown:
Section |  min time  |  avg time  |  max time  |%varavg| %total
---------------------------------------------------------------
Pair    | 0.53803    | 1.4925     | 1.9402     |  33.0 | 72.46
Neigh   | 0          | 0          | 0          |   0.0 |  0.00
Comm    | 0.031437   | 0.33406    | 1.0111     |  48.9 | 16.22
Output  | 0          | 0          | 0          |   0.0 |  0.00
Modify  | 2.1345e-05 | 0.0029293  | 0.0061966  |   2.5 |  0.14
Other   |            | 0.2304     |            |       | 11.18

Nlocal:        2776.45 ave        3945 max           0 min
Histogram: 8 4 4 0 4 12 8 0 28 36
Nghost:        3879.01 ave        5424 max         232 min
Histogram: 8 0 8 0 16 0 8 8 16 40
Neighs:        79213.3 ave      114957 max           0 min
Histogram: 8 4 4 0 10 6 8 8 24 32

Total # of neighbors = 8238183
Ave neighs/atom = 28.530405
Neighbor list builds = 0
Dangerous builds = 0
The dot product: -2.61023581648567e-07
Setting atom values ...
  1 settings made for x
  1 settings made for y
  1 settings made for z
Setting up cg style minimization ...
  Unit style    : metal
  Current step  : 4884
Per MPI rank memory allocation (min/avg/max) = 5.441 | 5.816 | 6.074 Mbytes
Step PotEng KinEng TotEng v_fx v_fy v_fz 
    4884   -1152448.9            0   -1152448.9 0.0059085051  0.025050925 -0.068518098 
    5000   -1152448.9            0   -1152448.9 8.5499737e-05 0.00013565954   7.9739e-05 
    5032   -1152448.9            0   -1152448.9 -7.7907382e-06 -1.6609054e-05 1.2793688e-05 
Loop time of 1.72473 on 104 procs for 148 steps with 288751 atoms

99.9% CPU use with 104 MPI tasks x 1 OpenMP threads

Minimization stats:
  Stopping criterion = energy tolerance
  Energy initial, next-to-last, final = 
     -1152448.94018711  -1152448.94255074  -1152448.94255074
  Force two-norm initial, final = 0.22363049 0.00018300632
  Force max component initial, final = 0.16595093 1.6609054e-05
  Final line search alpha, max atom move = 1.0000000 1.6609054e-05
  Iterations, force evaluations = 148 296

MPI task timing breakdown:
Section |  min time  |  avg time  |  max time  |%varavg| %total
---------------------------------------------------------------
Pair    | 0.45258    | 1.2532     | 1.6173     |  30.1 | 72.66
Neigh   | 0          | 0          | 0          |   0.0 |  0.00
Comm    | 0.029475   | 0.27898    | 0.84047    |  45.0 | 16.18
Output  | 0.00016433 | 0.00016743 | 0.00029793 |   0.0 |  0.01
Modify  | 1.7744e-05 | 0.0024487  | 0.0052312  |   2.3 |  0.14
Other   |            | 0.1899     |            |       | 11.01

Nlocal:        2776.45 ave        3949 max           0 min
Histogram: 8 4 4 0 4 12 8 0 28 36
Nghost:        3879.03 ave        5427 max         232 min
Histogram: 8 0 8 0 16 0 8 8 16 40
Neighs:        79213.3 ave      115071 max           0 min
Histogram: 8 4 4 0 10 6 8 8 24 32

Total # of neighbors = 8238184
Ave neighs/atom = 28.530409
Neighbor list builds = 0
Dangerous builds = 0
The dot product: -2.46938651696915e-07
Setting atom values ...
  1 settings made for x
  1 settings made for y
  1 settings made for z
Setting up cg style minimization ...
  Unit style    : metal
  Current step  : 5032
Per MPI rank memory allocation (min/avg/max) = 5.441 | 5.816 | 6.074 Mbytes
Step PotEng KinEng TotEng v_fx v_fy v_fz 
    5032   -1152448.9            0   -1152448.9 0.0010424561  0.012786865 -0.041437149 
    5181   -1152448.9            0   -1152448.9 -1.5561891e-06 -6.4071994e-07 -8.3007583e-06 
Loop time of 1.73606 on 104 procs for 149 steps with 288751 atoms

99.9% CPU use with 104 MPI tasks x 1 OpenMP threads

Minimization stats:
  Stopping criterion = energy tolerance
  Energy initial, next-to-last, final = 
     -1152448.92010342  -1152448.92239115  -1152448.92239115
  Force two-norm initial, final = 0.22081442 0.00016187171
  Force max component initial, final = 0.1676635 5.5432712e-05
  Final line search alpha, max atom move = 1.0000000 5.5432712e-05
  Iterations, force evaluations = 149 298

MPI task timing breakdown:
Section |  min time  |  avg time  |  max time  |%varavg| %total
---------------------------------------------------------------
Pair    | 0.45234    | 1.2547     | 1.6313     |  30.2 | 72.27
Neigh   | 0          | 0          | 0          |   0.0 |  0.00
Comm    | 0.026611   | 0.28042    | 0.8503     |  45.0 | 16.15
Output  | 0          | 0          | 0          |   0.0 |  0.00
Modify  | 1.7574e-05 | 0.0024643  | 0.0052462  |   2.3 |  0.14
Other   |            | 0.1984     |            |       | 11.43

Nlocal:        2776.45 ave        3949 max           0 min
Histogram: 8 4 4 0 4 12 8 0 28 36
Nghost:        3879.03 ave        5425 max         232 min
Histogram: 8 0 8 0 16 0 8 8 16 40
Neighs:        79213.3 ave      115071 max           0 min
Histogram: 8 4 4 0 10 6 8 8 24 32

Total # of neighbors = 8238185
Ave neighs/atom = 28.530412
Neighbor list builds = 0
Dangerous builds = 0
The dot product: 6.69325882416918e-08
Setting atom values ...
  1 settings made for x
  1 settings made for y
  1 settings made for z
Setting up cg style minimization ...
  Unit style    : metal
  Current step  : 5181
Per MPI rank memory allocation (min/avg/max) = 5.441 | 5.816 | 6.074 Mbytes
Step PotEng KinEng TotEng v_fx v_fy v_fz 
    5181   -1152448.9            0   -1152448.9 -0.0005427808 0.0079080002 -0.030282032 
    5306   -1152448.9            0   -1152448.9 -4.6663146e-06 4.3394385e-06 -4.3794781e-05 
Loop time of 1.44927 on 104 procs for 125 steps with 288751 atoms

99.9% CPU use with 104 MPI tasks x 1 OpenMP threads

Minimization stats:
  Stopping criterion = energy tolerance
  Energy initial, next-to-last, final = 
     -1152448.90013649  -1152448.90212515  -1152448.90212515
  Force two-norm initial, final = 0.22075476 0.00027106713
  Force max component initial, final = 0.16961199 5.2193424e-05
  Final line search alpha, max atom move = 1.0000000 5.2193424e-05
  Iterations, force evaluations = 125 250

MPI task timing breakdown:
Section |  min time  |  avg time  |  max time  |%varavg| %total
---------------------------------------------------------------
Pair    | 0.37632    | 1.0554     | 1.364      |  27.7 | 72.82
Neigh   | 0          | 0          | 0          |   0.0 |  0.00
Comm    | 0.022482   | 0.23481    | 0.71068    |  41.4 | 16.20
Output  | 0          | 0          | 0          |   0.0 |  0.00
Modify  | 1.4765e-05 | 0.002069   | 0.0043851  |   2.1 |  0.14
Other   |            | 0.157      |            |       | 10.84

Nlocal:        2776.45 ave        3950 max           0 min
Histogram: 8 4 4 0 4 12 8 0 28 36
Nghost:        3879.05 ave        5425 max         232 min
Histogram: 8 0 8 0 16 0 8 8 16 40
Neighs:        79213.3 ave      115097 max           0 min
Histogram: 8 4 4 0 10 6 8 8 24 32

Total # of neighbors = 8238182
Ave neighs/atom = 28.530402
Neighbor list builds = 0
Dangerous builds = 0
The dot product: 2.14410341083527e-07
Setting atom values ...
  1 settings made for x
  1 settings made for y
  1 settings made for z
Setting up cg style minimization ...
  Unit style    : metal
  Current step  : 5306
Per MPI rank memory allocation (min/avg/max) = 5.441 | 5.816 | 6.074 Mbytes
Step PotEng KinEng TotEng v_fx v_fy v_fz 
    5306   -1152448.9            0   -1152448.9 -0.00044424909 0.0055148404 -0.020337705 
    5505   -1152448.9            0   -1152448.9 -8.4755235e-06 -1.5754932e-05 6.6363942e-07 
Loop time of 2.33594 on 104 procs for 199 steps with 288751 atoms

99.9% CPU use with 104 MPI tasks x 1 OpenMP threads

Minimization stats:
  Stopping criterion = energy tolerance
  Energy initial, next-to-last, final = 
     -1152448.87880898   -1152448.8806165   -1152448.8806165
  Force two-norm initial, final = 0.21927035 6.7530521e-05
  Force max component initial, final = 0.17170271 1.5754932e-05
  Final line search alpha, max atom move = 1.0000000 1.5754932e-05
  Iterations, force evaluations = 199 398

MPI task timing breakdown:
Section |  min time  |  avg time  |  max time  |%varavg| %total
---------------------------------------------------------------
Pair    | 0.60187    | 1.6777     | 2.1907     |  35.1 | 71.82
Neigh   | 0          | 0          | 0          |   0.0 |  0.00
Comm    | 0.037341   | 0.378      | 1.1352     |  51.3 | 16.18
Output  | 0          | 0          | 0          |   0.0 |  0.00
Modify  | 2.5079e-05 | 0.0032954  | 0.0069712  |   2.7 |  0.14
Other   |            | 0.2769     |            |       | 11.85

Nlocal:        2776.45 ave        3949 max           0 min
Histogram: 8 4 4 0 4 12 8 0 28 36
Nghost:        3879.03 ave        5425 max         232 min
Histogram: 8 0 8 0 16 0 8 8 16 40
Neighs:        79213.3 ave      115071 max           0 min
Histogram: 8 4 4 0 10 6 8 8 24 32

Total # of neighbors = 8238180
Ave neighs/atom = 28.530395
Neighbor list builds = 0
Dangerous builds = 0
The dot product: -2.56282277366196e-10
Setting atom values ...
  1 settings made for x
  1 settings made for y
  1 settings made for z
Setting up cg style minimization ...
  Unit style    : metal
  Current step  : 5505
Per MPI rank memory allocation (min/avg/max) = 5.441 | 5.816 | 6.074 Mbytes
Step PotEng KinEng TotEng v_fx v_fy v_fz 
    5505   -1152448.9            0   -1152448.9 -0.00024574696 0.0038456618 -0.013490256 
    5772   -1152448.9            0   -1152448.9 -2.7711002e-07 -5.7796149e-07 2.1895125e-07 
Loop time of 3.13282 on 104 procs for 267 steps with 288751 atoms

99.9% CPU use with 104 MPI tasks x 1 OpenMP threads

Minimization stats:
  Stopping criterion = energy tolerance
  Energy initial, next-to-last, final = 
      -1152448.8553012  -1152448.85722048  -1152448.85722048
  Force two-norm initial, final = 0.22315893 6.0406558e-06
  Force max component initial, final = 0.17391271 2.2454422e-06
  Final line search alpha, max atom move = 1.0000000 2.2454422e-06
  Iterations, force evaluations = 267 534

MPI task timing breakdown:
Section |  min time  |  avg time  |  max time  |%varavg| %total
---------------------------------------------------------------
Pair    | 0.81408    | 2.2619     | 2.9458     |  40.5 | 72.20
Neigh   | 0          | 0          | 0          |   0.0 |  0.00
Comm    | 0.047039   | 0.51036    | 1.5302     |  59.9 | 16.29
Output  | 0          | 0          | 0          |   0.0 |  0.00
Modify  | 3.3171e-05 | 0.0044091  | 0.0093611  |   3.1 |  0.14
Other   |            | 0.3561     |            |       | 11.37

Nlocal:        2776.45 ave        3948 max           0 min
Histogram: 8 4 4 0 4 12 8 0 28 36
Nghost:        3878.99 ave        5425 max         232 min
Histogram: 8 0 8 0 16 0 8 8 16 40
Neighs:        79213.3 ave      115037 max           0 min
Histogram: 8 4 4 0 10 6 8 8 24 32

Total # of neighbors = 8238179
Ave neighs/atom = 28.530391
Neighbor list builds = 0
Dangerous builds = 0
The dot product: 1.93960330916812e-10
Setting atom values ...
  1 settings made for x
  1 settings made for y
  1 settings made for z
Setting up cg style minimization ...
  Unit style    : metal
  Current step  : 5772
Per MPI rank memory allocation (min/avg/max) = 5.441 | 5.816 | 6.074 Mbytes
Step PotEng KinEng TotEng v_fx v_fy v_fz 
    5772   -1152448.8            0   -1152448.8 -0.00011490007 0.0029490325 -0.0098591731 
    5898   -1152448.8            0   -1152448.8 -9.9235014e-06 -8.0254817e-06 -3.1633958e-05 
Loop time of 1.46598 on 104 procs for 126 steps with 288751 atoms

99.9% CPU use with 104 MPI tasks x 1 OpenMP threads

Minimization stats:
  Stopping criterion = energy tolerance
  Energy initial, next-to-last, final = 
     -1152448.82967371  -1152448.83170474  -1152448.83170474
  Force two-norm initial, final = 0.22780752 0.00026747703
  Force max component initial, final = 0.17618564 8.9856982e-05
  Final line search alpha, max atom move = 1.0000000 8.9856982e-05
  Iterations, force evaluations = 126 252

MPI task timing breakdown:
Section |  min time  |  avg time  |  max time  |%varavg| %total
---------------------------------------------------------------
Pair    | 0.38229    | 1.0611     | 1.3766     |  27.7 | 72.38
Neigh   | 0          | 0          | 0          |   0.0 |  0.00
Comm    | 0.022503   | 0.23857    | 0.71428    |  41.2 | 16.27
Output  | 0          | 0          | 0          |   0.0 |  0.00
Modify  | 1.5211e-05 | 0.0020836  | 0.0044611  |   2.2 |  0.14
Other   |            | 0.1643     |            |       | 11.20

Nlocal:        2776.45 ave        3945 max           0 min
Histogram: 8 4 4 0 4 12 8 0 28 36
Nghost:        3878.99 ave        5425 max         232 min
Histogram: 8 0 8 0 16 0 8 8 16 40
Neighs:        79213.2 ave      114938 max           0 min
Histogram: 8 4 4 0 10 6 8 8 22 34

Total # of neighbors = 8238177
Ave neighs/atom = 28.530384
Neighbor list builds = 0
Dangerous builds = 0
The dot product: 1.0750823166688e-08
Setting atom values ...
  1 settings made for x
  1 settings made for y
  1 settings made for z
Setting up cg style minimization ...
  Unit style    : metal
  Current step  : 5898
Per MPI rank memory allocation (min/avg/max) = 5.441 | 5.816 | 6.074 Mbytes
Step PotEng KinEng TotEng v_fx v_fy v_fz 
    5898   -1152448.8            0   -1152448.8 3.437156e-05 0.0025134396 -0.0076621076 
    6000   -1152448.8            0   -1152448.8 -3.071809e-05 -5.7189793e-05 3.5319769e-06 
    6101   -1152448.8            0   -1152448.8 1.2371373e-07 -1.5300457e-06 5.489545e-06 
Loop time of 2.37574 on 104 procs for 203 steps with 288751 atoms

99.9% CPU use with 104 MPI tasks x 1 OpenMP threads

Minimization stats:
  Stopping criterion = energy tolerance
  Energy initial, next-to-last, final = 
     -1152448.80181239  -1152448.80394474  -1152448.80394474
  Force two-norm initial, final = 0.23246274 7.5416551e-05
  Force max component initial, final = 0.17861141 2.3518437e-05
  Final line search alpha, max atom move = 1.0000000 2.3518437e-05
  Iterations, force evaluations = 203 406

MPI task timing breakdown:
Section |  min time  |  avg time  |  max time  |%varavg| %total
---------------------------------------------------------------
Pair    | 0.61383    | 1.7163     | 2.2294     |  35.4 | 72.24
Neigh   | 0          | 0          | 0          |   0.0 |  0.00
Comm    | 0.03674    | 0.38598    | 1.1561     |  52.2 | 16.25
Output  | 0.0002485  | 0.00025086 | 0.00038067 |   0.0 |  0.01
Modify  | 2.3928e-05 | 0.0033553  | 0.0071202  |   2.7 |  0.14
Other   |            | 0.2698     |            |       | 11.36

Nlocal:        2776.45 ave        3939 max           0 min
Histogram: 8 4 4 0 4 12 8 0 28 36
Nghost:        3878.99 ave        5425 max         232 min
Histogram: 8 0 8 0 16 0 8 8 16 40
Neighs:        79213.2 ave      114761 max           0 min
Histogram: 8 4 4 0 10 6 8 8 22 34

Total # of neighbors = 8238176
Ave neighs/atom = 28.530381
Neighbor list builds = 0
Dangerous builds = 0
The dot product: 2.64652336369591e-09
Setting atom values ...
  1 settings made for x
  1 settings made for y
  1 settings made for z
Setting up cg style minimization ...
  Unit style    : metal
  Current step  : 6101
Per MPI rank memory allocation (min/avg/max) = 5.441 | 5.816 | 6.074 Mbytes
Step PotEng KinEng TotEng v_fx v_fy v_fz 
    6101   -1152448.8            0   -1152448.8 0.00026652057 0.0025555559 -0.0065058537 
    6236   -1152448.8            0   -1152448.8 -3.4944668e-07 1.9162847e-06 -8.0184149e-06 
Loop time of 1.56749 on 104 procs for 135 steps with 288751 atoms

99.9% CPU use with 104 MPI tasks x 1 OpenMP threads

Minimization stats:
  Stopping criterion = energy tolerance
  Energy initial, next-to-last, final = 
     -1152448.77164621  -1152448.77385321  -1152448.77385321
  Force two-norm initial, final = 0.23635714 0.00021779317
  Force max component initial, final = 0.18086466 5.6349448e-05
  Final line search alpha, max atom move = 1.0000000 5.6349448e-05
  Iterations, force evaluations = 135 270

MPI task timing breakdown:
Section |  min time  |  avg time  |  max time  |%varavg| %total
---------------------------------------------------------------
Pair    | 0.41137    | 1.137      | 1.4707     |  28.8 | 72.53
Neigh   | 0          | 0          | 0          |   0.0 |  0.00
Comm    | 0.02418    | 0.25353    | 0.76297    |  42.7 | 16.17
Output  | 0          | 0          | 0          |   0.0 |  0.00
Modify  | 1.6156e-05 | 0.0022321  | 0.0047303  |   2.2 |  0.14
Other   |            | 0.1748     |            |       | 11.15

Nlocal:        2776.45 ave        3930 max           0 min
Histogram: 8 4 4 0 4 12 8 0 26 38
Nghost:        3879.03 ave        5425 max         232 min
Histogram: 8 0 8 0 16 0 8 8 16 40
Neighs:        79213.2 ave      114461 max           0 min
Histogram: 8 4 4 0 8 8 8 8 20 36

Total # of neighbors = 8238169
Ave neighs/atom = 28.530357
Neighbor list builds = 0
Dangerous builds = 0
The dot product: -5.73089045546564e-09
Setting atom values ...
  1 settings made for x
  1 settings made for y
  1 settings made for z
Setting up cg style minimization ...
  Unit style    : metal
  Current step  : 6236
Per MPI rank memory allocation (min/avg/max) = 5.441 | 5.816 | 6.074 Mbytes
Step PotEng KinEng TotEng v_fx v_fy v_fz 
    6236   -1152448.7            0   -1152448.7 0.00056579033 0.0028510815 -0.0057752573 
    6386   -1152448.7            0   -1152448.7 -1.6797009e-06 5.1559778e-07 -1.1275329e-05 
Loop time of 1.76705 on 104 procs for 150 steps with 288751 atoms

99.9% CPU use with 104 MPI tasks x 1 OpenMP threads

Minimization stats:
  Stopping criterion = energy tolerance
  Energy initial, next-to-last, final = 
     -1152448.73911419  -1152448.74137432  -1152448.74137432
  Force two-norm initial, final = 0.2395516 0.00026892725
  Force max component initial, final = 0.18323138 9.2771604e-05
  Final line search alpha, max atom move = 1.0000000 9.2771604e-05
  Iterations, force evaluations = 150 300

MPI task timing breakdown:
Section |  min time  |  avg time  |  max time  |%varavg| %total
---------------------------------------------------------------
Pair    | 0.46641    | 1.2731     | 1.6368     |  30.3 | 72.05
Neigh   | 0          | 0          | 0          |   0.0 |  0.00
Comm    | 0.026911   | 0.29037    | 0.85471    |  44.1 | 16.43
Output  | 0          | 0          | 0          |   0.0 |  0.00
Modify  | 1.8147e-05 | 0.0024822  | 0.005306   |   2.3 |  0.14
Other   |            | 0.2011     |            |       | 11.38

Nlocal:        2776.45 ave        3930 max           0 min
Histogram: 8 4 4 0 4 12 8 0 26 38
Nghost:        3878.99 ave        5425 max         232 min
Histogram: 8 0 8 0 16 0 8 8 16 40
Neighs:        79213.1 ave      114461 max           0 min
Histogram: 8 4 4 0 8 8 8 8 20 36

Total # of neighbors = 8238166
Ave neighs/atom = 28.530346
Neighbor list builds = 0
Dangerous builds = 0
The dot product: -7.23158003388588e-09
Setting atom values ...
  1 settings made for x
  1 settings made for y
  1 settings made for z
Setting up cg style minimization ...
  Unit style    : metal
  Current step  : 6386
Per MPI rank memory allocation (min/avg/max) = 5.441 | 5.816 | 6.074 Mbytes
Step PotEng KinEng TotEng v_fx v_fy v_fz 
    6386   -1152448.7            0   -1152448.7 0.00086256044 0.0033347729 -0.0056612933 
    6558   -1152448.7            0   -1152448.7 -5.992836e-06 -2.9708659e-06 -2.5112375e-05 
Loop time of 1.99242 on 104 procs for 172 steps with 288751 atoms

99.9% CPU use with 104 MPI tasks x 1 OpenMP threads

Minimization stats:
  Stopping criterion = energy tolerance
  Energy initial, next-to-last, final = 
     -1152448.70418665  -1152448.70647919  -1152448.70647919
  Force two-norm initial, final = 0.24218955 0.00029422111
  Force max component initial, final = 0.18580751 0.00010043524
  Final line search alpha, max atom move = 1.0000000 0.00010043524
  Iterations, force evaluations = 172 344

MPI task timing breakdown:
Section |  min time  |  avg time  |  max time  |%varavg| %total
---------------------------------------------------------------
Pair    | 0.52203    | 1.4473     | 1.8753     |  32.5 | 72.64
Neigh   | 0          | 0          | 0          |   0.0 |  0.00
Comm    | 0.029669   | 0.32336    | 0.97863    |  48.2 | 16.23
Output  | 0          | 0          | 0          |   0.0 |  0.00
Modify  | 2.0587e-05 | 0.0028443  | 0.00604    |   2.5 |  0.14
Other   |            | 0.2189     |            |       | 10.99

Nlocal:        2776.45 ave        3930 max           0 min
Histogram: 8 4 4 0 4 12 8 0 26 38
Nghost:        3878.93 ave        5425 max         232 min
Histogram: 8 0 8 0 16 0 8 8 16 40
Neighs:        79213.1 ave      114461 max           0 min
Histogram: 8 4 4 0 8 8 8 8 20 36

Total # of neighbors = 8238166
Ave neighs/atom = 28.530346
Neighbor list builds = 0
Dangerous builds = 0
The dot product: -1.40108389893306e-08
Setting atom values ...
  1 settings made for x
  1 settings made for y
  1 settings made for z
Setting up cg style minimization ...
  Unit style    : metal
  Current step  : 6558
Per MPI rank memory allocation (min/avg/max) = 5.441 | 5.816 | 6.074 Mbytes
Step PotEng KinEng TotEng v_fx v_fy v_fz 
    6558   -1152448.7            0   -1152448.7 0.0011705004 0.0039840698 -0.0060205799 
    6703   -1152448.7            0   -1152448.7 -8.7539709e-07 -4.1144492e-06 8.1532961e-06 
Loop time of 1.67509 on 104 procs for 145 steps with 288751 atoms

99.9% CPU use with 104 MPI tasks x 1 OpenMP threads

Minimization stats:
  Stopping criterion = energy tolerance
  Energy initial, next-to-last, final = 
     -1152448.66685614   -1152448.6691623   -1152448.6691623
  Force two-norm initial, final = 0.2441665 0.00021693103
  Force max component initial, final = 0.18826064 8.6029824e-05
  Final line search alpha, max atom move = 1.0000000 8.6029824e-05
  Iterations, force evaluations = 145 290

MPI task timing breakdown:
Section |  min time  |  avg time  |  max time  |%varavg| %total
---------------------------------------------------------------
Pair    | 0.44151    | 1.2267     | 1.5785     |  29.8 | 73.23
Neigh   | 0          | 0          | 0          |   0.0 |  0.00
Comm    | 0.025695   | 0.27094    | 0.82078    |  44.8 | 16.17
Output  | 0          | 0          | 0          |   0.0 |  0.00
Modify  | 1.7395e-05 | 0.002392   | 0.0051014  |   2.3 |  0.14
Other   |            | 0.175      |            |       | 10.45

Nlocal:        2776.45 ave        3930 max           0 min
Histogram: 8 4 4 0 4 12 8 0 26 38
Nghost:        3878.92 ave        5426 max         232 min
Histogram: 8 0 8 0 16 0 8 8 16 40
Neighs:        79213.1 ave      114461 max           0 min
Histogram: 8 4 4 0 8 8 8 8 20 36

Total # of neighbors = 8238163
Ave neighs/atom = 28.530336
Neighbor list builds = 0
Dangerous builds = 0
The dot product: 9.21847130263083e-09
Setting atom values ...
  1 settings made for x
  1 settings made for y
  1 settings made for z
Setting up cg style minimization ...
  Unit style    : metal
  Current step  : 6703
Per MPI rank memory allocation (min/avg/max) = 5.441 | 5.816 | 6.074 Mbytes
Step PotEng KinEng TotEng v_fx v_fy v_fz 
    6703   -1152448.6            0   -1152448.6 0.0015355985 0.0047876328 -0.0065592268 
    6836   -1152448.6            0   -1152448.6 -1.1043105e-05 -1.8821746e-05 -3.4679168e-06 
Loop time of 1.55024 on 104 procs for 133 steps with 288751 atoms

[...]
Neighs:        79213.2 ave      115430 max           0 min
Histogram: 8 4 4 0 10 6 8 8 24 32

Total # of neighbors = 8238174
Ave neighs/atom = 28.530374
Neighbor list builds = 0
Dangerous builds = 0
The dot product: 3.0846620410405e-08
Setting atom values ...
  1 settings made for x
  1 settings made for y
  1 settings made for z
Setting up cg style minimization ...
  Unit style    : metal
  Current step  : 27370
Per MPI rank memory allocation (min/avg/max) = 5.441 | 5.816 | 6.074 Mbytes
Step PotEng KinEng TotEng v_fx v_fy v_fz 
   27370   -1152449.1            0   -1152449.1 0.0067329842 -0.0028396113 0.0096447851 
   27523   -1152449.1            0   -1152449.1 -2.6307881e-05 -3.6882729e-06 -3.7709934e-05 
Loop time of 1.80837 on 104 procs for 153 steps with 288751 atoms

99.9% CPU use with 104 MPI tasks x 1 OpenMP threads

Minimization stats:
  Stopping criterion = energy tolerance
  Energy initial, next-to-last, final = 
     -1152449.10618443  -1152449.10754433  -1152449.10754433
  Force two-norm initial, final = 0.16200974 0.00020854705
  Force max component initial, final = 0.076776276 3.7709934e-05
  Final line search alpha, max atom move = 1.0000000 3.7709934e-05
  Iterations, force evaluations = 153 306

MPI task timing breakdown:
Section |  min time  |  avg time  |  max time  |%varavg| %total
---------------------------------------------------------------
Pair    | 0.46283    | 1.2935     | 1.6833     |  30.8 | 71.53
Neigh   | 0          | 0          | 0          |   0.0 |  0.00
Comm    | 0.031393   | 0.2941     | 0.88539    |  45.2 | 16.26
Output  | 0          | 0          | 0          |   0.0 |  0.00
Modify  | 1.9294e-05 | 0.0025332  | 0.0054008  |   2.4 |  0.14
Other   |            | 0.2183     |            |       | 12.07

Nlocal:        2776.45 ave        3960 max           0 min
Histogram: 8 4 4 0 4 12 8 6 24 34
Nghost:        3879.11 ave        5427 max         232 min
Histogram: 8 0 8 0 16 0 8 8 16 40
Neighs:        79213.2 ave      115430 max           0 min
Histogram: 8 4 4 0 10 6 8 8 24 32

Total # of neighbors = 8238172
Ave neighs/atom = 28.530367
Neighbor list builds = 0
Dangerous builds = 0
The dot product: -4.99770448946825e-08
Setting atom values ...
  1 settings made for x
  1 settings made for y
  1 settings made for z
Setting up cg style minimization ...
  Unit style    : metal
  Current step  : 27523
Per MPI rank memory allocation (min/avg/max) = 5.441 | 5.816 | 6.074 Mbytes
Step PotEng KinEng TotEng v_fx v_fy v_fz 
   27523   -1152449.1            0   -1152449.1 0.0057930514 -0.0021279791 0.0083078116 
   27709   -1152449.1            0   -1152449.1 6.0515415e-06 7.7041314e-06 8.6855667e-06 
Loop time of 2.17823 on 104 procs for 186 steps with 288751 atoms

99.9% CPU use with 104 MPI tasks x 1 OpenMP threads

Minimization stats:
  Stopping criterion = energy tolerance
  Energy initial, next-to-last, final = 
     -1152449.08635882  -1152449.08775684  -1152449.08775684
  Force two-norm initial, final = 0.16178599 7.5188317e-05
  Force max component initial, final = 0.07721251 8.6855667e-06
  Final line search alpha, max atom move = 1.0000000 8.6855667e-06
  Iterations, force evaluations = 186 372

MPI task timing breakdown:
Section |  min time  |  avg time  |  max time  |%varavg| %total
---------------------------------------------------------------
Pair    | 0.56071    | 1.5675     | 2.0527     |  33.9 | 71.96
Neigh   | 0          | 0          | 0          |   0.0 |  0.00
Comm    | 0.035885   | 0.35325    | 1.0542     |  49.6 | 16.22
Output  | 0          | 0          | 0          |   0.0 |  0.00
Modify  | 2.2523e-05 | 0.0030758  | 0.0065733  |   2.6 |  0.14
Other   |            | 0.2544     |            |       | 11.68

Nlocal:        2776.45 ave        3960 max           0 min
Histogram: 8 4 4 0 4 12 8 6 24 34
Nghost:        3879.11 ave        5427 max         232 min
Histogram: 8 0 8 0 16 0 8 8 16 40
Neighs:        79213.2 ave      115423 max           0 min
Histogram: 8 4 4 0 10 6 8 8 24 32

Total # of neighbors = 8238172
Ave neighs/atom = 28.530367
Neighbor list builds = 0
Dangerous builds = 0
The dot product: -2.21569138883981e-09
Setting atom values ...
  1 settings made for x
  1 settings made for y
  1 settings made for z
Setting up cg style minimization ...
  Unit style    : metal
  Current step  : 27709
Per MPI rank memory allocation (min/avg/max) = 5.441 | 5.816 | 6.074 Mbytes
Step PotEng KinEng TotEng v_fx v_fy v_fz 
   27709   -1152449.1            0   -1152449.1 0.0050694376 -0.0015467168 0.0072777485 
   27922   -1152449.1            0   -1152449.1 -4.31491e-06 -6.0703438e-06 -6.1919695e-06 
Loop time of 2.49532 on 104 procs for 213 steps with 288751 atoms

99.9% CPU use with 104 MPI tasks x 1 OpenMP threads

Minimization stats:
  Stopping criterion = energy tolerance
  Energy initial, next-to-last, final = 
     -1152449.06552629  -1152449.06691096  -1152449.06691096
  Force two-norm initial, final = 0.16181851 3.8006729e-05
  Force max component initial, final = 0.077525187 6.1919695e-06
  Final line search alpha, max atom move = 1.0000000 6.1919695e-06
  Iterations, force evaluations = 213 426

MPI task timing breakdown:
Section |  min time  |  avg time  |  max time  |%varavg| %total
---------------------------------------------------------------
Pair    | 0.64557    | 1.7964     | 2.338      |  36.1 | 71.99
Neigh   | 0          | 0          | 0          |   0.0 |  0.00
Comm    | 0.042021   | 0.40873    | 1.2316     |  53.0 | 16.38
Output  | 0          | 0          | 0          |   0.0 |  0.00
Modify  | 2.6053e-05 | 0.0035237  | 0.0075271  |   2.8 |  0.14
Other   |            | 0.2867     |            |       | 11.49

Nlocal:        2776.45 ave        3960 max           0 min
Histogram: 8 4 4 0 4 12 8 6 24 34
Nghost:        3879.18 ave        5427 max         232 min
Histogram: 8 0 8 0 16 0 8 8 16 40
Neighs:        79213.2 ave      115423 max           0 min
Histogram: 8 4 4 0 10 6 8 8 24 32

Total # of neighbors = 8238171
Ave neighs/atom = 28.530364
Neighbor list builds = 0
Dangerous builds = 0
The dot product: 2.41680166170937e-09
Setting atom values ...
  1 settings made for x
  1 settings made for y
  1 settings made for z
Setting up cg style minimization ...
  Unit style    : metal
  Current step  : 27922
Per MPI rank memory allocation (min/avg/max) = 5.441 | 5.816 | 6.074 Mbytes
Step PotEng KinEng TotEng v_fx v_fy v_fz 
   27922     -1152449            0     -1152449 0.0042752745 -0.0011419099 0.0061429497 
   28000     -1152449            0     -1152449 8.8443178e-05 -6.7971714e-05 0.00012713684 
   28084     -1152449            0     -1152449 7.0603975e-06 1.567698e-05 1.0122268e-05 
Loop time of 1.88583 on 104 procs for 162 steps with 288751 atoms

99.9% CPU use with 104 MPI tasks x 1 OpenMP threads

Minimization stats:
  Stopping criterion = energy tolerance
  Energy initial, next-to-last, final = 
     -1152449.04352604  -1152449.04487817  -1152449.04487817
  Force two-norm initial, final = 0.16193834 0.00022857881
  Force max component initial, final = 0.077810217 3.4978436e-05
  Final line search alpha, max atom move = 1.0000000 3.4978436e-05
  Iterations, force evaluations = 162 324

MPI task timing breakdown:
Section |  min time  |  avg time  |  max time  |%varavg| %total
---------------------------------------------------------------
Pair    | 0.49118    | 1.365      | 1.7771     |  31.6 | 72.38
Neigh   | 0          | 0          | 0          |   0.0 |  0.00
Comm    | 0.033191   | 0.30772    | 0.92432    |  46.6 | 16.32
Output  | 0.00015445 | 0.00016482 | 0.00031951 |   0.0 |  0.01
Modify  | 2.0584e-05 | 0.002681   | 0.0057173  |   2.4 |  0.14
Other   |            | 0.2103     |            |       | 11.15

Nlocal:        2776.45 ave        3960 max           0 min
Histogram: 8 4 4 0 4 12 8 6 24 34
Nghost:        3879.18 ave        5427 max         232 min
Histogram: 8 0 8 0 16 0 8 8 16 40
Neighs:        79213.2 ave      115423 max           0 min
Histogram: 8 4 4 0 10 6 8 8 24 32

Total # of neighbors = 8238170
Ave neighs/atom = 28.530360
Neighbor list builds = 0
Dangerous builds = 0
The dot product: -1.20738727987431e-08
Setting atom values ...
  1 settings made for x
  1 settings made for y
  1 settings made for z
Setting up cg style minimization ...
  Unit style    : metal
  Current step  : 28084
Per MPI rank memory allocation (min/avg/max) = 5.441 | 5.816 | 6.074 Mbytes
Step PotEng KinEng TotEng v_fx v_fy v_fz 
   28084     -1152449            0     -1152449  0.003456814 -0.0010146125 0.0049707268 
   28304     -1152449            0     -1152449 -1.2865249e-06 1.9041402e-06 -1.8531242e-06 
Loop time of 2.59146 on 104 procs for 220 steps with 288751 atoms

99.9% CPU use with 104 MPI tasks x 1 OpenMP threads

Minimization stats:
  Stopping criterion = energy tolerance
  Energy initial, next-to-last, final = 
     -1152449.02021955  -1152449.02155161  -1152449.02155161
  Force two-norm initial, final = 0.16217885 3.1882065e-05
  Force max component initial, final = 0.078036073 7.2442157e-06
  Final line search alpha, max atom move = 1.0000000 7.2442157e-06
  Iterations, force evaluations = 220 440

MPI task timing breakdown:
Section |  min time  |  avg time  |  max time  |%varavg| %total
---------------------------------------------------------------
Pair    | 0.66566    | 1.8567     | 2.4185     |  36.7 | 71.65
Neigh   | 0          | 0          | 0          |   0.0 |  0.00
Comm    | 0.048422   | 0.42537    | 1.2784     |  53.8 | 16.41
Output  | 0          | 0          | 0          |   0.0 |  0.00
Modify  | 2.6852e-05 | 0.0036458  | 0.0077583  |   2.8 |  0.14
Other   |            | 0.3057     |            |       | 11.80

Nlocal:        2776.45 ave        3960 max           0 min
Histogram: 8 4 4 0 4 12 8 6 24 34
Nghost:        3879.18 ave        5427 max         232 min
Histogram: 8 0 8 0 16 0 8 8 16 40
Neighs:        79213.2 ave      115423 max           0 min
Histogram: 8 4 4 0 10 6 8 8 24 32

Total # of neighbors = 8238171
Ave neighs/atom = 28.530364
Neighbor list builds = 0
Dangerous builds = 0
The dot product: -3.99995713311423e-09
Setting atom values ...
  1 settings made for x
  1 settings made for y
  1 settings made for z
Setting up cg style minimization ...
  Unit style    : metal
  Current step  : 28304
Per MPI rank memory allocation (min/avg/max) = 5.441 | 5.816 | 6.074 Mbytes
Step PotEng KinEng TotEng v_fx v_fy v_fz 
   28304     -1152449            0     -1152449 0.0025513272 -0.0012249662 0.0036721124 
   28499     -1152449            0     -1152449 -6.2789233e-06 -1.2634725e-05 -8.9934429e-06 
Loop time of 2.26936 on 104 procs for 195 steps with 288751 atoms

99.9% CPU use with 104 MPI tasks x 1 OpenMP threads

Minimization stats:
  Stopping criterion = energy tolerance
  Energy initial, next-to-last, final = 
     -1152448.99551844  -1152448.99683219  -1152448.99683219
  Force two-norm initial, final = 0.16263727 9.3226178e-05
  Force max component initial, final = 0.078276182 2.0829799e-05
  Final line search alpha, max atom move = 1.0000000 2.0829799e-05
  Iterations, force evaluations = 195 390

MPI task timing breakdown:
Section |  min time  |  avg time  |  max time  |%varavg| %total
---------------------------------------------------------------
Pair    | 0.58885    | 1.6398     | 2.1323     |  34.6 | 72.26
Neigh   | 0          | 0          | 0          |   0.0 |  0.00
Comm    | 0.038547   | 0.37104    | 1.115      |  50.7 | 16.35
Output  | 0          | 0          | 0          |   0.0 |  0.00
Modify  | 2.4246e-05 | 0.0032261  | 0.0069004  |   2.7 |  0.14
Other   |            | 0.2553     |            |       | 11.25

Nlocal:        2776.45 ave        3960 max           0 min
Histogram: 8 4 4 0 4 12 8 6 24 34
Nghost:        3879.20 ave        5427 max         232 min
Histogram: 8 0 8 0 16 0 8 8 16 40
Neighs:        79213.2 ave      115423 max           0 min
Histogram: 8 4 4 0 10 6 8 8 24 32

Total # of neighbors = 8238173
Ave neighs/atom = 28.530370
Neighbor list builds = 0
Dangerous builds = 0
The dot product: 1.2316766122541e-08
Setting atom values ...
  1 settings made for x
  1 settings made for y
  1 settings made for z
Setting up cg style minimization ...
  Unit style    : metal
  Current step  : 28499
Per MPI rank memory allocation (min/avg/max) = 5.441 | 5.816 | 6.074 Mbytes
Step PotEng KinEng TotEng v_fx v_fy v_fz 
   28499     -1152449            0     -1152449 0.0016288626 -0.0016496073 0.0023485691 
   28706     -1152449            0     -1152449 -1.1462447e-05 -1.0207918e-05 -1.6450793e-05 
Loop time of 2.4088 on 104 procs for 207 steps with 288751 atoms

99.9% CPU use with 104 MPI tasks x 1 OpenMP threads

Minimization stats:
  Stopping criterion = energy tolerance
  Energy initial, next-to-last, final = 
     -1152448.96932107  -1152448.97062076  -1152448.97062076
  Force two-norm initial, final = 0.16331258 6.3145850e-05
  Force max component initial, final = 0.078486928 1.6450793e-05
  Final line search alpha, max atom move = 1.0000000 1.6450793e-05
  Iterations, force evaluations = 207 414

MPI task timing breakdown:
Section |  min time  |  avg time  |  max time  |%varavg| %total
---------------------------------------------------------------
Pair    | 0.62723    | 1.7441     | 2.2702     |  35.7 | 72.41
Neigh   | 0          | 0          | 0          |   0.0 |  0.00
Comm    | 0.03906    | 0.39391    | 1.1819     |  52.3 | 16.35
Output  | 0          | 0          | 0          |   0.0 |  0.00
Modify  | 2.5736e-05 | 0.0034233  | 0.0073116  |   2.8 |  0.14
Other   |            | 0.2673     |            |       | 11.10

Nlocal:        2776.45 ave        3960 max           0 min
Histogram: 8 4 4 0 4 12 8 6 24 34
Nghost:        3879.22 ave        5427 max         232 min
Histogram: 8 0 8 0 16 0 8 8 16 40
Neighs:        79213.2 ave      115422 max           0 min
Histogram: 8 4 4 0 10 6 8 8 24 32

Total # of neighbors = 8238171
Ave neighs/atom = 28.530364
Neighbor list builds = 0
Dangerous builds = 0
The dot product: 1.18757095136761e-08
Setting atom values ...
  1 settings made for x
  1 settings made for y
  1 settings made for z
Setting up cg style minimization ...
  Unit style    : metal
  Current step  : 28706
Per MPI rank memory allocation (min/avg/max) = 5.441 | 5.816 | 6.074 Mbytes
Step PotEng KinEng TotEng v_fx v_fy v_fz 
   28706   -1152448.9            0   -1152448.9 0.00075713868 -0.0021242895 0.0010979498 
   28898   -1152448.9            0   -1152448.9 -3.0101558e-07 -4.1333114e-06 -4.1564569e-07 
Loop time of 2.23776 on 104 procs for 192 steps with 288751 atoms

99.9% CPU use with 104 MPI tasks x 1 OpenMP threads

Minimization stats:
  Stopping criterion = energy tolerance
  Energy initial, next-to-last, final = 
     -1152448.94153784  -1152448.94283177  -1152448.94283177
  Force two-norm initial, final = 0.16418099 0.00010173847
  Force max component initial, final = 0.078646698 6.1782584e-06
  Final line search alpha, max atom move = 1.0000000 6.1782584e-06
  Iterations, force evaluations = 192 384

MPI task timing breakdown:
Section |  min time  |  avg time  |  max time  |%varavg| %total
---------------------------------------------------------------
Pair    | 0.58048    | 1.6143     | 2.1095     |  34.3 | 72.14
Neigh   | 0          | 0          | 0          |   0.0 |  0.00
Comm    | 0.036885   | 0.36346    | 1.0833     |  50.3 | 16.24
Output  | 0          | 0          | 0          |   0.0 |  0.00
Modify  | 2.5203e-05 | 0.0031782  | 0.0068035  |   2.7 |  0.14
Other   |            | 0.2568     |            |       | 11.48

Nlocal:        2776.45 ave        3960 max           0 min
Histogram: 8 4 4 0 4 12 8 6 24 34
Nghost:        3879.17 ave        5426 max         232 min
Histogram: 8 0 8 0 16 0 8 8 16 40
Neighs:        79213.2 ave      115421 max           0 min
Histogram: 8 4 4 0 10 6 8 8 24 32

Total # of neighbors = 8238172
Ave neighs/atom = 28.530367
Neighbor list builds = 0
Dangerous builds = 0
The dot product: 5.52149623725344e-09
Setting atom values ...
  1 settings made for x
  1 settings made for y
  1 settings made for z
Setting up cg style minimization ...
  Unit style    : metal
  Current step  : 28898
Per MPI rank memory allocation (min/avg/max) = 5.441 | 5.816 | 6.074 Mbytes
Step PotEng KinEng TotEng v_fx v_fy v_fz 
   28898   -1152448.9            0   -1152448.9 5.8163119e-05 -0.0024621399 9.5691968e-05 
   29000   -1152448.9            0   -1152448.9 -4.8888141e-05 -5.2302629e-05 -7.0056071e-05 
   29093   -1152448.9            0   -1152448.9 6.5607005e-06 5.5054501e-06 9.4087999e-06 
Loop time of 2.27606 on 104 procs for 195 steps with 288751 atoms

99.9% CPU use with 104 MPI tasks x 1 OpenMP threads

Minimization stats:
  Stopping criterion = energy tolerance
  Energy initial, next-to-last, final = 
     -1152448.91209895  -1152448.91339273  -1152448.91339273
  Force two-norm initial, final = 0.16524037 0.00010274733
  Force max component initial, final = 0.07878516 1.1443296e-05
  Final line search alpha, max atom move = 1.0000000 1.1443296e-05
  Iterations, force evaluations = 195 390

MPI task timing breakdown:
Section |  min time  |  avg time  |  max time  |%varavg| %total
---------------------------------------------------------------
Pair    | 0.59239    | 1.6439     | 2.1387     |  34.6 | 72.23
Neigh   | 0          | 0          | 0          |   0.0 |  0.00
Comm    | 0.038764   | 0.37644    | 1.135      |  50.9 | 16.54
Output  | 0.0002448  | 0.000248   | 0.00041034 |   0.0 |  0.01
Modify  | 2.4205e-05 | 0.0032269  | 0.0068571  |   2.7 |  0.14
Other   |            | 0.2522     |            |       | 11.08

Nlocal:        2776.45 ave        3960 max           0 min
Histogram: 8 4 4 0 4 12 8 6 24 34
Nghost:        3879.09 ave        5426 max         232 min
Histogram: 8 0 8 0 16 0 8 8 16 40
Neighs:        79213.2 ave      115413 max           0 min
Histogram: 8 4 4 0 10 6 8 8 24 32

Total # of neighbors = 8238170
Ave neighs/atom = 28.530360
Neighbor list builds = 0
Dangerous builds = 0
The dot product: -1.10796994285385e-08
Setting atom values ...
  1 settings made for x
  1 settings made for y
  1 settings made for z
Setting up cg style minimization ...
  Unit style    : metal
  Current step  : 29093
Per MPI rank memory allocation (min/avg/max) = 5.441 | 5.816 | 6.074 Mbytes
Step PotEng KinEng TotEng v_fx v_fy v_fz 
   29093   -1152448.9            0   -1152448.9 -0.00040673201 -0.0024711027 -0.00057103532 
   29298   -1152448.9            0   -1152448.9 -1.6772561e-06 6.7175888e-06 -2.4492913e-06 
Loop time of 2.39015 on 104 procs for 205 steps with 288751 atoms

99.9% CPU use with 104 MPI tasks x 1 OpenMP threads

Minimization stats:
  Stopping criterion = energy tolerance
  Energy initial, next-to-last, final = 
      -1152448.8809454  -1152448.88224161  -1152448.88224161
  Force two-norm initial, final = 0.16639167 8.3022604e-05
  Force max component initial, final = 0.078907112 2.0494956e-05
  Final line search alpha, max atom move = 1.0000000 2.0494956e-05
  Iterations, force evaluations = 205 410

MPI task timing breakdown:
Section |  min time  |  avg time  |  max time  |%varavg| %total
---------------------------------------------------------------
Pair    | 0.61765    | 1.723      | 2.2538     |  35.5 | 72.09
Neigh   | 0          | 0          | 0          |   0.0 |  0.00
Comm    | 0.03731    | 0.38765    | 1.1578     |  52.1 | 16.22
Output  | 0          | 0          | 0          |   0.0 |  0.00
Modify  | 2.5716e-05 | 0.0033836  | 0.0072503  |   2.7 |  0.14
Other   |            | 0.2761     |            |       | 11.55

Nlocal:        2776.45 ave        3960 max           0 min
Histogram: 8 4 4 0 4 12 8 6 24 34
Nghost:        3879.04 ave        5426 max         232 min
Histogram: 8 0 8 0 16 0 8 8 16 40
Neighs:        79213.2 ave      115413 max           0 min
Histogram: 8 4 4 0 10 6 8 8 24 32

Total # of neighbors = 8238169
Ave neighs/atom = 28.530357
Neighbor list builds = 0
Dangerous builds = 0
The dot product: -7.45017370128899e-09
