LAMMPS (29 Oct 2020)
OMP_NUM_THREADS environment is not set. Defaulting to 1 thread. (../comm.cpp:94)
  using 1 OpenMP thread(s) per MPI task
OMP_NUM_THREADS environment is not set. Defaulting to 1 thread. (../comm.cpp:94)
  using 1 OpenMP thread(s) per MPI task
Reading data file ...
  orthogonal box = (-122.39241 -121.13707 -37.090501) to (122.39241 121.13707 37.090501)
  13 by 4 by 2 MPI processor grid
  reading atoms ...
  288751 atoms
  read_data CPU = 0.368 seconds
199981 atoms in group inner
88770 atoms in group outer
1 atoms in group carbon
Neighbor list info ...
  update every 1 steps, delay 0 steps, check yes
  max neighbors/atom: 2000, page size: 100000
  master list distance cutoff = 5.6
  ghost atom cutoff = 5.6
  binsize = 2.8, bins = 88 87 27
  1 neighbor lists, perpetual/occasional/extra = 1 0 0
  (1) pair eam/alloy, perpetual
      attributes: half, newton on
      pair build: half/bin/atomonly/newton
      stencil: half/bin/3d/newton
      bin: standard
Setting up cg style minimization ...
  Unit style    : metal
  Current step  : 0
Per MPI rank memory allocation (min/avg/max) = 5.441 | 5.816 | 6.074 Mbytes
Step v_fx v_fy v_fz PotEng KinEng TotEng 
       0   0.39182058  -0.48997079  -0.53316746   -1152447.8            0   -1152447.8 
     157 1.1301382e-05 -3.9568411e-06 -2.4833209e-05   -1152449.5            0   -1152449.5 
Loop time of 1.87788 on 104 procs for 157 steps with 288751 atoms

99.7% CPU use with 104 MPI tasks x 1 OpenMP threads

Minimization stats:
  Stopping criterion = energy tolerance
  Energy initial, next-to-last, final = 
     -1152447.84514085  -1152449.45035285  -1152449.45035285
  Force two-norm initial, final = 9.8088813 0.00014440733
  Force max component initial, final = 5.2820484 3.4395498e-05
  Final line search alpha, max atom move = 1.0000000 3.4395498e-05
  Iterations, force evaluations = 157 313

MPI task timing breakdown:
Section |  min time  |  avg time  |  max time  |%varavg| %total
---------------------------------------------------------------
Pair    | 0.49274    | 1.3231     | 1.724      |  30.6 | 70.45
Neigh   | 2.1748e-05 | 0.0058517  | 0.0085694  |   3.2 |  0.31
Comm    | 0.038311   | 0.30428    | 0.89989    |  44.7 | 16.20
Output  | 0          | 0          | 0          |   0.0 |  0.00
Modify  | 1.8467e-05 | 0.0016887  | 0.0043313  |   2.6 |  0.09
Other   |            | 0.243      |            |       | 12.94

Nlocal:        2776.45 ave        3959 max           0 min
Histogram: 8 4 4 0 4 12 8 2 28 34
Nghost:        3879.01 ave        5424 max         232 min
Histogram: 8 0 8 0 16 0 8 8 16 40
Neighs:        79213.7 ave      115396 max           0 min
Histogram: 8 4 4 0 10 6 8 8 24 32

Total # of neighbors = 8238222
Ave neighs/atom = 28.530540
Neighbor list builds = 2
Dangerous builds = 0
Setting atom values ...
  1 settings made for x
  1 settings made for y
  1 settings made for z
Setting up cg style minimization ...
  Unit style    : metal
  Current step  : 157
Per MPI rank memory allocation (min/avg/max) = 5.441 | 5.816 | 6.074 Mbytes
Step PotEng KinEng TotEng v_fx v_fy v_fz 
     157   -1152449.4            0   -1152449.4   0.02560802  0.022123587  0.031085595 
     372   -1152449.4            0   -1152449.4 -1.872285e-06 -3.7373702e-07 -2.0969258e-06 
Loop time of 2.55967 on 104 procs for 215 steps with 288751 atoms

99.9% CPU use with 104 MPI tasks x 1 OpenMP threads

Minimization stats:
  Stopping criterion = energy tolerance
  Energy initial, next-to-last, final = 
      -1152449.4452205  -1152449.44878027  -1152449.44878027
  Force two-norm initial, final = 0.28102167 4.8886161e-05
  Force max component initial, final = 0.14428949 3.7134668e-06
  Final line search alpha, max atom move = 1.0000000 3.7134668e-06
  Iterations, force evaluations = 215 430

MPI task timing breakdown:
Section |  min time  |  avg time  |  max time  |%varavg| %total
---------------------------------------------------------------
Pair    | 0.66067    | 1.8206     | 2.3888     |  36.3 | 71.13
Neigh   | 0          | 0          | 0          |   0.0 |  0.00
Comm    | 0.057467   | 0.41571    | 1.2466     |  52.5 | 16.24
Output  | 0          | 0          | 0          |   0.0 |  0.00
Modify  | 2.6794e-05 | 0.0035522  | 0.0075995  |   2.8 |  0.14
Other   |            | 0.3198     |            |       | 12.49

Nlocal:        2776.45 ave        3960 max           0 min
Histogram: 8 4 4 0 4 12 8 2 28 34
Nghost:        3879.01 ave        5424 max         232 min
Histogram: 8 0 8 0 16 0 8 8 16 40
Neighs:        79213.4 ave      115416 max           0 min
Histogram: 8 4 4 0 10 6 8 8 24 32

Total # of neighbors = 8238197
Ave neighs/atom = 28.530454
Neighbor list builds = 0
Dangerous builds = 0
Setting atom values ...
  1 settings made for x
  1 settings made for y
  1 settings made for z
Setting up cg style minimization ...
  Unit style    : metal
  Current step  : 372
Per MPI rank memory allocation (min/avg/max) = 5.441 | 5.816 | 6.074 Mbytes
Step PotEng KinEng TotEng v_fx v_fy v_fz 
     372   -1152449.4            0   -1152449.4  0.031936973   0.03312568  0.052633442 
     589   -1152449.4            0   -1152449.4 3.3882865e-06 9.9208011e-07 4.8715064e-06 
Loop time of 2.54657 on 104 procs for 217 steps with 288751 atoms

99.9% CPU use with 104 MPI tasks x 1 OpenMP threads

Minimization stats:
  Stopping criterion = energy tolerance
  Energy initial, next-to-last, final = 
     -1152449.43848378  -1152449.44312255  -1152449.44312255
  Force two-norm initial, final = 0.32342477 5.6544661e-05
  Force max component initial, final = 0.16013481 9.5587205e-06
  Final line search alpha, max atom move = 1.0000000 9.5587205e-06
  Iterations, force evaluations = 217 434

MPI task timing breakdown:
Section |  min time  |  avg time  |  max time  |%varavg| %total
---------------------------------------------------------------
Pair    | 0.66156    | 1.8227     | 2.3884     |  36.4 | 71.57
Neigh   | 0          | 0          | 0          |   0.0 |  0.00
Comm    | 0.047862   | 0.41316    | 1.2398     |  53.4 | 16.22
Output  | 0          | 0          | 0          |   0.0 |  0.00
Modify  | 2.4987e-05 | 0.0035774  | 0.007661   |   2.8 |  0.14
Other   |            | 0.3072     |            |       | 12.06

Nlocal:        2776.45 ave        3959 max           0 min
Histogram: 8 4 4 0 4 12 8 2 28 34
Nghost:        3879.01 ave        5424 max         232 min
Histogram: 8 0 8 0 16 0 8 8 16 40
Neighs:        79213.4 ave      115394 max           0 min
Histogram: 8 4 4 0 10 6 8 8 24 32

Total # of neighbors = 8238197
Ave neighs/atom = 28.530454
Neighbor list builds = 0
Dangerous builds = 0
The dot product: 6.0546461550381e-07
The cos of the angle between the force vector and the displacement vector: 0.100636791453583
The angle: 84.2241590710855
Setting atom values ...
  1 settings made for x
  1 settings made for y
  1 settings made for z
Setting up cg style minimization ...
  Unit style    : metal
  Current step  : 589
Per MPI rank memory allocation (min/avg/max) = 5.441 | 5.816 | 6.074 Mbytes
Step PotEng KinEng TotEng v_fx v_fy v_fz 
     589   -1152449.4            0   -1152449.4  0.037262212  0.039808607  0.078637695 
     781   -1152449.4            0   -1152449.4 3.2982317e-06 -9.0083748e-09 5.5183979e-06 
Loop time of 2.30614 on 104 procs for 192 steps with 288751 atoms

99.9% CPU use with 104 MPI tasks x 1 OpenMP threads

Minimization stats:
  Stopping criterion = energy tolerance
  Energy initial, next-to-last, final = 
     -1152449.42919354  -1152449.43384409  -1152449.43384409
  Force two-norm initial, final = 0.32545253 0.00010305555
  Force max component initial, final = 0.15902288 9.4908004e-06
  Final line search alpha, max atom move = 1.0000000 9.4908004e-06
  Iterations, force evaluations = 192 384

MPI task timing breakdown:
Section |  min time  |  avg time  |  max time  |%varavg| %total
---------------------------------------------------------------
Pair    | 0.59073    | 1.6265     | 2.1545     |  34.3 | 70.53
Neigh   | 0          | 0          | 0          |   0.0 |  0.00
Comm    | 0.037185   | 0.37589    | 1.1085     |  49.4 | 16.30
Output  | 0          | 0          | 0          |   0.0 |  0.00
Modify  | 2.3571e-05 | 0.0031675  | 0.0068037  |   2.7 |  0.14
Other   |            | 0.3006     |            |       | 13.03

Nlocal:        2776.45 ave        3959 max           0 min
Histogram: 8 4 4 0 4 12 8 2 28 34
Nghost:        3879.01 ave        5424 max         232 min
Histogram: 8 0 8 0 16 0 8 8 16 40
Neighs:        79213.5 ave      115385 max           0 min
Histogram: 8 4 4 0 10 6 8 8 24 32

Total # of neighbors = 8238199
Ave neighs/atom = 28.530461
Neighbor list builds = 0
Dangerous builds = 0
The dot product: 7.88559952517494e-07
The cos of the angle between the force vector and the displacement vector: 0.122658058199111
The angle: 82.9544683756921
Setting atom values ...
  1 settings made for x
  1 settings made for y
  1 settings made for z
Setting up cg style minimization ...
  Unit style    : metal
  Current step  : 781
Per MPI rank memory allocation (min/avg/max) = 5.441 | 5.816 | 6.074 Mbytes
Step PotEng KinEng TotEng v_fx v_fy v_fz 
     781   -1152449.4            0   -1152449.4  0.034552755  0.039484503   0.10280052 
     928   -1152449.4            0   -1152449.4 6.2441343e-07 -3.7372085e-07 1.2048793e-06 
Loop time of 1.73033 on 104 procs for 147 steps with 288751 atoms

99.9% CPU use with 104 MPI tasks x 1 OpenMP threads

Minimization stats:
  Stopping criterion = energy tolerance
  Energy initial, next-to-last, final = 
     -1152449.41710106  -1152449.42180778  -1152449.42180778
  Force two-norm initial, final = 0.32557861 5.4461265e-05
  Force max component initial, final = 0.15803373 5.8647313e-06
  Final line search alpha, max atom move = 1.0000000 5.8647313e-06
  Iterations, force evaluations = 147 294

MPI task timing breakdown:
Section |  min time  |  avg time  |  max time  |%varavg| %total
---------------------------------------------------------------
Pair    | 0.44851    | 1.2355     | 1.6201     |  30.0 | 71.40
Neigh   | 0          | 0          | 0          |   0.0 |  0.00
Comm    | 0.028206   | 0.28013    | 0.83497    |  43.6 | 16.19
Output  | 0          | 0          | 0          |   0.0 |  0.00
Modify  | 1.6894e-05 | 0.0024686  | 0.0082221  |   2.6 |  0.14
Other   |            | 0.2123     |            |       | 12.27

Nlocal:        2776.45 ave        3959 max           0 min
Histogram: 8 4 4 0 4 12 8 4 26 34
Nghost:        3879.05 ave        5424 max         232 min
Histogram: 8 0 8 0 16 0 8 8 16 40
Neighs:        79213.5 ave      115394 max           0 min
Histogram: 8 4 4 0 10 6 8 8 24 32

Total # of neighbors = 8238202
Ave neighs/atom = 28.530471
Neighbor list builds = 0
Dangerous builds = 0
The dot product: 1.63982067614731e-07
The cos of the angle between the force vector and the displacement vector: 0.116498929816232
The angle: 83.3099114208082
Setting atom values ...
  1 settings made for x
  1 settings made for y
  1 settings made for z
Setting up cg style minimization ...
  Unit style    : metal
  Current step  : 928
Per MPI rank memory allocation (min/avg/max) = 5.441 | 5.816 | 6.074 Mbytes
Step PotEng KinEng TotEng v_fx v_fy v_fz 
     928   -1152449.4            0   -1152449.4  0.024412226  0.028471663   0.10898385 
    1000   -1152449.4            0   -1152449.4 0.0001444689 8.7686331e-05 0.00057314371 
    1115   -1152449.4            0   -1152449.4 -3.7711985e-06 1.5946621e-06 -1.1509968e-05 
Loop time of 2.19578 on 104 procs for 187 steps with 288751 atoms

99.9% CPU use with 104 MPI tasks x 1 OpenMP threads

Minimization stats:
  Stopping criterion = energy tolerance
  Energy initial, next-to-last, final = 
     -1152449.40239988  -1152449.40697082  -1152449.40697082
  Force two-norm initial, final = 0.31835218 0.00012697123
  Force max component initial, final = 0.15409981 3.1558856e-05
  Final line search alpha, max atom move = 1.0000000 3.1558856e-05
  Iterations, force evaluations = 187 374

MPI task timing breakdown:
Section |  min time  |  avg time  |  max time  |%varavg| %total
---------------------------------------------------------------
Pair    | 0.57344    | 1.5767     | 2.0603     |  33.7 | 71.81
Neigh   | 0          | 0          | 0          |   0.0 |  0.00
Comm    | 0.039066   | 0.35623    | 1.0698     |  49.7 | 16.22
Output  | 0.0001515  | 0.00015949 | 0.00030379 |   0.0 |  0.01
Modify  | 2.4127e-05 | 0.0030878  | 0.0066905  |   2.6 |  0.14
Other   |            | 0.2596     |            |       | 11.82

Nlocal:        2776.45 ave        3960 max           0 min
Histogram: 8 4 4 0 4 12 8 4 26 34
Nghost:        3879.05 ave        5424 max         232 min
Histogram: 8 0 8 0 16 0 8 8 16 40
Neighs:        79213.5 ave      115437 max           0 min
Histogram: 8 4 4 0 10 6 8 8 24 32

Total # of neighbors = 8238203
Ave neighs/atom = 28.530474
Neighbor list builds = 0
Dangerous builds = 0
The dot product: -1.27093880452168e-06
The cos of the angle between the force vector and the displacement vector: -0.104034126827032
The angle: 95.9715213378474
Setting atom values ...
  1 settings made for x
  1 settings made for y
  1 settings made for z
Setting up cg style minimization ...
  Unit style    : metal
  Current step  : 1115
Per MPI rank memory allocation (min/avg/max) = 5.441 | 5.816 | 6.074 Mbytes
Step PotEng KinEng TotEng v_fx v_fy v_fz 
    1115   -1152449.4            0   -1152449.4  0.014977873  0.013626426   0.10175023 
    1352   -1152449.4            0   -1152449.4 -1.939872e-07 3.5645611e-07 -6.0641034e-07 
Loop time of 2.77896 on 104 procs for 237 steps with 288751 atoms

99.9% CPU use with 104 MPI tasks x 1 OpenMP threads

Minimization stats:
  Stopping criterion = energy tolerance
  Energy initial, next-to-last, final = 
     -1152449.38471285  -1152449.38910474  -1152449.38910474
  Force two-norm initial, final = 0.30824623 2.5327980e-05
  Force max component initial, final = 0.14906175 2.5284231e-06
  Final line search alpha, max atom move = 1.0000000 2.5284231e-06
  Iterations, force evaluations = 237 474

MPI task timing breakdown:
Section |  min time  |  avg time  |  max time  |%varavg| %total
---------------------------------------------------------------
Pair    | 0.72573    | 1.9884     | 2.6171     |  37.9 | 71.55
Neigh   | 0          | 0          | 0          |   0.0 |  0.00
Comm    | 0.043627   | 0.44912    | 1.345      |  55.9 | 16.16
Output  | 0          | 0          | 0          |   0.0 |  0.00
Modify  | 3.0027e-05 | 0.0039002  | 0.0083754  |   3.0 |  0.14
Other   |            | 0.3376     |            |       | 12.15

Nlocal:        2776.45 ave        3960 max           0 min
Histogram: 8 4 4 0 4 12 8 4 26 34
Nghost:        3879.05 ave        5424 max         232 min
Histogram: 8 0 8 0 16 0 8 8 16 40
Neighs:        79213.5 ave      115428 max           0 min
Histogram: 8 4 4 0 10 6 8 8 24 32

Total # of neighbors = 8238204
Ave neighs/atom = 28.530478
Neighbor list builds = 0
Dangerous builds = 0
The dot product: -6.1486118684223e-08
The cos of the angle between the force vector and the displacement vector: -0.0842650842634468
The angle: 94.833765682407
Setting atom values ...
  1 settings made for x
  1 settings made for y
  1 settings made for z
Setting up cg style minimization ...
  Unit style    : metal
  Current step  : 1352
Per MPI rank memory allocation (min/avg/max) = 5.441 | 5.816 | 6.074 Mbytes
Step PotEng KinEng TotEng v_fx v_fy v_fz 
    1352   -1152449.4            0   -1152449.4 0.0087734793 -0.0012757516  0.090819472 
    1597   -1152449.4            0   -1152449.4 -3.9264422e-08 2.5020808e-07 1.3617614e-07 
Loop time of 2.90141 on 104 procs for 245 steps with 288751 atoms

99.9% CPU use with 104 MPI tasks x 1 OpenMP threads

Minimization stats:
  Stopping criterion = energy tolerance
  Energy initial, next-to-last, final = 
     -1152449.36381259  -1152449.36811743  -1152449.36811743
  Force two-norm initial, final = 0.29932224 2.0147177e-05
  Force max component initial, final = 0.14401024 2.3217034e-06
  Final line search alpha, max atom move = 1.0000000 2.3217034e-06
  Iterations, force evaluations = 245 490

MPI task timing breakdown:
Section |  min time  |  avg time  |  max time  |%varavg| %total
---------------------------------------------------------------
Pair    | 0.74614    | 2.0653     | 2.7263     |  38.7 | 71.18
Neigh   | 0          | 0          | 0          |   0.0 |  0.00
Comm    | 0.059601   | 0.46901    | 1.3965     |  56.3 | 16.16
Output  | 0          | 0          | 0          |   0.0 |  0.00
Modify  | 3.0637e-05 | 0.0040394  | 0.0086514  |   3.0 |  0.14
Other   |            | 0.363      |            |       | 12.51

Nlocal:        2776.45 ave        3960 max           0 min
Histogram: 8 4 4 0 4 12 8 4 26 34
Nghost:        3879.05 ave        5424 max         232 min
Histogram: 8 0 8 0 16 0 8 8 16 40
Neighs:        79213.5 ave      115427 max           0 min
Histogram: 8 4 4 0 10 6 8 8 24 32

Total # of neighbors = 8238206
Ave neighs/atom = 28.530485
Neighbor list builds = 0
Dangerous builds = 0
The dot product: -9.08043385599435e-11
The cos of the angle between the force vector and the displacement vector: -0.000315777252878918
The angle: 90.0180927041567
OMP_NUM_THREADS environment is not set. Defaulting to 1 thread. (../comm.cpp:94)
  using 1 OpenMP thread(s) per MPI task
Reading data file ...
  orthogonal box = (-122.39241 -121.13707 -37.090501) to (122.39241 121.13707 37.090501)
  13 by 4 by 2 MPI processor grid
  reading atoms ...
  288751 atoms
  read_data CPU = 0.345 seconds
199981 atoms in group inner
88770 atoms in group outer
Setting atom values ...
  1 settings made for x
  1 settings made for y
  1 settings made for z
Neighbor list info ...
  update every 1 steps, delay 0 steps, check yes
  max neighbors/atom: 2000, page size: 100000
  master list distance cutoff = 5.6
  ghost atom cutoff = 5.6
  binsize = 2.8, bins = 88 87 27
  1 neighbor lists, perpetual/occasional/extra = 1 0 0
  (1) pair eam/alloy, perpetual
      attributes: half, newton on
      pair build: half/bin/atomonly/newton
      stencil: half/bin/3d/newton
      bin: standard
Setting up cg style minimization ...
  Unit style    : metal
  Current step  : 0
Per MPI rank memory allocation (min/avg/max) = 5.441 | 5.816 | 6.074 Mbytes
Step Temp E_pair E_mol TotEng Press 
       0            0   -1152447.1            0   -1152447.1   -523.34745 
     299            0   -1152449.5            0   -1152449.5   -526.37357 
Loop time of 3.46203 on 104 procs for 299 steps with 288751 atoms

99.9% CPU use with 104 MPI tasks x 1 OpenMP threads

Minimization stats:
  Stopping criterion = energy tolerance
  Energy initial, next-to-last, final = 
     -1152447.14007189  -1152449.45035286  -1152449.45035286
  Force two-norm initial, final = 17.383148 4.0249983e-06
  Force max component initial, final = 9.6695300 8.0569898e-07
  Final line search alpha, max atom move = 1.0000000 8.0569898e-07
  Iterations, force evaluations = 299 596

MPI task timing breakdown:
Section |  min time  |  avg time  |  max time  |%varavg| %total
---------------------------------------------------------------
Pair    | 0.92163    | 2.511      | 3.2398     |  42.5 | 72.53
Neigh   | 3.0453e-05 | 0.0088534  | 0.012798   |   3.9 |  0.26
Comm    | 0.059401   | 0.56409    | 1.7126     |  63.6 | 16.29
Output  | 0          | 0          | 0          |   0.0 |  0.00
Modify  | 3.4519e-05 | 0.0031862  | 0.0082544  |   3.6 |  0.09
Other   |            | 0.3749     |            |       | 10.83

Nlocal:        2776.45 ave        3958 max           0 min
Histogram: 8 4 4 0 4 12 8 2 28 34
Nghost:        3879.01 ave        5424 max         232 min
Histogram: 8 0 8 0 16 0 8 8 16 40
Neighs:        79213.6 ave      115364 max           0 min
Histogram: 8 4 4 0 10 6 8 8 24 32

Total # of neighbors = 8238216
Ave neighs/atom = 28.530519
Neighbor list builds = 3
Dangerous builds = 0
OMP_NUM_THREADS environment is not set. Defaulting to 1 thread. (../comm.cpp:94)
  using 1 OpenMP thread(s) per MPI task
Reading data file ...
  orthogonal box = (-122.39241 -121.13707 -37.090501) to (122.39241 121.13707 37.090501)
  13 by 4 by 2 MPI processor grid
  reading atoms ...
  288751 atoms
  read_data CPU = 0.345 seconds
199981 atoms in group inner
88770 atoms in group outer
Setting atom values ...
  1 settings made for x
  1 settings made for y
  1 settings made for z
Neighbor list info ...
  update every 1 steps, delay 0 steps, check yes
  max neighbors/atom: 2000, page size: 100000
  master list distance cutoff = 5.6
  ghost atom cutoff = 5.6
  binsize = 2.8, bins = 88 87 27
  1 neighbor lists, perpetual/occasional/extra = 1 0 0
  (1) pair eam/alloy, perpetual
      attributes: half, newton on
      pair build: half/bin/atomonly/newton
      stencil: half/bin/3d/newton
      bin: standard
Setting up cg style minimization ...
  Unit style    : metal
  Current step  : 0
Per MPI rank memory allocation (min/avg/max) = 5.441 | 5.816 | 6.074 Mbytes
Step Temp E_pair E_mol TotEng Press 
       0            0   -1152441.6            0   -1152441.6   -519.98252 
     156            0   -1152449.5            0   -1152449.5   -526.37366 
Loop time of 1.81896 on 104 procs for 156 steps with 288751 atoms

99.9% CPU use with 104 MPI tasks x 1 OpenMP threads

Minimization stats:
  Stopping criterion = energy tolerance
  Energy initial, next-to-last, final = 
     -1152441.60583578  -1152449.45035284  -1152449.45035284
  Force two-norm initial, final = 46.941140 0.0001700378
  Force max component initial, final = 30.630937 3.6328556e-05
  Final line search alpha, max atom move = 1.0000000 3.6328556e-05
  Iterations, force evaluations = 156 307

MPI task timing breakdown:
Section |  min time  |  avg time  |  max time  |%varavg| %total
---------------------------------------------------------------
Pair    | 0.49354    | 1.3049     | 1.7001     |  30.1 | 71.74
Neigh   | 3.9891e-05 | 0.011833   | 0.01716    |   4.5 |  0.65
Comm    | 0.035622   | 0.29498    | 0.88583    |  44.9 | 16.22
Output  | 0          | 0          | 0          |   0.0 |  0.00
Modify  | 1.6741e-05 | 0.001651   | 0.0042429  |   2.6 |  0.09
Other   |            | 0.2056     |            |       | 11.30

Nlocal:        2776.45 ave        3957 max           0 min
Histogram: 8 4 4 0 4 12 8 2 28 34
Nghost:        3879.01 ave        5424 max         232 min
Histogram: 8 0 8 0 16 0 8 8 16 40
Neighs:        79213.6 ave      115340 max           0 min
Histogram: 8 4 4 0 10 6 8 8 24 32

Total # of neighbors = 8238210
Ave neighs/atom = 28.530499
Neighbor list builds = 4
Dangerous builds = 0
OMP_NUM_THREADS environment is not set. Defaulting to 1 thread. (../comm.cpp:94)
  using 1 OpenMP thread(s) per MPI task
Reading data file ...
  orthogonal box = (-122.39241 -121.13707 -37.090501) to (122.39241 121.13707 37.090501)
  13 by 4 by 2 MPI processor grid
  reading atoms ...
  288751 atoms
  read_data CPU = 0.348 seconds
199981 atoms in group inner
88770 atoms in group outer
1 atoms in group carbon
Neighbor list info ...
  update every 1 steps, delay 0 steps, check yes
  max neighbors/atom: 2000, page size: 100000
  master list distance cutoff = 5.6
  ghost atom cutoff = 5.6
  binsize = 2.8, bins = 88 87 27
  1 neighbor lists, perpetual/occasional/extra = 1 0 0
  (1) pair eam/alloy, perpetual
      attributes: half, newton on
      pair build: half/bin/atomonly/newton
      stencil: half/bin/3d/newton
      bin: standard
Setting up cg style minimization ...
  Unit style    : metal
  Current step  : 0
Per MPI rank memory allocation (min/avg/max) = 5.441 | 5.816 | 6.074 Mbytes
Step v_fx v_fy v_fz PotEng KinEng TotEng 
       0   0.39182058  -0.48997079  -0.53316746   -1152447.8            0   -1152447.8 
     157 1.1301382e-05 -3.9568411e-06 -2.4833209e-05   -1152449.5            0   -1152449.5 
Loop time of 1.81817 on 104 procs for 157 steps with 288751 atoms

99.9% CPU use with 104 MPI tasks x 1 OpenMP threads

Minimization stats:
  Stopping criterion = energy tolerance
  Energy initial, next-to-last, final = 
     -1152447.84514085  -1152449.45035285  -1152449.45035285
  Force two-norm initial, final = 9.8088813 0.00014440733
  Force max component initial, final = 5.2820484 3.4395498e-05
  Final line search alpha, max atom move = 1.0000000 3.4395498e-05
  Iterations, force evaluations = 157 313

MPI task timing breakdown:
Section |  min time  |  avg time  |  max time  |%varavg| %total
---------------------------------------------------------------
Pair    | 0.48211    | 1.3195     | 1.7054     |  30.7 | 72.57
Neigh   | 2.0223e-05 | 0.0059219  | 0.0085737  |   3.2 |  0.33
Comm    | 0.026809   | 0.2967     | 0.90789    |  46.1 | 16.32
Output  | 0          | 0          | 0          |   0.0 |  0.00
Modify  | 1.787e-05  | 0.0016833  | 0.0043027  |   2.6 |  0.09
Other   |            | 0.1944     |            |       | 10.69

Nlocal:        2776.45 ave        3959 max           0 min
Histogram: 8 4 4 0 4 12 8 2 28 34
Nghost:        3879.01 ave        5424 max         232 min
Histogram: 8 0 8 0 16 0 8 8 16 40
Neighs:        79213.7 ave      115396 max           0 min
Histogram: 8 4 4 0 10 6 8 8 24 32

Total # of neighbors = 8238222
Ave neighs/atom = 28.530540
Neighbor list builds = 2
Dangerous builds = 0
Setting atom values ...
  1 settings made for x
  1 settings made for y
  1 settings made for z
Setting up cg style minimization ...
  Unit style    : metal
  Current step  : 157
Per MPI rank memory allocation (min/avg/max) = 5.441 | 5.816 | 6.074 Mbytes
Step PotEng KinEng TotEng v_fx v_fy v_fz 
     157   -1152449.4            0   -1152449.4 -0.027588746 -0.025040851 -0.030869271 
     343   -1152449.4            0   -1152449.4 -2.0682839e-06 -1.5308902e-05 -4.2797555e-05 
Loop time of 2.17756 on 104 procs for 186 steps with 288751 atoms

99.9% CPU use with 104 MPI tasks x 1 OpenMP threads

Minimization stats:
  Stopping criterion = energy tolerance
  Energy initial, next-to-last, final = 
      -1152449.4441081   -1152449.4478961   -1152449.4478961
  Force two-norm initial, final = 0.27590054 0.00019219692
  Force max component initial, final = 0.1451028 4.8547191e-05
  Final line search alpha, max atom move = 1.0000000 4.8547191e-05
  Iterations, force evaluations = 186 372

MPI task timing breakdown:
Section |  min time  |  avg time  |  max time  |%varavg| %total
---------------------------------------------------------------
Pair    | 0.56483    | 1.563      | 2.0424     |  33.7 | 71.78
Neigh   | 0          | 0          | 0          |   0.0 |  0.00
Comm    | 0.034305   | 0.35203    | 1.0641     |  49.5 | 16.17
Output  | 0          | 0          | 0          |   0.0 |  0.00
Modify  | 2.3178e-05 | 0.0030643  | 0.0065219  |   2.6 |  0.14
Other   |            | 0.2595     |            |       | 11.92

Nlocal:        2776.45 ave        3960 max           0 min
Histogram: 8 4 4 0 4 12 8 2 28 34
Nghost:        3879.01 ave        5424 max         232 min
Histogram: 8 0 8 0 16 0 8 8 16 40
Neighs:        79213.5 ave      115416 max           0 min
Histogram: 8 4 4 0 10 6 8 8 24 32

Total # of neighbors = 8238199
Ave neighs/atom = 28.530461
Neighbor list builds = 0
Dangerous builds = 0
Setting atom values ...
  1 settings made for x
  1 settings made for y
  1 settings made for z
Setting up cg style minimization ...
  Unit style    : metal
  Current step  : 343
Per MPI rank memory allocation (min/avg/max) = 5.441 | 5.816 | 6.074 Mbytes
Step PotEng KinEng TotEng v_fx v_fy v_fz 
     343   -1152449.4            0   -1152449.4 -0.020847104 -0.021671908 -0.037684387 
     552   -1152449.4            0   -1152449.4 -4.7303727e-06 3.1278327e-06 1.8181172e-05 
Loop time of 2.48545 on 104 procs for 209 steps with 288751 atoms

99.9% CPU use with 104 MPI tasks x 1 OpenMP threads

Minimization stats:
  Stopping criterion = energy tolerance
  Energy initial, next-to-last, final = 
      -1152449.4391871  -1152449.44205918  -1152449.44205918
  Force two-norm initial, final = 0.24290763 7.8964439e-05
  Force max component initial, final = 0.13211299 1.8181172e-05
  Final line search alpha, max atom move = 1.0000000 1.8181172e-05
  Iterations, force evaluations = 209 418

MPI task timing breakdown:
Section |  min time  |  avg time  |  max time  |%varavg| %total
---------------------------------------------------------------
Pair    | 0.63614    | 1.7652     | 2.2829     |  35.9 | 71.02
Neigh   | 0          | 0          | 0          |   0.0 |  0.00
Comm    | 0.042948   | 0.40593    | 1.2153     |  52.5 | 16.33
Output  | 0          | 0          | 0          |   0.0 |  0.00
Modify  | 2.5988e-05 | 0.0034501  | 0.0073377  |   2.8 |  0.14
Other   |            | 0.3109     |            |       | 12.51

Nlocal:        2776.45 ave        3959 max           0 min
Histogram: 8 4 4 0 4 12 8 2 28 34
Nghost:        3879.01 ave        5424 max         232 min
Histogram: 8 0 8 0 16 0 8 8 16 40
Neighs:        79213.4 ave      115393 max           0 min
Histogram: 8 4 4 0 10 6 8 8 24 32

Total # of neighbors = 8238197
Ave neighs/atom = 28.530454
Neighbor list builds = 0
Dangerous builds = 0
The dot product: -6.35323673215993e-07
The cos of the angle between the force vector and the displacement vector: -0.0333589531508267
The angle: 91.9116818959367
Setting atom values ...
  1 settings made for x
  1 settings made for y
  1 settings made for z
Setting up cg style minimization ...
  Unit style    : metal
  Current step  : 552
Per MPI rank memory allocation (min/avg/max) = 5.441 | 5.816 | 6.074 Mbytes
Step PotEng KinEng TotEng v_fx v_fy v_fz 
     552   -1152449.4            0   -1152449.4 -0.018963589 -0.020002059 -0.041039673 
     726   -1152449.4            0   -1152449.4 2.9493836e-05 5.3388435e-06 -3.5268333e-05 
Loop time of 2.00833 on 104 procs for 174 steps with 288751 atoms

99.9% CPU use with 104 MPI tasks x 1 OpenMP threads

Minimization stats:
  Stopping criterion = energy tolerance
  Energy initial, next-to-last, final = 
     -1152449.43027953  -1152449.43311671  -1152449.43311671
  Force two-norm initial, final = 0.24153583 0.00019563813
  Force max component initial, final = 0.13760148 4.6640878e-05
  Final line search alpha, max atom move = 1.0000000 4.6640878e-05
  Iterations, force evaluations = 174 348

MPI task timing breakdown:
Section |  min time  |  avg time  |  max time  |%varavg| %total
---------------------------------------------------------------
Pair    | 0.52777    | 1.4609     | 1.8938     |  32.6 | 72.74
Neigh   | 0          | 0          | 0          |   0.0 |  0.00
Comm    | 0.030866   | 0.32818    | 0.99314    |  48.2 | 16.34
Output  | 0          | 0          | 0          |   0.0 |  0.00
Modify  | 2.1743e-05 | 0.002868   | 0.0061042  |   2.5 |  0.14
Other   |            | 0.2164     |            |       | 10.77

Nlocal:        2776.45 ave        3958 max           0 min
Histogram: 8 4 4 0 4 12 8 2 28 34
Nghost:        3879.01 ave        5424 max         232 min
Histogram: 8 0 8 0 16 0 8 8 16 40
Neighs:        79213.5 ave      115365 max           0 min
Histogram: 8 4 4 0 10 6 8 8 24 32

Total # of neighbors = 8238199
Ave neighs/atom = 28.530461
Neighbor list builds = 0
Dangerous builds = 0
The dot product: 1.40830241939602e-06
The cos of the angle between the force vector and the displacement vector: 0.0304271563166502
The angle: 88.2563832463575
Setting atom values ...
  1 settings made for x
  1 settings made for y
  1 settings made for z
Setting up cg style minimization ...
  Unit style    : metal
  Current step  : 726
Per MPI rank memory allocation (min/avg/max) = 5.441 | 5.816 | 6.074 Mbytes
Step PotEng KinEng TotEng v_fx v_fy v_fz 
     726   -1152449.4            0   -1152449.4 -0.019465753 -0.019308102  -0.04257749 
     854   -1152449.4            0   -1152449.4 2.1310008e-05 3.4832525e-06 -3.2350678e-05 
Loop time of 1.50902 on 104 procs for 128 steps with 288751 atoms

99.9% CPU use with 104 MPI tasks x 1 OpenMP threads

Minimization stats:
  Stopping criterion = energy tolerance
  Energy initial, next-to-last, final = 
     -1152449.41818782   -1152449.4209918   -1152449.4209918
  Force two-norm initial, final = 0.24060733 0.0001959502
  Force max component initial, final = 0.14184899 3.5452659e-05
  Final line search alpha, max atom move = 1.0000000 3.5452659e-05
  Iterations, force evaluations = 128 256

MPI task timing breakdown:
Section |  min time  |  avg time  |  max time  |%varavg| %total
---------------------------------------------------------------
Pair    | 0.39007    | 1.0821     | 1.3975     |  27.6 | 71.71
Neigh   | 0          | 0          | 0          |   0.0 |  0.00
Comm    | 0.03045    | 0.24539    | 0.7554     |  41.9 | 16.26
Output  | 0          | 0          | 0          |   0.0 |  0.00
Modify  | 1.5742e-05 | 0.0021125  | 0.0044815  |   2.2 |  0.14
Other   |            | 0.1795     |            |       | 11.89

Nlocal:        2776.45 ave        3956 max           0 min
Histogram: 8 4 4 0 4 12 8 0 30 34
Nghost:        3879.01 ave        5425 max         232 min
Histogram: 8 0 8 0 16 0 8 8 16 40
Neighs:        79213.5 ave      115305 max           0 min
Histogram: 8 4 4 0 10 6 8 8 24 32

Total # of neighbors = 8238203
Ave neighs/atom = 28.530474
Neighbor list builds = 0
Dangerous builds = 0
The dot product: 1.10095467439141e-06
The cos of the angle between the force vector and the displacement vector: 0.0283058632182855
The angle: 88.3779768528507
Setting atom values ...
  1 settings made for x
  1 settings made for y
  1 settings made for z
Setting up cg style minimization ...
  Unit style    : metal
  Current step  : 854
Per MPI rank memory allocation (min/avg/max) = 5.441 | 5.816 | 6.074 Mbytes
Step PotEng KinEng TotEng v_fx v_fy v_fz 
     854   -1152449.4            0   -1152449.4 -0.022332702 -0.020179078 -0.045016925 
    1000   -1152449.4            0   -1152449.4 8.8083365e-07 -5.5960129e-06 -3.1385975e-05 
    1001   -1152449.4            0   -1152449.4 -6.2148703e-06 9.7595655e-07 2.1669475e-05 
Loop time of 1.69509 on 104 procs for 147 steps with 288751 atoms

99.9% CPU use with 104 MPI tasks x 1 OpenMP threads

Minimization stats:
  Stopping criterion = energy tolerance
  Energy initial, next-to-last, final = 
     -1152449.40285342  -1152449.40563306  -1152449.40563306
  Force two-norm initial, final = 0.24055368 0.00010862738
  Force max component initial, final = 0.14548745 2.1669475e-05
  Final line search alpha, max atom move = 1.0000000 2.1669475e-05
  Iterations, force evaluations = 147 294

MPI task timing breakdown:
Section |  min time  |  avg time  |  max time  |%varavg| %total
---------------------------------------------------------------
Pair    | 0.44569    | 1.2331     | 1.5985     |  29.9 | 72.74
Neigh   | 0          | 0          | 0          |   0.0 |  0.00
Comm    | 0.02817    | 0.27549    | 0.83937    |  44.6 | 16.25
Output  | 0.00017102 | 0.00017491 | 0.00037713 |   0.0 |  0.01
Modify  | 1.8437e-05 | 0.002424   | 0.0051469  |   2.3 |  0.14
Other   |            | 0.1839     |            |       | 10.85

Nlocal:        2776.45 ave        3952 max           0 min
Histogram: 8 4 4 0 4 12 8 0 30 34
Nghost:        3879.01 ave        5425 max         232 min
Histogram: 8 0 8 0 16 0 8 8 16 40
Neighs:        79213.5 ave      115166 max           0 min
Histogram: 8 4 4 0 10 6 8 8 24 32

Total # of neighbors = 8238203
Ave neighs/atom = 28.530474
Neighbor list builds = 0
Dangerous builds = 0
The dot product: -5.78251708161716e-07
The cos of the angle between the force vector and the displacement vector: -0.0256269507092209
The angle: 91.4684768820792
Setting atom values ...
  1 settings made for x
  1 settings made for y
  1 settings made for z
Setting up cg style minimization ...
  Unit style    : metal
  Current step  : 1001
Per MPI rank memory allocation (min/avg/max) = 5.441 | 5.816 | 6.074 Mbytes
Step PotEng KinEng TotEng v_fx v_fy v_fz 
    1001   -1152449.4            0   -1152449.4 -0.028695468 -0.023369164 -0.051440242 
    1122   -1152449.4            0   -1152449.4 -3.6372179e-05 -9.8633837e-06 5.532527e-05 
Loop time of 1.39775 on 104 procs for 121 steps with 288751 atoms

99.9% CPU use with 104 MPI tasks x 1 OpenMP threads

Minimization stats:
  Stopping criterion = energy tolerance
  Energy initial, next-to-last, final = 
     -1152449.38430026  -1152449.38708535  -1152449.38708535
  Force two-norm initial, final = 0.24198275 0.00022010937
  Force max component initial, final = 0.14904051 5.5325270e-05
  Final line search alpha, max atom move = 1.0000000 5.5325270e-05
  Iterations, force evaluations = 121 242

MPI task timing breakdown:
Section |  min time  |  avg time  |  max time  |%varavg| %total
---------------------------------------------------------------
Pair    | 0.36873    | 1.0186     | 1.3176     |  27.1 | 72.88
Neigh   | 0          | 0          | 0          |   0.0 |  0.00
Comm    | 0.02017    | 0.22766    | 0.70038    |  40.6 | 16.29
Output  | 0          | 0          | 0          |   0.0 |  0.00
Modify  | 1.5319e-05 | 0.0019981  | 0.004263   |   2.1 |  0.14
Other   |            | 0.1495     |            |       | 10.69

Nlocal:        2776.45 ave        3949 max           0 min
Histogram: 8 4 4 0 4 12 8 0 28 36
Nghost:        3879.01 ave        5426 max         232 min
Histogram: 8 0 8 0 16 0 8 8 16 40
Neighs:        79213.5 ave      115048 max           0 min
Histogram: 8 4 4 0 10 6 8 8 24 32

Total # of neighbors = 8238204
Ave neighs/atom = 28.530478
Neighbor list builds = 0
Dangerous builds = 0
The dot product: -1.36847260262137e-06
The cos of the angle between the force vector and the displacement vector: -0.0204429439437176
The angle: 91.1713760075242
Setting atom values ...
  1 settings made for x
  1 settings made for y
  1 settings made for z
Setting up cg style minimization ...
  Unit style    : metal
  Current step  : 1122
Per MPI rank memory allocation (min/avg/max) = 5.441 | 5.816 | 6.074 Mbytes
Step PotEng KinEng TotEng v_fx v_fy v_fz 
    1122   -1152449.4            0   -1152449.4  -0.04429971  -0.03162271 -0.071407258 
    1304   -1152449.4            0   -1152449.4 2.6859134e-06 -2.6576519e-06 -3.1487392e-05 
Loop time of 2.11466 on 104 procs for 182 steps with 288751 atoms

99.9% CPU use with 104 MPI tasks x 1 OpenMP threads

Minimization stats:
  Stopping criterion = energy tolerance
  Energy initial, next-to-last, final = 
     -1152449.36281644  -1152449.36674667  -1152449.36674667
  Force two-norm initial, final = 0.24948652 0.00015813481
  Force max component initial, final = 0.15316226 3.3703004e-05
  Final line search alpha, max atom move = 1.0000000 3.3703004e-05
  Iterations, force evaluations = 182 364

MPI task timing breakdown:
Section |  min time  |  avg time  |  max time  |%varavg| %total
---------------------------------------------------------------
Pair    | 0.55106    | 1.5305     | 1.9845     |  33.3 | 72.38
Neigh   | 0          | 0          | 0          |   0.0 |  0.00
Comm    | 0.037482   | 0.3448     | 1.051      |  49.7 | 16.31
Output  | 0          | 0          | 0          |   0.0 |  0.00
Modify  | 2.2818e-05 | 0.0030036  | 0.006437   |   2.6 |  0.14
Other   |            | 0.2363     |            |       | 11.18

Nlocal:        2776.45 ave        3943 max           0 min
Histogram: 8 4 4 0 4 12 8 0 28 36
Nghost:        3879.09 ave        5426 max         232 min
Histogram: 8 0 8 0 16 0 8 8 16 40
Neighs:        79213.5 ave      114884 max           0 min
Histogram: 8 4 4 0 10 6 8 8 22 34

Total # of neighbors = 8238203
Ave neighs/atom = 28.530474
Neighbor list builds = 0
Dangerous builds = 0
The dot product: 5.5081529442711e-06
The cos of the angle between the force vector and the displacement vector: 0.173685919723098
The angle: 79.9978041726121
Setting atom values ...
  1 settings made for x
  1 settings made for y
  1 settings made for z
Setting up cg style minimization ...
  Unit style    : metal
  Current step  : 1304
Per MPI rank memory allocation (min/avg/max) = 5.441 | 5.816 | 6.074 Mbytes
Step PotEng KinEng TotEng v_fx v_fy v_fz 
    1304   -1152449.3            0   -1152449.3  -0.14381249 -0.035365629  -0.17126563 
    1512   -1152449.4            0   -1152449.4 -4.0575323e-05 -1.6364701e-05 4.0337241e-05 
Loop time of 2.41067 on 104 procs for 208 steps with 288751 atoms

99.9% CPU use with 104 MPI tasks x 1 OpenMP threads

Minimization stats:
  Stopping criterion = energy tolerance
  Energy initial, next-to-last, final = 
     -1152449.34466557  -1152449.35455972  -1152449.35455972
  Force two-norm initial, final = 0.31830906 0.00020715856
  Force max component initial, final = 0.17126563 6.4534224e-05
  Final line search alpha, max atom move = 1.0000000 6.4534224e-05
  Iterations, force evaluations = 208 416

MPI task timing breakdown:
Section |  min time  |  avg time  |  max time  |%varavg| %total
---------------------------------------------------------------
Pair    | 0.64144    | 1.7541     | 2.2649     |  35.5 | 72.77
Neigh   | 1.0095e-05 | 0.0029692  | 0.0042748  |   2.2 |  0.12
Comm    | 0.037242   | 0.39406    | 1.1898     |  53.2 | 16.35
Output  | 0          | 0          | 0          |   0.0 |  0.00
Modify  | 2.54e-05   | 0.0034318  | 0.0073092  |   2.8 |  0.14
Other   |            | 0.2561     |            |       | 10.62

Nlocal:        2776.45 ave        3947 max           0 min
Histogram: 8 4 4 0 4 12 8 0 28 36
Nghost:        3879.01 ave        5425 max         232 min
Histogram: 8 0 8 0 16 0 8 8 16 40
Neighs:        79213.4 ave      114982 max           0 min
Histogram: 8 4 4 0 10 6 8 8 24 32

Total # of neighbors = 8238194
Ave neighs/atom = 28.530443
Neighbor list builds = 1
Dangerous builds = 0
The dot product: -1.75216795782848e-07
The cos of the angle between the force vector and the displacement vector: -0.00294440293700891
The angle: 90.1687021052377
Setting atom values ...
  1 settings made for x
  1 settings made for y
  1 settings made for z
Setting up cg style minimization ...
  Unit style    : metal
  Current step  : 1512
Per MPI rank memory allocation (min/avg/max) = 5.441 | 5.816 | 6.074 Mbytes
Step PotEng KinEng TotEng v_fx v_fy v_fz 
    1512   -1152449.3            0   -1152449.3  -0.13417392  0.013166607  -0.12345318 
    1845   -1152449.3            0   -1152449.3 -4.4479275e-08 1.3801087e-07 -5.4655916e-07 
Loop time of 3.86307 on 104 procs for 333 steps with 288751 atoms

99.9% CPU use with 104 MPI tasks x 1 OpenMP threads

Minimization stats:
  Stopping criterion = energy tolerance
  Energy initial, next-to-last, final = 
     -1152449.33517503  -1152449.34201885  -1152449.34201885
  Force two-norm initial, final = 0.27802541 1.8874522e-06
  Force max component initial, final = 0.14158933 5.4655916e-07
  Final line search alpha, max atom move = 1.0000000 5.4655916e-07
  Iterations, force evaluations = 333 666

MPI task timing breakdown:
Section |  min time  |  avg time  |  max time  |%varavg| %total
---------------------------------------------------------------
Pair    | 1.0155     | 2.7935     | 3.6268     |  44.9 | 72.31
Neigh   | 0          | 0          | 0          |   0.0 |  0.00
Comm    | 0.062298   | 0.62771    | 1.9149     |  66.6 | 16.25
Output  | 0          | 0          | 0          |   0.0 |  0.00
Modify  | 4.0682e-05 | 0.0054781  | 0.011608   |   3.5 |  0.14
Other   |            | 0.4364     |            |       | 11.30

Nlocal:        2776.45 ave        3948 max           0 min
Histogram: 8 4 4 0 4 12 8 0 28 36
Nghost:        3879.01 ave        5424 max         232 min
Histogram: 8 0 8 0 16 0 8 8 16 40
Neighs:        79213.4 ave      115025 max           0 min
Histogram: 8 4 4 0 10 6 8 8 24 32

Total # of neighbors = 8238198
Ave neighs/atom = 28.530457
Neighbor list builds = 0
Dangerous builds = 0
The dot product: 7.7679132520693e-08
The cos of the angle between the force vector and the displacement vector: 0.137371777547293
The angle: 82.1042092541841
Setting atom values ...
  1 settings made for x
  1 settings made for y
  1 settings made for z
Setting up cg style minimization ...
  Unit style    : metal
  Current step  : 1845
Per MPI rank memory allocation (min/avg/max) = 5.441 | 5.816 | 6.074 Mbytes
Step PotEng KinEng TotEng v_fx v_fy v_fz 
    1845   -1152449.3            0   -1152449.3 -0.065438923  0.031528105 -0.080826637 
    2000   -1152449.3            0   -1152449.3 0.00017494391 -0.00015218165 0.00038256678 
    2077   -1152449.3            0   -1152449.3 -8.618883e-06 1.200724e-05 -2.9906229e-05 
Loop time of 2.68159 on 104 procs for 232 steps with 288751 atoms

99.9% CPU use with 104 MPI tasks x 1 OpenMP threads

Minimization stats:
  Stopping criterion = energy tolerance
  Energy initial, next-to-last, final = 
     -1152449.32687592  -1152449.34789543  -1152449.34789543
  Force two-norm initial, final = 0.24449016 0.00018115993
  Force max component initial, final = 0.1193679 3.8150692e-05
  Final line search alpha, max atom move = 1.0000000 3.8150692e-05
  Iterations, force evaluations = 232 464

MPI task timing breakdown:
Section |  min time  |  avg time  |  max time  |%varavg| %total
---------------------------------------------------------------
Pair    | 0.70571    | 1.952      | 2.5272     |  37.7 | 72.79
Neigh   | 1.0095e-05 | 0.0029516  | 0.0042734  |   2.2 |  0.11
Comm    | 0.042072   | 0.43716    | 1.3291     |  56.1 | 16.30
Output  | 0.00011835 | 0.00012354 | 0.0003081  |   0.0 |  0.00
Modify  | 2.8474e-05 | 0.003817   | 0.0081166  |   2.9 |  0.14
Other   |            | 0.2856     |            |       | 10.65

Nlocal:        2776.45 ave        3951 max           0 min
Histogram: 8 4 4 0 4 12 8 0 30 34
Nghost:        3879.01 ave        5424 max         232 min
Histogram: 8 0 8 0 16 0 8 8 16 40
Neighs:        79213.5 ave      115132 max           0 min
Histogram: 8 4 4 0 10 6 8 8 24 32

Total # of neighbors = 8238199
Ave neighs/atom = 28.530461
Neighbor list builds = 1
Dangerous builds = 0
The dot product: 5.68295109292811e-06
The cos of the angle between the force vector and the displacement vector: 0.170355932482902
The angle: 80.1914856388299
Setting atom values ...
  1 settings made for x
  1 settings made for y
  1 settings made for z
Setting up cg style minimization ...
  Unit style    : metal
  Current step  : 2077
Per MPI rank memory allocation (min/avg/max) = 5.441 | 5.816 | 6.074 Mbytes
Step PotEng KinEng TotEng v_fx v_fy v_fz 
    2077   -1152449.3            0   -1152449.3  0.012375491 -0.031602436   0.05086144 
    2208   -1152449.4            0   -1152449.4 2.3144798e-05 -3.7936707e-05 6.0231443e-05 
Loop time of 1.52046 on 104 procs for 131 steps with 288751 atoms

99.9% CPU use with 104 MPI tasks x 1 OpenMP threads

Minimization stats:
  Stopping criterion = energy tolerance
  Energy initial, next-to-last, final = 
     -1152449.34893098  -1152449.35105354  -1152449.35105354
  Force two-norm initial, final = 0.19450861 0.00029364454
  Force max component initial, final = 0.077935868 6.0231443e-05
  Final line search alpha, max atom move = 1.0000000 6.0231443e-05
  Iterations, force evaluations = 131 262

MPI task timing breakdown:
Section |  min time  |  avg time  |  max time  |%varavg| %total
---------------------------------------------------------------
Pair    | 0.39695    | 1.1009     | 1.4293     |  28.3 | 72.41
Neigh   | 0          | 0          | 0          |   0.0 |  0.00
Comm    | 0.029202   | 0.24811    | 0.75357    |  41.8 | 16.32
Output  | 0          | 0          | 0          |   0.0 |  0.00
Modify  | 1.658e-05  | 0.0021632  | 0.0045964  |   2.2 |  0.14
Other   |            | 0.1692     |            |       | 11.13

Nlocal:        2776.45 ave        3961 max           0 min
Histogram: 8 4 4 0 6 10 8 2 28 34
Nghost:        3879.01 ave        5426 max         232 min
Histogram: 8 0 8 0 16 0 8 8 16 40
Neighs:        79213.4 ave      115457 max           0 min
Histogram: 8 4 4 0 10 6 8 8 24 32

Total # of neighbors = 8238190
Ave neighs/atom = 28.530429
Neighbor list builds = 0
Dangerous builds = 0
The dot product: 1.18869263613632e-06
The cos of the angle between the force vector and the displacement vector: 0.0158807425704894
The angle: 89.0900622250318
Setting atom values ...
  1 settings made for x
  1 settings made for y
  1 settings made for z
Setting up cg style minimization ...
  Unit style    : metal
  Current step  : 2208
Per MPI rank memory allocation (min/avg/max) = 5.441 | 5.816 | 6.074 Mbytes
Step PotEng KinEng TotEng v_fx v_fy v_fz 
    2208   -1152449.3            0   -1152449.3 0.0010802443 -0.016791232  0.028502677 
    2392   -1152449.4            0   -1152449.4 -3.1286311e-05 -3.4009015e-05 6.0664128e-05 
Loop time of 2.12564 on 104 procs for 184 steps with 288751 atoms

99.9% CPU use with 104 MPI tasks x 1 OpenMP threads

Minimization stats:
  Stopping criterion = energy tolerance
  Energy initial, next-to-last, final = 
     -1152449.34930336  -1152449.35132204  -1152449.35132204
  Force two-norm initial, final = 0.18743477 0.00019317589
  Force max component initial, final = 0.079384144 6.0664128e-05
  Final line search alpha, max atom move = 1.0000000 6.0664128e-05
  Iterations, force evaluations = 184 368

MPI task timing breakdown:
Section |  min time  |  avg time  |  max time  |%varavg| %total
---------------------------------------------------------------
Pair    | 0.55943    | 1.5478     | 2.0075     |  33.5 | 72.82
Neigh   | 0          | 0          | 0          |   0.0 |  0.00
Comm    | 0.031747   | 0.34781    | 1.064      |  50.1 | 16.36
Output  | 0          | 0          | 0          |   0.0 |  0.00
Modify  | 2.2584e-05 | 0.0030324  | 0.006461   |   2.6 |  0.14
Other   |            | 0.227      |            |       | 10.68

Nlocal:        2776.45 ave        3961 max           0 min
Histogram: 8 4 4 0 6 10 8 2 28 34
Nghost:        3879.01 ave        5429 max         232 min
Histogram: 8 0 8 0 16 0 8 8 16 40
Neighs:        79213.4 ave      115457 max           0 min
Histogram: 8 4 4 0 10 6 8 8 24 32

Total # of neighbors = 8238190
Ave neighs/atom = 28.530429
Neighbor list builds = 0
Dangerous builds = 0
The dot product: 9.03730532379803e-08
The cos of the angle between the force vector and the displacement vector: 0.00118506544150177
The angle: 89.9321007358622
Setting atom values ...
  1 settings made for x
  1 settings made for y
  1 settings made for z
Setting up cg style minimization ...
  Unit style    : metal
  Current step  : 2392
Per MPI rank memory allocation (min/avg/max) = 5.441 | 5.816 | 6.074 Mbytes
Step PotEng KinEng TotEng v_fx v_fy v_fz 
    2392   -1152449.3            0   -1152449.3 0.0021961365 -0.015350402  0.026046986 
    2580   -1152449.3            0   -1152449.3 1.8211893e-06 7.3712262e-08 -2.8396243e-07 
Loop time of 2.21163 on 104 procs for 188 steps with 288751 atoms

99.9% CPU use with 104 MPI tasks x 1 OpenMP threads

Minimization stats:
  Stopping criterion = energy tolerance
  Energy initial, next-to-last, final = 
     -1152449.34658544   -1152449.3485653   -1152449.3485653
  Force two-norm initial, final = 0.18575445 0.000157775
  Force max component initial, final = 0.078964385 2.7357752e-05
  Final line search alpha, max atom move = 1.0000000 2.7357752e-05
  Iterations, force evaluations = 188 376

MPI task timing breakdown:
Section |  min time  |  avg time  |  max time  |%varavg| %total
---------------------------------------------------------------
Pair    | 0.57305    | 1.5799     | 2.0588     |  33.9 | 71.44
Neigh   | 0          | 0          | 0          |   0.0 |  0.00
Comm    | 0.033896   | 0.35963    | 1.0725     |  49.4 | 16.26
Output  | 0          | 0          | 0          |   0.0 |  0.00
Modify  | 2.2874e-05 | 0.003096   | 0.006583   |   2.6 |  0.14
Other   |            | 0.269      |            |       | 12.16

Nlocal:        2776.45 ave        3961 max           0 min
Histogram: 8 4 4 0 6 10 8 2 28 34
Nghost:        3879.01 ave        5424 max         232 min
Histogram: 8 0 8 0 16 0 8 8 16 40
Neighs:        79213.4 ave      115457 max           0 min
Histogram: 8 4 4 0 10 6 8 8 24 32

Total # of neighbors = 8238191
Ave neighs/atom = 28.530433
Neighbor list builds = 0
Dangerous builds = 0
The dot product: 1.24722081467225e-09
The cos of the angle between the force vector and the displacement vector: 0.000676122243539812
The angle: 89.9612610460586
Setting atom values ...
  1 settings made for x
  1 settings made for y
  1 settings made for z
Setting up cg style minimization ...
  Unit style    : metal
  Current step  : 2580
Per MPI rank memory allocation (min/avg/max) = 5.441 | 5.816 | 6.074 Mbytes
Step PotEng KinEng TotEng v_fx v_fy v_fz 
    2580   -1152449.3            0   -1152449.3 0.0022313201 -0.012999467  0.022115974 
    2773   -1152449.3            0   -1152449.3 1.0415424e-06 -2.0946984e-05 3.5854436e-05 
Loop time of 2.24492 on 104 procs for 193 steps with 288751 atoms

99.9% CPU use with 104 MPI tasks x 1 OpenMP threads

Minimization stats:
  Stopping criterion = energy tolerance
  Energy initial, next-to-last, final = 
     -1152449.34081647   -1152449.3427512   -1152449.3427512
  Force two-norm initial, final = 0.18373695 0.0001394462
  Force max component initial, final = 0.078697385 3.5854436e-05
  Final line search alpha, max atom move = 1.0000000 3.5854436e-05
  Iterations, force evaluations = 193 386

MPI task timing breakdown:
Section |  min time  |  avg time  |  max time  |%varavg| %total
---------------------------------------------------------------
Pair    | 0.58928    | 1.6267     | 2.1096     |  34.4 | 72.46
Neigh   | 0          | 0          | 0          |   0.0 |  0.00
Comm    | 0.03496    | 0.36572    | 1.1096     |  50.7 | 16.29
Output  | 0          | 0          | 0          |   0.0 |  0.00
Modify  | 2.3905e-05 | 0.0031824  | 0.0067612  |   2.7 |  0.14
Other   |            | 0.2493     |            |       | 11.11

Nlocal:        2776.45 ave        3960 max           0 min
Histogram: 8 4 4 0 4 12 8 2 28 34
Nghost:        3879.01 ave        5424 max         232 min
Histogram: 8 0 8 0 16 0 8 8 16 40
Neighs:        79213.4 ave      115424 max           0 min
Histogram: 8 4 4 0 10 6 8 8 24 32

Total # of neighbors = 8238190
Ave neighs/atom = 28.530429
Neighbor list builds = 0
Dangerous builds = 0
The dot product: 5.58210865229192e-08
The cos of the angle between the force vector and the displacement vector: 0.0013438574349465
The angle: 89.9230026175347
Setting atom values ...
  1 settings made for x
  1 settings made for y
  1 settings made for z
Setting up cg style minimization ...
  Unit style    : metal
  Current step  : 2773
Per MPI rank memory allocation (min/avg/max) = 5.441 | 5.816 | 6.074 Mbytes
Step PotEng KinEng TotEng v_fx v_fy v_fz 
    2773   -1152449.3            0   -1152449.3 0.0010101147 -0.010756699  0.018429334 
    2949   -1152449.3            0   -1152449.3 2.4194162e-05 4.2371598e-06 -9.3164834e-06 
Loop time of 2.04075 on 104 procs for 176 steps with 288751 atoms

99.9% CPU use with 104 MPI tasks x 1 OpenMP threads

Minimization stats:
  Stopping criterion = energy tolerance
  Energy initial, next-to-last, final = 
     -1152449.33194145  -1152449.33384945  -1152449.33384945
  Force two-norm initial, final = 0.18270127 0.000234751
  Force max component initial, final = 0.078364982 3.4895592e-05
  Final line search alpha, max atom move = 1.0000000 3.4895592e-05
  Iterations, force evaluations = 176 352

MPI task timing breakdown:
Section |  min time  |  avg time  |  max time  |%varavg| %total
---------------------------------------------------------------
Pair    | 0.53607    | 1.4796     | 1.9286     |  32.7 | 72.50
Neigh   | 0          | 0          | 0          |   0.0 |  0.00
Comm    | 0.033933   | 0.33251    | 1.0057     |  48.6 | 16.29
Output  | 0          | 0          | 0          |   0.0 |  0.00
Modify  | 2.1727e-05 | 0.0029017  | 0.0061819  |   2.5 |  0.14
Other   |            | 0.2257     |            |       | 11.06

Nlocal:        2776.45 ave        3959 max           0 min
Histogram: 8 4 4 0 4 12 8 2 28 34
Nghost:        3879.01 ave        5424 max         232 min
Histogram: 8 0 8 0 16 0 8 8 16 40
Neighs:        79213.4 ave      115393 max           0 min
Histogram: 8 4 4 0 10 6 8 8 24 32

Total # of neighbors = 8238192
Ave neighs/atom = 28.530436
Neighbor list builds = 0
Dangerous builds = 0
The dot product: 1.66775407881307e-09
The cos of the angle between the force vector and the displacement vector: 6.34853517948193e-05
The angle: 89.9963625572789
Setting atom values ...
  1 settings made for x
  1 settings made for y
  1 settings made for z
Setting up cg style minimization ...
  Unit style    : metal
  Current step  : 2949
Per MPI rank memory allocation (min/avg/max) = 5.441 | 5.816 | 6.074 Mbytes
Step PotEng KinEng TotEng v_fx v_fy v_fz 
    2949   -1152449.3            0   -1152449.3 -0.0015288605 -0.0087388703  0.015204103 
    3000   -1152449.3            0   -1152449.3 0.00021285022 -0.00018744233 0.00030578445 
    3166   -1152449.3            0   -1152449.3 -1.5954411e-05 2.1690299e-06 -2.4217454e-06 
Loop time of 2.51463 on 104 procs for 217 steps with 288751 atoms

99.9% CPU use with 104 MPI tasks x 1 OpenMP threads

Minimization stats:
  Stopping criterion = energy tolerance
  Energy initial, next-to-last, final = 
     -1152449.31988222  -1152449.32179074  -1152449.32179074
  Force two-norm initial, final = 0.18290448 5.2735930e-05
  Force max component initial, final = 0.078017476 1.5954411e-05
  Final line search alpha, max atom move = 1.0000000 1.5954411e-05
  Iterations, force evaluations = 217 434

MPI task timing breakdown:
Section |  min time  |  avg time  |  max time  |%varavg| %total
---------------------------------------------------------------
Pair    | 0.66826    | 1.8282     | 2.37       |  36.3 | 72.70
Neigh   | 0          | 0          | 0          |   0.0 |  0.00
Comm    | 0.041942   | 0.41094    | 1.2427     |  54.2 | 16.34
Output  | 9.7316e-05 | 9.9668e-05 | 0.00024191 |   0.0 |  0.00
Modify  | 2.695e-05  | 0.0035758  | 0.0076181  |   2.8 |  0.14
Other   |            | 0.2718     |            |       | 10.81

Nlocal:        2776.45 ave        3958 max           0 min
Histogram: 8 4 4 0 4 12 8 2 28 34
Nghost:        3879.01 ave        5424 max         232 min
Histogram: 8 0 8 0 16 0 8 8 16 40
Neighs:        79213.4 ave      115368 max           0 min
Histogram: 8 4 4 0 10 6 8 8 24 32

Total # of neighbors = 8238189
Ave neighs/atom = 28.530426
Neighbor list builds = 0
Dangerous builds = 0
The dot product: -3.71869833209359e-09
The cos of the angle between the force vector and the displacement vector: -0.000228389232887503
The angle: 90.0130857392445
Setting atom values ...
  1 settings made for x
  1 settings made for y
  1 settings made for z
Setting up cg style minimization ...
  Unit style    : metal
  Current step  : 3166
Per MPI rank memory allocation (min/avg/max) = 5.441 | 5.816 | 6.074 Mbytes
Step PotEng KinEng TotEng v_fx v_fy v_fz 
    3166   -1152449.3            0   -1152449.3 -0.0053877858 -0.0071433696  0.012793207 
    3351   -1152449.3            0   -1152449.3 3.2711152e-05 2.5655372e-05 -4.7052181e-05 
Loop time of 2.14205 on 104 procs for 185 steps with 288751 atoms

99.9% CPU use with 104 MPI tasks x 1 OpenMP threads

Minimization stats:
  Stopping criterion = energy tolerance
  Energy initial, next-to-last, final = 
     -1152449.30453796  -1152449.30646727  -1152449.30646727
  Force two-norm initial, final = 0.18409366 0.00016773005
  Force max component initial, final = 0.07765623 4.7052181e-05
  Final line search alpha, max atom move = 1.0000000 4.7052181e-05
  Iterations, force evaluations = 185 370

MPI task timing breakdown:
Section |  min time  |  avg time  |  max time  |%varavg| %total
---------------------------------------------------------------
Pair    | 0.56648    | 1.5518     | 2.0199     |  33.4 | 72.44
Neigh   | 0          | 0          | 0          |   0.0 |  0.00
Comm    | 0.034154   | 0.3466     | 1.0562     |  49.7 | 16.18
Output  | 0          | 0          | 0          |   0.0 |  0.00
Modify  | 2.2747e-05 | 0.0030399  | 0.0064848  |   2.6 |  0.14
Other   |            | 0.2406     |            |       | 11.23

Nlocal:        2776.45 ave        3954 max           0 min
Histogram: 8 4 4 0 4 12 8 0 30 34
Nghost:        3879.05 ave        5424 max         232 min
Histogram: 8 0 8 0 16 0 8 8 16 40
Neighs:        79213.4 ave      115240 max           0 min
Histogram: 8 4 4 0 10 6 8 8 24 32

Total # of neighbors = 8238189
Ave neighs/atom = 28.530426
Neighbor list builds = 0
Dangerous builds = 0
The dot product: -5.38833184726718e-08
The cos of the angle between the force vector and the displacement vector: -0.000858201208035197
The angle: 90.0491713132295
Setting atom values ...
  1 settings made for x
  1 settings made for y
  1 settings made for z
Setting up cg style minimization ...
  Unit style    : metal
  Current step  : 3351
Per MPI rank memory allocation (min/avg/max) = 5.441 | 5.816 | 6.074 Mbytes
Step PotEng KinEng TotEng v_fx v_fy v_fz 
    3351   -1152449.3            0   -1152449.3 -0.010237907 -0.0062553082  0.011688076 
    3617   -1152449.3            0   -1152449.3 -7.7253264e-07 -6.6910175e-07 1.2232007e-06 
Loop time of 3.08279 on 104 procs for 266 steps with 288751 atoms

99.9% CPU use with 104 MPI tasks x 1 OpenMP threads

Minimization stats:
  Stopping criterion = energy tolerance
  Energy initial, next-to-last, final = 
     -1152449.28583259  -1152449.28777661  -1152449.28777661
  Force two-norm initial, final = 0.18561025 4.3966343e-06
  Force max component initial, final = 0.077270839 1.2859962e-06
  Final line search alpha, max atom move = 1.0000000 1.2859962e-06
  Iterations, force evaluations = 266 532

MPI task timing breakdown:
Section |  min time  |  avg time  |  max time  |%varavg| %total
---------------------------------------------------------------
Pair    | 0.8133     | 2.237      | 2.8968     |  40.2 | 72.56
Neigh   | 0          | 0          | 0          |   0.0 |  0.00
Comm    | 0.051845   | 0.50333    | 1.5176     |  60.0 | 16.33
Output  | 0          | 0          | 0          |   0.0 |  0.00
Modify  | 3.2713e-05 | 0.0043815  | 0.0093145  |   3.1 |  0.14
Other   |            | 0.3381     |            |       | 10.97

Nlocal:        2776.45 ave        3950 max           0 min
Histogram: 8 4 4 0 4 12 8 0 28 36
Nghost:        3879.12 ave        5425 max         232 min
Histogram: 8 0 8 0 16 0 8 8 16 40
Neighs:        79213.3 ave      115088 max           0 min
Histogram: 8 4 4 0 10 6 8 8 24 32

Total # of neighbors = 8238188
Ave neighs/atom = 28.530422
Neighbor list builds = 0
Dangerous builds = 0
The dot product: 1.84763027083837e-09
The cos of the angle between the force vector and the displacement vector: 0.00115914119138264
The angle: 89.9335860870015
Setting atom values ...
  1 settings made for x
  1 settings made for y
  1 settings made for z
Setting up cg style minimization ...
  Unit style    : metal
  Current step  : 3617
Per MPI rank memory allocation (min/avg/max) = 5.441 | 5.816 | 6.074 Mbytes
Step PotEng KinEng TotEng v_fx v_fy v_fz 
    3617   -1152449.3            0   -1152449.3 -0.015951024 -0.0068464913  0.013245765 
    3816   -1152449.3            0   -1152449.3 1.1762969e-06 7.8832932e-06 -1.3773973e-05 
Loop time of 2.28881 on 104 procs for 199 steps with 288751 atoms

99.9% CPU use with 104 MPI tasks x 1 OpenMP threads

Minimization stats:
  Stopping criterion = energy tolerance
  Energy initial, next-to-last, final = 
     -1152449.26375047  -1152449.26567839  -1152449.26567839
  Force two-norm initial, final = 0.18696684 0.00011921268
  Force max component initial, final = 0.07681012 1.3773973e-05
  Final line search alpha, max atom move = 1.0000000 1.3773973e-05
  Iterations, force evaluations = 199 398

MPI task timing breakdown:
Section |  min time  |  avg time  |  max time  |%varavg| %total
---------------------------------------------------------------
Pair    | 0.60284    | 1.6678     | 2.1617     |  34.8 | 72.87
Neigh   | 0          | 0          | 0          |   0.0 |  0.00
Comm    | 0.035474   | 0.37301    | 1.1355     |  51.8 | 16.30
Output  | 0          | 0          | 0          |   0.0 |  0.00
Modify  | 2.4377e-05 | 0.0032779  | 0.0070026  |   2.7 |  0.14
Other   |            | 0.2447     |            |       | 10.69

Nlocal:        2776.45 ave        3945 max           0 min
Histogram: 8 4 4 0 4 12 8 0 28 36
Nghost:        3879.12 ave        5425 max         232 min
Histogram: 8 0 8 0 16 0 8 8 16 40
Neighs:        79213.3 ave      114938 max           0 min
Histogram: 8 4 4 0 10 6 8 8 22 34

Total # of neighbors = 8238186
Ave neighs/atom = 28.530415
Neighbor list builds = 0
Dangerous builds = 0
The dot product: -2.28746646540575e-08
The cos of the angle between the force vector and the displacement vector: -0.00143740123555057
The angle: 90.0823570526238
Setting atom values ...
  1 settings made for x
  1 settings made for y
  1 settings made for z
Setting up cg style minimization ...
  Unit style    : metal
  Current step  : 3816
Per MPI rank memory allocation (min/avg/max) = 5.441 | 5.816 | 6.074 Mbytes
Step PotEng KinEng TotEng v_fx v_fy v_fz 
    3816   -1152449.2            0   -1152449.2 -0.022123507 -0.0099860361  0.019354333 
    4000   -1152449.2            0   -1152449.2 -1.9950141e-05 -2.5014676e-05 4.5304971e-05 
Loop time of 2.12886 on 104 procs for 184 steps with 288751 atoms

99.9% CPU use with 104 MPI tasks x 1 OpenMP threads

Minimization stats:
  Stopping criterion = energy tolerance
  Energy initial, next-to-last, final = 
     -1152449.23841971  -1152449.24030065  -1152449.24030065
  Force two-norm initial, final = 0.1888911 0.00017066172
  Force max component initial, final = 0.076443961 4.5304971e-05
  Final line search alpha, max atom move = 1.0000000 4.5304971e-05
  Iterations, force evaluations = 184 368

MPI task timing breakdown:
Section |  min time  |  avg time  |  max time  |%varavg| %total
---------------------------------------------------------------
Pair    | 0.55509    | 1.5482     | 2.0018     |  33.6 | 72.72
Neigh   | 0          | 0          | 0          |   0.0 |  0.00
Comm    | 0.031616   | 0.34902    | 1.0718     |  50.2 | 16.39
Output  | 0          | 0          | 0          |   0.0 |  0.00
Modify  | 2.2734e-05 | 0.0030381  | 0.0064612  |   2.6 |  0.14
Other   |            | 0.2286     |            |       | 10.74

Nlocal:        2776.45 ave        3930 max           0 min
Histogram: 8 4 4 0 4 12 8 0 26 38
Nghost:        3879.11 ave        5425 max         232 min
Histogram: 8 0 8 0 16 0 8 8 16 40
Neighs:        79213.3 ave      114508 max           0 min
Histogram: 8 4 4 0 8 8 8 8 20 36

Total # of neighbors = 8238186
Ave neighs/atom = 28.530415
Neighbor list builds = 0
Dangerous builds = 0
The dot product: 2.17408655444948e-07
The cos of the angle between the force vector and the displacement vector: 0.00391979827424542
The angle: 89.7754115272137
Setting atom values ...
  1 settings made for x
  1 settings made for y
  1 settings made for z
Setting up cg style minimization ...
  Unit style    : metal
  Current step  : 4000
Per MPI rank memory allocation (min/avg/max) = 5.441 | 5.816 | 6.074 Mbytes
Step PotEng KinEng TotEng v_fx v_fy v_fz 
    4000   -1152449.2            0   -1152449.2 -0.029058632 -0.017763891   0.03389979 
    4250   -1152449.2            0   -1152449.2 7.8265789e-06 7.5913249e-06 -1.4050622e-05 
Loop time of 2.878 on 104 procs for 250 steps with 288751 atoms

99.9% CPU use with 104 MPI tasks x 1 OpenMP threads

Minimization stats:
  Stopping criterion = energy tolerance
  Energy initial, next-to-last, final = 
      -1152449.2103884  -1152449.24873413  -1152449.24873413
  Force two-norm initial, final = 0.19728637 9.6520234e-05
  Force max component initial, final = 0.0777711 1.9759024e-05
  Final line search alpha, max atom move = 1.0000000 1.9759024e-05
  Iterations, force evaluations = 250 500

MPI task timing breakdown:
Section |  min time  |  avg time  |  max time  |%varavg| %total
---------------------------------------------------------------
Pair    | 0.76126    | 2.0965     | 2.709      |  38.9 | 72.85
Neigh   | 1.0183e-05 | 0.0029573  | 0.0042501  |   2.2 |  0.10
Comm    | 0.045605   | 0.46924    | 1.4273     |  58.1 | 16.30
Output  | 0          | 0          | 0          |   0.0 |  0.00
Modify  | 3.076e-05  | 0.0041111  | 0.008772   |   3.0 |  0.14
Other   |            | 0.3052     |            |       | 10.60

Nlocal:        2776.45 ave        3930 max           0 min
Histogram: 8 4 4 0 4 12 8 0 26 38
Nghost:        3879.14 ave        5425 max         232 min
Histogram: 8 0 8 0 16 0 8 8 16 40
Neighs:        79213.3 ave      114514 max           0 min
Histogram: 8 4 4 0 8 8 8 8 20 36

Total # of neighbors = 8238186
Ave neighs/atom = 28.530415
Neighbor list builds = 1
Dangerous builds = 0
The dot product: -2.25317779533107e-06
The cos of the angle between the force vector and the displacement vector: -0.126690322733745
The angle: 97.2783802773321
Setting atom values ...
  1 settings made for x
  1 settings made for y
  1 settings made for z
Setting up cg style minimization ...
  Unit style    : metal
  Current step  : 4250
Per MPI rank memory allocation (min/avg/max) = 5.441 | 5.816 | 6.074 Mbytes
Step PotEng KinEng TotEng v_fx v_fy v_fz 
    4250   -1152449.2            0   -1152449.2 -0.078938198 -0.0051186438  0.026101594 
    4507   -1152449.3            0   -1152449.3 6.783689e-07 -4.6634434e-07 1.0343881e-06 
Loop time of 2.99011 on 104 procs for 257 steps with 288751 atoms

99.9% CPU use with 104 MPI tasks x 1 OpenMP threads

Minimization stats:
  Stopping criterion = energy tolerance
  Energy initial, next-to-last, final = 
     -1152449.24223942  -1152449.25208915  -1152449.25208915
  Force two-norm initial, final = 0.23529501 2.1872833e-05
  Force max component initial, final = 0.10097159 1.4612210e-06
  Final line search alpha, max atom move = 1.0000000 1.4612210e-06
  Iterations, force evaluations = 257 514

MPI task timing breakdown:
Section |  min time  |  avg time  |  max time  |%varavg| %total
---------------------------------------------------------------
Pair    | 0.78307    | 2.1599     | 2.8035     |  39.6 | 72.23
Neigh   | 1.0184e-05 | 0.0029579  | 0.0042907  |   2.2 |  0.10
Comm    | 0.044041   | 0.48645    | 1.4862     |  58.8 | 16.27
Output  | 0          | 0          | 0          |   0.0 |  0.00
Modify  | 3.1146e-05 | 0.0043474  | 0.020001   |   3.8 |  0.15
Other   |            | 0.3365     |            |       | 11.25

Nlocal:        2776.45 ave        3960 max           0 min
Histogram: 8 4 4 0 4 12 8 2 28 34
Nghost:        3879.01 ave        5424 max         232 min
Histogram: 8 0 8 0 16 0 8 8 16 40
Neighs:        79213.3 ave      115422 max           0 min
Histogram: 8 4 4 0 10 6 8 8 24 32

Total # of neighbors = 8238184
Ave neighs/atom = 28.530409
Neighbor list builds = 1
Dangerous builds = 0
The dot product: -1.37676390320182e-08
The cos of the angle between the force vector and the displacement vector: -0.0104144408632165
The angle: 90.5967142944452
Setting atom values ...
  1 settings made for x
  1 settings made for y
  1 settings made for z
Setting up cg style minimization ...
  Unit style    : metal
  Current step  : 4507
Per MPI rank memory allocation (min/avg/max) = 5.441 | 5.816 | 6.074 Mbytes
Step PotEng KinEng TotEng v_fx v_fy v_fz 
    4507   -1152449.3            0   -1152449.3 -0.064760624  0.020300628  -0.02764338 
    4678   -1152449.3            0   -1152449.3 5.0883175e-07 -4.4124111e-06 1.2015101e-05 
Loop time of 1.98355 on 104 procs for 171 steps with 288751 atoms

99.9% CPU use with 104 MPI tasks x 1 OpenMP threads

Minimization stats:
  Stopping criterion = energy tolerance
  Energy initial, next-to-last, final = 
     -1152449.25433718  -1152449.25687705  -1152449.25687705
  Force two-norm initial, final = 0.2265376 0.00012609682
  Force max component initial, final = 0.10350799 1.8452684e-05
  Final line search alpha, max atom move = 1.0000000 1.8452684e-05
  Iterations, force evaluations = 171 342

MPI task timing breakdown:
Section |  min time  |  avg time  |  max time  |%varavg| %total
---------------------------------------------------------------
Pair    | 0.51909    | 1.4379     | 1.8747     |  32.3 | 72.49
Neigh   | 0          | 0          | 0          |   0.0 |  0.00
Comm    | 0.031149   | 0.32281    | 0.97494    |  47.9 | 16.27
Output  | 0          | 0          | 0          |   0.0 |  0.00
Modify  | 2.1169e-05 | 0.0028195  | 0.0059772  |   2.5 |  0.14
Other   |            | 0.22       |            |       | 11.09

Nlocal:        2776.45 ave        3961 max           0 min
Histogram: 8 4 4 0 6 10 8 2 28 34
Nghost:        3879.01 ave        5424 max         232 min
Histogram: 8 0 8 0 16 0 8 8 16 40
Neighs:        79213.3 ave      115465 max           0 min
Histogram: 8 4 4 0 10 6 8 8 24 32

Total # of neighbors = 8238182
Ave neighs/atom = 28.530402
Neighbor list builds = 0
Dangerous builds = 0
The dot product: 1.49490701964472e-08
The cos of the angle between the force vector and the displacement vector: 0.00116700278307553
The angle: 89.9331356506726
Setting atom values ...
  1 settings made for x
  1 settings made for y
  1 settings made for z
Setting up cg style minimization ...
  Unit style    : metal
  Current step  : 4678
Per MPI rank memory allocation (min/avg/max) = 5.441 | 5.816 | 6.074 Mbytes
Step PotEng KinEng TotEng v_fx v_fy v_fz 
    4678   -1152449.3            0   -1152449.3   -0.1004039  0.029970505 -0.033917477 
    4901   -1152449.3            0   -1152449.3 -7.1195539e-06 1.1503856e-05 -2.8574357e-05 
Loop time of 2.58882 on 104 procs for 223 steps with 288751 atoms

99.9% CPU use with 104 MPI tasks x 1 OpenMP threads

Minimization stats:
  Stopping criterion = energy tolerance
  Energy initial, next-to-last, final = 
     -1152449.25741298  -1152449.30924607  -1152449.30924607
  Force two-norm initial, final = 0.24838265 0.00019630536
  Force max component initial, final = 0.10110081 3.7978237e-05
  Final line search alpha, max atom move = 1.0000000 3.7978237e-05
  Iterations, force evaluations = 223 446

MPI task timing breakdown:
Section |  min time  |  avg time  |  max time  |%varavg| %total
---------------------------------------------------------------
Pair    | 0.68505    | 1.882      | 2.4352     |  36.8 | 72.70
Neigh   | 1.0218e-05 | 0.0029706  | 0.0043429  |   2.3 |  0.11
Comm    | 0.0443     | 0.42502    | 1.2826     |  54.8 | 16.42
Output  | 0          | 0          | 0          |   0.0 |  0.00
Modify  | 2.8522e-05 | 0.0036781  | 0.0078411  |   2.9 |  0.14
Other   |            | 0.2752     |            |       | 10.63

Nlocal:        2776.45 ave        3961 max           0 min
Histogram: 8 4 4 0 6 10 8 2 28 34
Nghost:        3879.01 ave        5424 max         232 min
Histogram: 8 0 8 0 16 0 8 8 16 40
Neighs:        79213.3 ave      115465 max           0 min
Histogram: 8 4 4 0 10 6 8 8 24 32

Total # of neighbors = 8238187
Ave neighs/atom = 28.530419
Neighbor list builds = 1
Dangerous builds = 0
The dot product: 4.57582385273813e-07
The cos of the angle between the force vector and the displacement vector: 0.0144734951638221
The angle: 89.170700856709
Setting atom values ...
  1 settings made for x
  1 settings made for y
  1 settings made for z
Setting up cg style minimization ...
  Unit style    : metal
  Current step  : 4901
Per MPI rank memory allocation (min/avg/max) = 5.441 | 5.816 | 6.074 Mbytes
Step PotEng KinEng TotEng v_fx v_fy v_fz 
    4901   -1152449.3            0   -1152449.3  0.018700626   0.01646474 -0.070325518 
    5000   -1152449.3            0   -1152449.3 6.4448101e-05 -2.0781112e-05 -7.659358e-06 
    5138   -1152449.3            0   -1152449.3 2.0117676e-06 -3.0396279e-06 6.9995119e-06 
Loop time of 2.77698 on 104 procs for 237 steps with 288751 atoms

99.9% CPU use with 104 MPI tasks x 1 OpenMP threads

Minimization stats:
  Stopping criterion = energy tolerance
  Energy initial, next-to-last, final = 
     -1152449.32245619  -1152449.32568088  -1152449.32568088
  Force two-norm initial, final = 0.22378453 3.4567376e-05
  Force max component initial, final = 0.08593082 6.9995119e-06
  Final line search alpha, max atom move = 1.0000000 6.9995119e-06
  Iterations, force evaluations = 237 474

MPI task timing breakdown:
Section |  min time  |  avg time  |  max time  |%varavg| %total
---------------------------------------------------------------
Pair    | 0.71794    | 1.989      | 2.6072     |  38.1 | 71.63
Neigh   | 0          | 0          | 0          |   0.0 |  0.00
Comm    | 0.050461   | 0.44998    | 1.3679     |  56.0 | 16.20
Output  | 0.0001048  | 0.00011522 | 0.00028023 |   0.0 |  0.00
Modify  | 2.9037e-05 | 0.0039014  | 0.0083238  |   3.0 |  0.14
Other   |            | 0.334      |            |       | 12.03

Nlocal:        2776.45 ave        3960 max           0 min
Histogram: 8 4 4 0 4 12 8 4 26 34
Nghost:        3879.01 ave        5424 max         232 min
Histogram: 8 0 8 0 16 0 8 8 16 40
Neighs:        79213.5 ave      115434 max           0 min
Histogram: 8 4 4 0 10 6 8 8 24 32

Total # of neighbors = 8238200
Ave neighs/atom = 28.530464
Neighbor list builds = 0
Dangerous builds = 0
The dot product: -3.18665346488556e-09
The cos of the angle between the force vector and the displacement vector: -0.000403795557996821
The angle: 90.0231357818883
Setting atom values ...
  1 settings made for x
  1 settings made for y
  1 settings made for z
Setting up cg style minimization ...
  Unit style    : metal
  Current step  : 5138
Per MPI rank memory allocation (min/avg/max) = 5.441 | 5.816 | 6.074 Mbytes
Step PotEng KinEng TotEng v_fx v_fy v_fz 
    5138   -1152449.3            0   -1152449.3 -0.087421737  0.044575623 -0.044572784 
    5384   -1152449.3            0   -1152449.3 -7.9922826e-07  9.21439e-07 -1.9292961e-06 
Loop time of 2.85796 on 104 procs for 246 steps with 288751 atoms

99.9% CPU use with 104 MPI tasks x 1 OpenMP threads

Minimization stats:
  Stopping criterion = energy tolerance
  Energy initial, next-to-last, final = 
     -1152449.33473572  -1152449.33753389  -1152449.33753389
  Force two-norm initial, final = 0.24262305 1.5896526e-05
  Force max component initial, final = 0.087421737 2.1247641e-06
  Final line search alpha, max atom move = 1.0000000 2.1247641e-06
  Iterations, force evaluations = 246 492

MPI task timing breakdown:
Section |  min time  |  avg time  |  max time  |%varavg| %total
---------------------------------------------------------------
Pair    | 0.74168    | 2.0662     | 2.7001     |  38.8 | 72.30
Neigh   | 0          | 0          | 0          |   0.0 |  0.00
Comm    | 0.042547   | 0.46664    | 1.4159     |  57.4 | 16.33
Output  | 0          | 0          | 0          |   0.0 |  0.00
Modify  | 2.9901e-05 | 0.0040552  | 0.0086356  |   3.0 |  0.14
Other   |            | 0.3211     |            |       | 11.23

Nlocal:        2776.45 ave        3960 max           0 min
Histogram: 8 4 4 0 4 12 8 4 26 34
Nghost:        3879.03 ave        5424 max         232 min
Histogram: 8 0 8 0 16 0 8 8 16 40
Neighs:        79213.4 ave      115434 max           0 min
Histogram: 8 4 4 0 10 6 8 8 24 32

Total # of neighbors = 8238197
Ave neighs/atom = 28.530454
Neighbor list builds = 0
Dangerous builds = 0
The dot product: 1.54613673847575e-08
The cos of the angle between the force vector and the displacement vector: 0.00677374860894253
The angle: 89.6118898251997
Setting atom values ...
  1 settings made for x
  1 settings made for y
  1 settings made for z
Setting up cg style minimization ...
  Unit style    : metal
  Current step  : 5384
Per MPI rank memory allocation (min/avg/max) = 5.441 | 5.816 | 6.074 Mbytes
Step PotEng KinEng TotEng v_fx v_fy v_fz 
    5384   -1152449.3            0   -1152449.3   -0.0765779   0.04202792 -0.044859571 
    5611   -1152449.3            0   -1152449.3 4.6887955e-07 -3.2743246e-06 9.0908108e-06 
Loop time of 2.62915 on 104 procs for 227 steps with 288751 atoms

99.9% CPU use with 104 MPI tasks x 1 OpenMP threads

Minimization stats:
[...]
Histogram: 8 4 4 0 4 12 8 0 26 38
Nghost:        3878.91 ave        5427 max         232 min
Histogram: 8 0 8 0 16 0 8 8 16 40
Neighs:        79214.7 ave      114588 max           0 min
Histogram: 8 4 4 0 8 8 8 8 20 36

Total # of neighbors = 8238330
Ave neighs/atom = 28.530914
Neighbor list builds = 0
Dangerous builds = 0
The dot product: 2.4472475723872e-07
The cos of the angle between the force vector and the displacement vector: 0.0120216338633635
The angle: 89.311194525107
Setting atom values ...
  1 settings made for x
  1 settings made for y
  1 settings made for z
Setting up cg style minimization ...
  Unit style    : metal
  Current step  : 9527
Per MPI rank memory allocation (min/avg/max) = 5.441 | 5.816 | 6.074 Mbytes
Step PotEng KinEng TotEng v_fx v_fy v_fz 
    9527   -1152449.2            0   -1152449.2  0.018093694  0.042835376 -0.050527248 
    9990   -1152449.4            0   -1152449.4 -2.5459244e-06 -3.4796118e-05 3.3544038e-05 
Loop time of 5.40555 on 104 procs for 463 steps with 288751 atoms

99.9% CPU use with 104 MPI tasks x 1 OpenMP threads

Minimization stats:
  Stopping criterion = energy tolerance
  Energy initial, next-to-last, final = 
     -1152449.19644033  -1152449.41596894  -1152449.41596894
  Force two-norm initial, final = 0.24466669 0.00015076
  Force max component initial, final = 0.10915531 3.4796118e-05
  Final line search alpha, max atom move = 1.0000000 3.4796118e-05
  Iterations, force evaluations = 463 926

MPI task timing breakdown:
Section |  min time  |  avg time  |  max time  |%varavg| %total
---------------------------------------------------------------
Pair    | 1.4463     | 3.9049     | 5.048      |  52.6 | 72.24
Neigh   | 9.2866e-05 | 0.026546   | 0.038688   |   6.7 |  0.49
Comm    | 0.081588   | 0.88029    | 2.6763     |  79.4 | 16.28
Output  | 0          | 0          | 0          |   0.0 |  0.00
Modify  | 5.505e-05  | 0.0076505  | 0.016458   |   4.1 |  0.14
Other   |            | 0.5862     |            |       | 10.84

Nlocal:        2776.45 ave        3944 max           0 min
Histogram: 8 4 4 0 4 12 8 0 28 36
Nghost:        3878.64 ave        5426 max         232 min
Histogram: 8 0 8 0 16 0 8 8 16 40
Neighs:        79213.2 ave      114962 max           0 min
Histogram: 8 4 4 0 10 6 8 8 22 34

Total # of neighbors = 8238177
Ave neighs/atom = 28.530384
Neighbor list builds = 9
Dangerous builds = 0
The dot product: 1.5913362955382e-06
The cos of the angle between the force vector and the displacement vector: 0.0328795928206906
The angle: 88.1157985036818
Setting atom values ...
  1 settings made for x
  1 settings made for y
  1 settings made for z
Setting up cg style minimization ...
  Unit style    : metal
  Current step  : 9990
Per MPI rank memory allocation (min/avg/max) = 5.441 | 5.816 | 6.074 Mbytes
Step PotEng KinEng TotEng v_fx v_fy v_fz 
    9990   -1152449.4            0   -1152449.4  0.070359097  0.041873905 -0.070841593 
   10000   -1152449.4            0   -1152449.4 0.0019938508 -0.0003343018 -0.0006942655 
   10204   -1152449.4            0   -1152449.4 -9.7036161e-06 3.808199e-06 1.4954377e-06 
Loop time of 2.50233 on 104 procs for 214 steps with 288751 atoms

99.9% CPU use with 104 MPI tasks x 1 OpenMP threads

Minimization stats:
  Stopping criterion = energy tolerance
  Energy initial, next-to-last, final = 
     -1152449.42395166  -1152449.42754449  -1152449.42754449
  Force two-norm initial, final = 0.28064847 5.2708351e-05
  Force max component initial, final = 0.12637804 9.7036161e-06
  Final line search alpha, max atom move = 1.0000000 9.7036161e-06
  Iterations, force evaluations = 214 428

MPI task timing breakdown:
Section |  min time  |  avg time  |  max time  |%varavg| %total
---------------------------------------------------------------
Pair    | 0.65162    | 1.7981     | 2.3517     |  36.1 | 71.86
Neigh   | 0          | 0          | 0          |   0.0 |  0.00
Comm    | 0.038806   | 0.40415    | 1.2105     |  53.3 | 16.15
Output  | 9.378e-05  | 9.7032e-05 | 0.00017504 |   0.0 |  0.00
Modify  | 2.6399e-05 | 0.0035308  | 0.0076384  |   2.8 |  0.14
Other   |            | 0.2965     |            |       | 11.85

Nlocal:        2776.45 ave        3945 max           0 min
Histogram: 8 4 4 0 4 12 8 0 28 36
Nghost:        3878.49 ave        5428 max         232 min
Histogram: 8 0 8 0 16 0 8 8 16 40
Neighs:        79213.4 ave      115012 max           0 min
Histogram: 8 4 4 0 10 6 8 8 24 32

Total # of neighbors = 8238198
Ave neighs/atom = 28.530457
Neighbor list builds = 0
Dangerous builds = 0
The dot product: -4.49478382383501e-08
The cos of the angle between the force vector and the displacement vector: -0.00426820463472766
The angle: 90.2445508541925
Setting atom values ...
  1 settings made for x
  1 settings made for y
  1 settings made for z
Setting up cg style minimization ...
  Unit style    : metal
  Current step  : 10204
Per MPI rank memory allocation (min/avg/max) = 5.441 | 5.816 | 6.074 Mbytes
Step PotEng KinEng TotEng v_fx v_fy v_fz 
   10204   -1152449.4            0   -1152449.4  0.038973923  0.039017065  -0.05362027 
   10392   -1152449.4            0   -1152449.4 1.3026427e-05 -1.2259708e-05 4.139108e-06 
Loop time of 2.1873 on 104 procs for 188 steps with 288751 atoms

99.9% CPU use with 104 MPI tasks x 1 OpenMP threads

Minimization stats:
  Stopping criterion = energy tolerance
  Energy initial, next-to-last, final = 
      -1152449.4323984  -1152449.43585178  -1152449.43585178
  Force two-norm initial, final = 0.27304892 0.00016674654
  Force max component initial, final = 0.1253299 4.1441044e-05
  Final line search alpha, max atom move = 1.0000000 4.1441044e-05
  Iterations, force evaluations = 188 376

MPI task timing breakdown:
Section |  min time  |  avg time  |  max time  |%varavg| %total
---------------------------------------------------------------
Pair    | 0.57344    | 1.5836     | 2.054      |  33.9 | 72.40
Neigh   | 0          | 0          | 0          |   0.0 |  0.00
Comm    | 0.040059   | 0.35474    | 1.076      |  50.8 | 16.22
Output  | 0          | 0          | 0          |   0.0 |  0.00
Modify  | 2.2523e-05 | 0.0031015  | 0.0067297  |   2.6 |  0.14
Other   |            | 0.2459     |            |       | 11.24

Nlocal:        2776.45 ave        3945 max           0 min
Histogram: 8 4 4 0 4 12 8 0 28 36
Nghost:        3878.53 ave        5428 max         232 min
Histogram: 8 0 8 0 16 0 8 8 16 40
Neighs:        79213.4 ave      115011 max           0 min
Histogram: 8 4 4 0 10 6 8 8 24 32

Total # of neighbors = 8238195
Ave neighs/atom = 28.530447
Neighbor list builds = 0
Dangerous builds = 0
The dot product: -1.65624838543385e-08
The cos of the angle between the force vector and the displacement vector: -0.000902054779329066
The angle: 90.0516839387544
Setting atom values ...
  1 settings made for x
  1 settings made for y
  1 settings made for z
Setting up cg style minimization ...
  Unit style    : metal
  Current step  : 10392
Per MPI rank memory allocation (min/avg/max) = 5.441 | 5.816 | 6.074 Mbytes
Step PotEng KinEng TotEng v_fx v_fy v_fz 
   10392   -1152449.4            0   -1152449.4  0.040497652  0.031685969 -0.048204046 
   10577   -1152449.4            0   -1152449.4 -2.5269313e-05 -1.582539e-05 2.6621411e-05 
Loop time of 2.14824 on 104 procs for 185 steps with 288751 atoms

99.9% CPU use with 104 MPI tasks x 1 OpenMP threads

Minimization stats:
  Stopping criterion = energy tolerance
  Energy initial, next-to-last, final = 
     -1152449.43713786  -1152449.44066507  -1152449.44066507
  Force two-norm initial, final = 0.27345109 0.00019734284
  Force max component initial, final = 0.12384593 2.6621411e-05
  Final line search alpha, max atom move = 1.0000000 2.6621411e-05
  Iterations, force evaluations = 185 370

MPI task timing breakdown:
Section |  min time  |  avg time  |  max time  |%varavg| %total
---------------------------------------------------------------
Pair    | 0.56339    | 1.5534     | 2.0219     |  33.5 | 72.31
Neigh   | 0          | 0          | 0          |   0.0 |  0.00
Comm    | 0.033033   | 0.34676    | 1.0468     |  49.8 | 16.14
Output  | 0          | 0          | 0          |   0.0 |  0.00
Modify  | 2.2355e-05 | 0.0030506  | 0.0065679  |   2.6 |  0.14
Other   |            | 0.245      |            |       | 11.41

Nlocal:        2776.45 ave        3946 max           0 min
Histogram: 8 4 4 0 4 12 8 0 28 36
Nghost:        3878.72 ave        5428 max         232 min
Histogram: 8 0 8 0 16 0 8 8 16 40
Neighs:        79213.4 ave      115042 max           0 min
Histogram: 8 4 4 0 10 6 8 8 24 32

Total # of neighbors = 8238197
Ave neighs/atom = 28.530454
Neighbor list builds = 0
Dangerous builds = 0
The dot product: -5.67677489941951e-08
The cos of the angle between the force vector and the displacement vector: -0.00142022345191346
The angle: 90.0813728371154
Setting atom values ...
  1 settings made for x
  1 settings made for y
  1 settings made for z
Setting up cg style minimization ...
  Unit style    : metal
  Current step  : 10577
Per MPI rank memory allocation (min/avg/max) = 5.441 | 5.816 | 6.074 Mbytes
Step PotEng KinEng TotEng v_fx v_fy v_fz 
   10577   -1152449.4            0   -1152449.4  0.032961998  0.047070565 -0.058021584 
   10808   -1152449.4            0   -1152449.4 -3.6642619e-06 -4.9895866e-07 2.2961629e-06 
Loop time of 2.67128 on 104 procs for 231 steps with 288751 atoms

99.9% CPU use with 104 MPI tasks x 1 OpenMP threads

Minimization stats:
  Stopping criterion = energy tolerance
  Energy initial, next-to-last, final = 
      -1152449.4378272  -1152449.44145106  -1152449.44145106
  Force two-norm initial, final = 0.2768757 3.2386712e-05
  Force max component initial, final = 0.12233021 3.6642619e-06
  Final line search alpha, max atom move = 1.0000000 3.6642619e-06
  Iterations, force evaluations = 231 462

MPI task timing breakdown:
Section |  min time  |  avg time  |  max time  |%varavg| %total
---------------------------------------------------------------
Pair    | 0.70522    | 1.9409     | 2.5236     |  37.5 | 72.66
Neigh   | 0          | 0          | 0          |   0.0 |  0.00
Comm    | 0.040728   | 0.43223    | 1.3081     |  56.2 | 16.18
Output  | 0          | 0          | 0          |   0.0 |  0.00
Modify  | 2.8088e-05 | 0.0038041  | 0.0081973  |   2.9 |  0.14
Other   |            | 0.2943     |            |       | 11.02

Nlocal:        2776.45 ave        3946 max           0 min
Histogram: 8 4 4 0 4 12 8 0 28 36
Nghost:        3878.73 ave        5428 max         232 min
Histogram: 8 0 8 0 16 0 8 8 16 40
Neighs:        79213.5 ave      115032 max           0 min
Histogram: 8 4 4 0 10 6 8 8 24 32

Total # of neighbors = 8238200
Ave neighs/atom = 28.530464
Neighbor list builds = 0
Dangerous builds = 0
The dot product: -6.1695050449358e-09
The cos of the angle between the force vector and the displacement vector: -0.00141731714913365
The angle: 90.0812063180648
Setting atom values ...
  1 settings made for x
  1 settings made for y
  1 settings made for z
Setting up cg style minimization ...
  Unit style    : metal
  Current step  : 10808
Per MPI rank memory allocation (min/avg/max) = 5.441 | 5.816 | 6.074 Mbytes
Step PotEng KinEng TotEng v_fx v_fy v_fz 
   10808   -1152449.4            0   -1152449.4  0.033115876  0.053945473 -0.064448522 
   11000   -1152449.4            0   -1152449.4 1.2301969e-05 1.8607771e-05 -2.2678026e-05 
   11036   -1152449.4            0   -1152449.4 -2.5124572e-06 1.1626861e-05 -8.9797463e-06 
Loop time of 2.63246 on 104 procs for 228 steps with 288751 atoms

99.9% CPU use with 104 MPI tasks x 1 OpenMP threads

Minimization stats:
  Stopping criterion = energy tolerance
  Energy initial, next-to-last, final = 
     -1152449.43459299  -1152449.43823636  -1152449.43823636
  Force two-norm initial, final = 0.2781744 3.8171664e-05
  Force max component initial, final = 0.12026948 1.1626861e-05
  Final line search alpha, max atom move = 1.0000000 1.1626861e-05
  Iterations, force evaluations = 228 456

MPI task timing breakdown:
Section |  min time  |  avg time  |  max time  |%varavg| %total
---------------------------------------------------------------
Pair    | 0.69536    | 1.9131     | 2.4844     |  37.2 | 72.67
Neigh   | 0          | 0          | 0          |   0.0 |  0.00
Comm    | 0.038706   | 0.42665    | 1.295      |  55.5 | 16.21
Output  | 0.00010726 | 0.00011405 | 0.00030252 |   0.0 |  0.00
Modify  | 2.7311e-05 | 0.003757   | 0.0080849  |   2.9 |  0.14
Other   |            | 0.2889     |            |       | 10.97

Nlocal:        2776.45 ave        3947 max           0 min
Histogram: 8 4 4 0 4 12 8 0 28 36
Nghost:        3878.69 ave        5428 max         232 min
Histogram: 8 0 8 0 16 0 8 8 16 40
Neighs:        79213.5 ave      115046 max           0 min
Histogram: 8 4 4 0 10 6 8 8 24 32

Total # of neighbors = 8238200
Ave neighs/atom = 28.530464
Neighbor list builds = 0
Dangerous builds = 0
The dot product: 5.47600275669359e-08
The cos of the angle between the force vector and the displacement vector: 0.0036741587969825
The angle: 89.7894857340328
Setting atom values ...
  1 settings made for x
  1 settings made for y
  1 settings made for z
Setting up cg style minimization ...
  Unit style    : metal
  Current step  : 11036
Per MPI rank memory allocation (min/avg/max) = 5.441 | 5.816 | 6.074 Mbytes
Step PotEng KinEng TotEng v_fx v_fy v_fz 
   11036   -1152449.4            0   -1152449.4  0.038495714  0.049190081 -0.063429965 
   11252   -1152449.4            0   -1152449.4 -6.1672904e-06 1.7530675e-05 -1.2441802e-05 
Loop time of 2.50195 on 104 procs for 216 steps with 288751 atoms

99.9% CPU use with 104 MPI tasks x 1 OpenMP threads

Minimization stats:
  Stopping criterion = energy tolerance
  Energy initial, next-to-last, final = 
     -1152449.42761021  -1152449.43110569  -1152449.43110569
  Force two-norm initial, final = 0.27337922 6.2672754e-05
  Force max component initial, final = 0.11788617 1.7530675e-05
  Final line search alpha, max atom move = 1.0000000 1.7530675e-05
  Iterations, force evaluations = 216 432

MPI task timing breakdown:
Section |  min time  |  avg time  |  max time  |%varavg| %total
---------------------------------------------------------------
Pair    | 0.65796    | 1.8159     | 2.357      |  36.3 | 72.58
Neigh   | 0          | 0          | 0          |   0.0 |  0.00
Comm    | 0.035929   | 0.4072     | 1.246      |  53.9 | 16.28
Output  | 0          | 0          | 0          |   0.0 |  0.00
Modify  | 2.6513e-05 | 0.0035691  | 0.0082542  |   2.8 |  0.14
Other   |            | 0.2752     |            |       | 11.00

Nlocal:        2776.45 ave        3947 max           0 min
Histogram: 8 4 4 0 4 12 8 0 28 36
Nghost:        3878.66 ave        5427 max         232 min
Histogram: 8 0 8 0 16 0 8 8 16 40
Neighs:        79213.5 ave      115059 max           0 min
Histogram: 8 4 4 0 10 6 8 8 24 32

Total # of neighbors = 8238203
Ave neighs/atom = 28.530474
Neighbor list builds = 0
Dangerous builds = 0
The dot product: 6.89269384831793e-08
The cos of the angle between the force vector and the displacement vector: 0.0030820180988011
The angle: 89.8234130909933
Setting atom values ...
  1 settings made for x
  1 settings made for y
  1 settings made for z
Setting up cg style minimization ...
  Unit style    : metal
  Current step  : 11252
Per MPI rank memory allocation (min/avg/max) = 5.441 | 5.816 | 6.074 Mbytes
Step PotEng KinEng TotEng v_fx v_fy v_fz 
   11252   -1152449.4            0   -1152449.4  0.046458365  0.042502451 -0.061944007 
   11448   -1152449.4            0   -1152449.4 7.9013503e-06 -4.1779839e-06 -3.1428727e-07 
Loop time of 2.28996 on 104 procs for 196 steps with 288751 atoms

99.9% CPU use with 104 MPI tasks x 1 OpenMP threads

Minimization stats:
  Stopping criterion = energy tolerance
  Energy initial, next-to-last, final = 
     -1152449.41684546  -1152449.42015205  -1152449.42015205
  Force two-norm initial, final = 0.2682036 0.0001555072
  Force max component initial, final = 0.11818827 2.0242007e-05
  Final line search alpha, max atom move = 1.0000000 2.0242007e-05
  Iterations, force evaluations = 196 392

MPI task timing breakdown:
Section |  min time  |  avg time  |  max time  |%varavg| %total
---------------------------------------------------------------
Pair    | 0.59485    | 1.6452     | 2.1574     |  34.6 | 71.85
Neigh   | 0          | 0          | 0          |   0.0 |  0.00
Comm    | 0.035131   | 0.36944    | 1.1076     |  51.0 | 16.13
Output  | 0          | 0          | 0          |   0.0 |  0.00
Modify  | 2.3738e-05 | 0.003228   | 0.006968   |   2.7 |  0.14
Other   |            | 0.2721     |            |       | 11.88

Nlocal:        2776.45 ave        3945 max           0 min
Histogram: 8 4 4 0 4 12 8 0 28 36
Nghost:        3878.66 ave        5427 max         232 min
Histogram: 8 0 8 0 16 0 8 8 16 40
Neighs:        79213.5 ave      115008 max           0 min
Histogram: 8 4 4 0 10 6 8 8 24 32

Total # of neighbors = 8238206
Ave neighs/atom = 28.530485
Neighbor list builds = 0
Dangerous builds = 0
The dot product: 4.66273422547451e-10
The cos of the angle between the force vector and the displacement vector: 5.21356252898239e-05
The angle: 89.9970128487071
OMP_NUM_THREADS environment is not set. Defaulting to 1 thread. (../comm.cpp:94)
  using 1 OpenMP thread(s) per MPI task
Reading data file ...
  orthogonal box = (-122.39241 -121.13707 -37.090501) to (122.39241 121.13707 37.090501)
  13 by 4 by 2 MPI processor grid
  reading atoms ...
  288751 atoms
  read_data CPU = 0.356 seconds
199981 atoms in group inner
88770 atoms in group outer
Setting atom values ...
  1 settings made for x
  1 settings made for y
  1 settings made for z
Neighbor list info ...
  update every 1 steps, delay 0 steps, check yes
  max neighbors/atom: 2000, page size: 100000
  master list distance cutoff = 5.6
  ghost atom cutoff = 5.6
  binsize = 2.8, bins = 88 87 27
  1 neighbor lists, perpetual/occasional/extra = 1 0 0
  (1) pair eam/alloy, perpetual
      attributes: half, newton on
      pair build: half/bin/atomonly/newton
      stencil: half/bin/3d/newton
      bin: standard
Setting up cg style minimization ...
  Unit style    : metal
  Current step  : 0
Per MPI rank memory allocation (min/avg/max) = 5.441 | 5.816 | 6.074 Mbytes
Step Temp E_pair E_mol TotEng Press 
       0            0   -1152441.6            0   -1152441.6   -519.53655 
     267            0     -1152449            0     -1152449   -525.35075 
Loop time of 3.12247 on 104 procs for 267 steps with 288751 atoms

99.9% CPU use with 104 MPI tasks x 1 OpenMP threads

Minimization stats:
  Stopping criterion = energy tolerance
  Energy initial, next-to-last, final = 
     -1152441.58034805  -1152448.97218787  -1152448.97218787
  Force two-norm initial, final = 48.062974 9.2141660e-05
  Force max component initial, final = 26.474275 2.3607658e-05
  Final line search alpha, max atom move = 1.0000000 2.3607658e-05
  Iterations, force evaluations = 267 530

MPI task timing breakdown:
Section |  min time  |  avg time  |  max time  |%varavg| %total
---------------------------------------------------------------
Pair    | 0.844      | 2.2491     | 2.9175     |  39.5 | 72.03
Neigh   | 8.1334e-05 | 0.023684   | 0.034347   |   6.3 |  0.76
Comm    | 0.057217   | 0.50594    | 1.5367     |  59.7 | 16.20
Output  | 0          | 0          | 0          |   0.0 |  0.00
Modify  | 3.1341e-05 | 0.0028389  | 0.0072952  |   3.3 |  0.09
Other   |            | 0.3409     |            |       | 10.92

Nlocal:        2776.45 ave        3958 max           0 min
Histogram: 8 4 4 0 4 12 8 2 28 34
Nghost:        3878.99 ave        5424 max         232 min
Histogram: 8 0 8 0 16 0 8 8 16 40
Neighs:        79213.5 ave      115381 max           0 min
Histogram: 8 4 4 0 10 6 8 8 24 32

Total # of neighbors = 8238206
Ave neighs/atom = 28.530485
Neighbor list builds = 8
Dangerous builds = 0
