LAMMPS (29 Oct 2020)
OMP_NUM_THREADS environment is not set. Defaulting to 1 thread. (../comm.cpp:94)
  using 1 OpenMP thread(s) per MPI task
OMP_NUM_THREADS environment is not set. Defaulting to 1 thread. (../comm.cpp:94)
  using 1 OpenMP thread(s) per MPI task
Reading data file ...
  orthogonal box = (-122.39241 -121.13707 -37.090501) to (122.39241 121.13707 37.090501)
  13 by 4 by 2 MPI processor grid
  reading atoms ...
  288751 atoms
  read_data CPU = 0.460 seconds
199981 atoms in group inner
88770 atoms in group outer
1 atoms in group carbon
Neighbor list info ...
  update every 1 steps, delay 0 steps, check yes
  max neighbors/atom: 2000, page size: 100000
  master list distance cutoff = 5.6
  ghost atom cutoff = 5.6
  binsize = 2.8, bins = 88 87 27
  1 neighbor lists, perpetual/occasional/extra = 1 0 0
  (1) pair eam/alloy, perpetual
      attributes: half, newton on
      pair build: half/bin/atomonly/newton
      stencil: half/bin/3d/newton
      bin: standard
Setting up cg style minimization ...
  Unit style    : metal
  Current step  : 0
Per MPI rank memory allocation (min/avg/max) = 5.441 | 5.816 | 6.074 Mbytes
Step v_fx v_fy v_fz PotEng KinEng TotEng 
       0   -26.337995    15.247854   -51.288338     -1152433            0     -1152433 
     165 -4.5265192e-05 4.5207688e-06 4.8263128e-05   -1152449.5            0   -1152449.5 
Loop time of 1.98086 on 104 procs for 165 steps with 288751 atoms

99.7% CPU use with 104 MPI tasks x 1 OpenMP threads

Minimization stats:
  Stopping criterion = energy tolerance
  Energy initial, next-to-last, final = 
     -1152433.01643242  -1152449.45035284  -1152449.45035284
  Force two-norm initial, final = 89.244980 0.00016710947
  Force max component initial, final = 58.383279 4.8263128e-05
  Final line search alpha, max atom move = 1.0000000 4.8263128e-05
  Iterations, force evaluations = 165 322

MPI task timing breakdown:
Section |  min time  |  avg time  |  max time  |%varavg| %total
---------------------------------------------------------------
Pair    | 0.52837    | 1.3808     | 1.7747     |  30.5 | 69.71
Neigh   | 5.6414e-05 | 0.015802   | 0.022666   |   5.2 |  0.80
Comm    | 0.039163   | 0.325      | 0.93799    |  44.8 | 16.41
Output  | 0          | 0          | 0          |   0.0 |  0.00
Modify  | 1.8883e-05 | 0.0017586  | 0.0046491  |   2.6 |  0.09
Other   |            | 0.2575     |            |       | 13.00

Nlocal:        2776.45 ave        3958 max           0 min
Histogram: 8 4 4 0 4 12 8 2 28 34
Nghost:        3879.03 ave        5424 max         232 min
Histogram: 8 0 8 0 16 0 8 8 16 40
Neighs:        79213.6 ave      115374 max           0 min
Histogram: 8 4 4 0 10 6 8 8 24 32

Total # of neighbors = 8238211
Ave neighs/atom = 28.530502
Neighbor list builds = 5
Dangerous builds = 0
Setting atom values ...
  1 settings made for x
  1 settings made for y
  1 settings made for z
Setting up cg style minimization ...
  Unit style    : metal
  Current step  : 165
Per MPI rank memory allocation (min/avg/max) = 5.441 | 5.816 | 6.074 Mbytes
Step PotEng KinEng TotEng v_fx v_fy v_fz 
     165   -1152449.4            0   -1152449.4   0.01087353 -0.014800136 -0.020142029 
     276   -1152449.5            0   -1152449.5 -1.6909049e-05 2.9982998e-05 5.3568726e-05 
Loop time of 1.33517 on 104 procs for 111 steps with 288751 atoms

99.8% CPU use with 104 MPI tasks x 1 OpenMP threads

Minimization stats:
  Stopping criterion = energy tolerance
  Energy initial, next-to-last, final = 
     -1152449.44955145  -1152449.45008151  -1152449.45008151
  Force two-norm initial, final = 0.10845213 0.00017327849
  Force max component initial, final = 0.048235544 5.3568726e-05
  Final line search alpha, max atom move = 1.0000000 5.3568726e-05
  Iterations, force evaluations = 111 222

MPI task timing breakdown:
Section |  min time  |  avg time  |  max time  |%varavg| %total
---------------------------------------------------------------
Pair    | 0.33812    | 0.94593    | 1.2206     |  26.3 | 70.85
Neigh   | 0          | 0          | 0          |   0.0 |  0.00
Comm    | 0.022908   | 0.21676    | 0.64073    |  37.9 | 16.23
Output  | 0          | 0          | 0          |   0.0 |  0.00
Modify  | 1.3262e-05 | 0.0018396  | 0.0040069  |   2.0 |  0.14
Other   |            | 0.1706     |            |       | 12.78

Nlocal:        2776.45 ave        3958 max           0 min
Histogram: 8 4 4 0 4 12 8 2 28 34
Nghost:        3879.03 ave        5424 max         232 min
Histogram: 8 0 8 0 16 0 8 8 16 40
Neighs:        79213.4 ave      115370 max           0 min
Histogram: 8 4 4 0 10 6 8 8 24 32

Total # of neighbors = 8238198
Ave neighs/atom = 28.530457
Neighbor list builds = 0
Dangerous builds = 0
Setting atom values ...
  1 settings made for x
  1 settings made for y
  1 settings made for z
Setting up cg style minimization ...
  Unit style    : metal
  Current step  : 276
Per MPI rank memory allocation (min/avg/max) = 5.441 | 5.816 | 6.074 Mbytes
Step PotEng KinEng TotEng v_fx v_fy v_fz 
     276   -1152449.4            0   -1152449.4  0.018345048 -0.022443064 -0.032421289 
     424   -1152449.4            0   -1152449.4 -3.4231481e-05 2.2187104e-05 -2.3404444e-05 
Loop time of 1.73738 on 104 procs for 148 steps with 288751 atoms

99.9% CPU use with 104 MPI tasks x 1 OpenMP threads

Minimization stats:
  Stopping criterion = energy tolerance
  Energy initial, next-to-last, final = 
     -1152449.44705576  -1152449.44849466  -1152449.44849466
  Force two-norm initial, final = 0.17811414 0.0001635874
  Force max component initial, final = 0.077761224 3.4231481e-05
  Final line search alpha, max atom move = 1.0000000 3.4231481e-05
  Iterations, force evaluations = 148 296

MPI task timing breakdown:
Section |  min time  |  avg time  |  max time  |%varavg| %total
---------------------------------------------------------------
Pair    | 0.4482     | 1.2448     | 1.6235     |  30.2 | 71.65
Neigh   | 0          | 0          | 0          |   0.0 |  0.00
Comm    | 0.029062   | 0.28242    | 0.83987    |  44.0 | 16.26
Output  | 0          | 0          | 0          |   0.0 |  0.00
Modify  | 1.8804e-05 | 0.0024464  | 0.0053255  |   2.3 |  0.14
Other   |            | 0.2077     |            |       | 11.96

Nlocal:        2776.45 ave        3958 max           0 min
Histogram: 8 4 4 0 4 12 8 2 28 34
Nghost:        3879.03 ave        5424 max         232 min
Histogram: 8 0 8 0 16 0 8 8 16 40
Neighs:        79213.5 ave      115370 max           0 min
Histogram: 8 4 4 0 10 6 8 8 24 32

Total # of neighbors = 8238200
Ave neighs/atom = 28.530464
Neighbor list builds = 0
Dangerous builds = 0
The dot product: 5.75726973040408e-08
Setting atom values ...
  1 settings made for x
  1 settings made for y
  1 settings made for z
Setting up cg style minimization ...
  Unit style    : metal
  Current step  : 424
Per MPI rank memory allocation (min/avg/max) = 5.441 | 5.816 | 6.074 Mbytes
Step PotEng KinEng TotEng v_fx v_fy v_fz 
     424   -1152449.4            0   -1152449.4  0.018706622 -0.021279623 -0.031744458 
     588   -1152449.4            0   -1152449.4 1.7680767e-06 -6.1884587e-06 -2.6650961e-05 
Loop time of 1.94468 on 104 procs for 164 steps with 288751 atoms

99.9% CPU use with 104 MPI tasks x 1 OpenMP threads

Minimization stats:
  Stopping criterion = energy tolerance
  Energy initial, next-to-last, final = 
     -1152449.44403835  -1152449.44546631  -1152449.44546631
  Force two-norm initial, final = 0.1769027 0.0001023001
  Force max component initial, final = 0.075526211 2.6650961e-05
  Final line search alpha, max atom move = 1.0000000 2.6650961e-05
  Iterations, force evaluations = 164 328

MPI task timing breakdown:
Section |  min time  |  avg time  |  max time  |%varavg| %total
---------------------------------------------------------------
Pair    | 0.49238    | 1.3915     | 1.8072     |  32.2 | 71.56
Neigh   | 0          | 0          | 0          |   0.0 |  0.00
Comm    | 0.030508   | 0.32022    | 0.94326    |  46.1 | 16.47
Output  | 0          | 0          | 0          |   0.0 |  0.00
Modify  | 1.9055e-05 | 0.0027127  | 0.0059081  |   2.5 |  0.14
Other   |            | 0.2302     |            |       | 11.84

Nlocal:        2776.45 ave        3957 max           0 min
Histogram: 8 4 4 0 4 12 8 2 28 34
Nghost:        3879.03 ave        5424 max         232 min
Histogram: 8 0 8 0 16 0 8 8 16 40
Neighs:        79213.5 ave      115340 max           0 min
Histogram: 8 4 4 0 10 6 8 8 24 32

Total # of neighbors = 8238201
Ave neighs/atom = 28.530467
Neighbor list builds = 0
Dangerous builds = 0
The dot product: 4.10225416616627e-08
Setting atom values ...
  1 settings made for x
  1 settings made for y
  1 settings made for z
Setting up cg style minimization ...
  Unit style    : metal
  Current step  : 588
Per MPI rank memory allocation (min/avg/max) = 5.441 | 5.816 | 6.074 Mbytes
Step PotEng KinEng TotEng v_fx v_fy v_fz 
     588   -1152449.4            0   -1152449.4   0.01963202 -0.021084555 -0.030837021 
     696   -1152449.4            0   -1152449.4 3.0479938e-06 -9.1329128e-06 -4.7875668e-05 
Loop time of 1.25918 on 104 procs for 108 steps with 288751 atoms

99.9% CPU use with 104 MPI tasks x 1 OpenMP threads

Minimization stats:
  Stopping criterion = energy tolerance
  Energy initial, next-to-last, final = 
      -1152449.4395338  -1152449.44095385  -1152449.44095385
  Force two-norm initial, final = 0.17606777 0.00022963255
  Force max component initial, final = 0.073368138 4.7875668e-05
  Final line search alpha, max atom move = 1.0000000 4.7875668e-05
  Iterations, force evaluations = 108 216

MPI task timing breakdown:
Section |  min time  |  avg time  |  max time  |%varavg| %total
---------------------------------------------------------------
Pair    | 0.32959    | 0.90889    | 1.1795     |  25.6 | 72.18
Neigh   | 0          | 0          | 0          |   0.0 |  0.00
Comm    | 0.021287   | 0.20409    | 0.61125    |  37.9 | 16.21
Output  | 0          | 0          | 0          |   0.0 |  0.00
Modify  | 1.4158e-05 | 0.0017884  | 0.0038778  |   2.0 |  0.14
Other   |            | 0.1444     |            |       | 11.47

Nlocal:        2776.45 ave        3955 max           0 min
Histogram: 8 4 4 0 4 12 8 0 30 34
Nghost:        3879.03 ave        5424 max         232 min
Histogram: 8 0 8 0 16 0 8 8 16 40
Neighs:        79213.5 ave      115279 max           0 min
Histogram: 8 4 4 0 10 6 8 8 24 32

Total # of neighbors = 8238201
Ave neighs/atom = 28.530467
Neighbor list builds = 0
Dangerous builds = 0
The dot product: 7.47631871032267e-08
Setting atom values ...
  1 settings made for x
  1 settings made for y
  1 settings made for z
Setting up cg style minimization ...
  Unit style    : metal
  Current step  : 696
Per MPI rank memory allocation (min/avg/max) = 5.441 | 5.816 | 6.074 Mbytes
Step PotEng KinEng TotEng v_fx v_fy v_fz 
     696   -1152449.4            0   -1152449.4  0.021043276 -0.021660715 -0.030553094 
     885   -1152449.4            0   -1152449.4 -9.6538282e-08 6.0173223e-07 4.8702362e-06 
Loop time of 2.20876 on 104 procs for 189 steps with 288751 atoms

99.9% CPU use with 104 MPI tasks x 1 OpenMP threads

Minimization stats:
  Stopping criterion = energy tolerance
  Energy initial, next-to-last, final = 
     -1152449.43351046  -1152449.43492273  -1152449.43492273
  Force two-norm initial, final = 0.17546194 1.8662233e-05
  Force max component initial, final = 0.072612071 4.8702362e-06
  Final line search alpha, max atom move = 1.0000000 4.8702362e-06
  Iterations, force evaluations = 189 378

MPI task timing breakdown:
Section |  min time  |  avg time  |  max time  |%varavg| %total
---------------------------------------------------------------
Pair    | 0.56877    | 1.5968     | 2.0645     |  34.2 | 72.29
Neigh   | 0          | 0          | 0          |   0.0 |  0.00
Comm    | 0.033657   | 0.35802    | 1.0748     |  50.2 | 16.21
Output  | 0          | 0          | 0          |   0.0 |  0.00
Modify  | 2.2018e-05 | 0.0031183  | 0.0067862  |   2.6 |  0.14
Other   |            | 0.2508     |            |       | 11.36

Nlocal:        2776.45 ave        3954 max           0 min
Histogram: 8 4 4 0 4 12 8 0 30 34
Nghost:        3879.03 ave        5424 max         232 min
Histogram: 8 0 8 0 16 0 8 8 16 40
Neighs:        79213.5 ave      115246 max           0 min
Histogram: 8 4 4 0 10 6 8 8 24 32

Total # of neighbors = 8238201
Ave neighs/atom = 28.530467
Neighbor list builds = 0
Dangerous builds = 0
The dot product: -7.73595248374379e-09
Setting atom values ...
  1 settings made for x
  1 settings made for y
  1 settings made for z
Setting up cg style minimization ...
  Unit style    : metal
  Current step  : 885
Per MPI rank memory allocation (min/avg/max) = 5.441 | 5.816 | 6.074 Mbytes
Step PotEng KinEng TotEng v_fx v_fy v_fz 
     885   -1152449.4            0   -1152449.4  0.023013598 -0.022875403 -0.031014694 
    1000   -1152449.4            0   -1152449.4 2.1096862e-05 -1.3144646e-05 6.5794861e-05 
    1014   -1152449.4            0   -1152449.4 7.8176128e-06 -4.8263093e-06 2.4917185e-05 
Loop time of 1.50118 on 104 procs for 129 steps with 288751 atoms

99.9% CPU use with 104 MPI tasks x 1 OpenMP threads

Minimization stats:
  Stopping criterion = energy tolerance
  Energy initial, next-to-last, final = 
     -1152449.42594528  -1152449.42734802  -1152449.42734802
  Force two-norm initial, final = 0.17500333 9.7802081e-05
  Force max component initial, final = 0.073058269 2.4917185e-05
  Final line search alpha, max atom move = 1.0000000 2.4917185e-05
  Iterations, force evaluations = 129 258

MPI task timing breakdown:
Section |  min time  |  avg time  |  max time  |%varavg| %total
---------------------------------------------------------------
Pair    | 0.38934    | 1.0843     | 1.4075     |  28.2 | 72.23
Neigh   | 0          | 0          | 0          |   0.0 |  0.00
Comm    | 0.023549   | 0.24467    | 0.7283     |  41.3 | 16.30
Output  | 0.00015964 | 0.00016538 | 0.00033025 |   0.0 |  0.01
Modify  | 1.5228e-05 | 0.0021324  | 0.0046196  |   2.2 |  0.14
Other   |            | 0.17       |            |       | 11.32

Nlocal:        2776.45 ave        3952 max           0 min
Histogram: 8 4 4 0 4 12 8 0 30 34
Nghost:        3879.03 ave        5424 max         232 min
Histogram: 8 0 8 0 16 0 8 8 16 40
Neighs:        79213.5 ave      115177 max           0 min
Histogram: 8 4 4 0 10 6 8 8 24 32

Total # of neighbors = 8238203
Ave neighs/atom = 28.530474
Neighbor list builds = 0
Dangerous builds = 0
The dot product: -4.08821217597362e-08
Setting atom values ...
  1 settings made for x
  1 settings made for y
  1 settings made for z
Setting up cg style minimization ...
  Unit style    : metal
  Current step  : 1014
Per MPI rank memory allocation (min/avg/max) = 5.441 | 5.816 | 6.074 Mbytes
Step PotEng KinEng TotEng v_fx v_fy v_fz 
    1014   -1152449.4            0   -1152449.4  0.025756778 -0.024754466 -0.032531795 
    1141   -1152449.4            0   -1152449.4 -1.1596263e-05 1.0886919e-05 1.0566886e-05 
Loop time of 1.48157 on 104 procs for 127 steps with 288751 atoms

99.9% CPU use with 104 MPI tasks x 1 OpenMP threads

Minimization stats:
  Stopping criterion = energy tolerance
  Energy initial, next-to-last, final = 
     -1152449.41682308  -1152449.41821741  -1152449.41821741
  Force two-norm initial, final = 0.174793 0.0001089256
  Force max component initial, final = 0.073773638 1.8136606e-05
  Final line search alpha, max atom move = 1.0000000 1.8136606e-05
  Iterations, force evaluations = 127 254

MPI task timing breakdown:
Section |  min time  |  avg time  |  max time  |%varavg| %total
---------------------------------------------------------------
Pair    | 0.3847     | 1.0738     | 1.3837     |  27.9 | 72.48
Neigh   | 0          | 0          | 0          |   0.0 |  0.00
Comm    | 0.024907   | 0.24039    | 0.72355    |  41.4 | 16.23
Output  | 0          | 0          | 0          |   0.0 |  0.00
Modify  | 1.6531e-05 | 0.002109   | 0.004565   |   2.2 |  0.14
Other   |            | 0.1653     |            |       | 11.16

Nlocal:        2776.45 ave        3951 max           0 min
Histogram: 8 4 4 0 4 12 8 0 30 34
Nghost:        3879.03 ave        5424 max         232 min
Histogram: 8 0 8 0 16 0 8 8 16 40
Neighs:        79213.5 ave      115154 max           0 min
Histogram: 8 4 4 0 10 6 8 8 24 32

Total # of neighbors = 8238204
Ave neighs/atom = 28.530478
Neighbor list builds = 0
Dangerous builds = 0
The dot product: -3.03592959909511e-08
Setting atom values ...
  1 settings made for x
  1 settings made for y
  1 settings made for z
Setting up cg style minimization ...
  Unit style    : metal
  Current step  : 1141
Per MPI rank memory allocation (min/avg/max) = 5.441 | 5.816 | 6.074 Mbytes
Step PotEng KinEng TotEng v_fx v_fy v_fz 
    1141   -1152449.4            0   -1152449.4  0.029418555  -0.02721928 -0.035219929 
    1274   -1152449.4            0   -1152449.4 -5.3811788e-06 5.7723467e-06 2.4310652e-05 
Loop time of 1.5391 on 104 procs for 133 steps with 288751 atoms

99.9% CPU use with 104 MPI tasks x 1 OpenMP threads

Minimization stats:
  Stopping criterion = energy tolerance
  Energy initial, next-to-last, final = 
     -1152449.40614598  -1152449.40753509  -1152449.40753509
  Force two-norm initial, final = 0.17487756 9.6476359e-05
  Force max component initial, final = 0.074778836 2.4310652e-05
  Final line search alpha, max atom move = 1.0000000 2.4310652e-05
  Iterations, force evaluations = 133 266

MPI task timing breakdown:
Section |  min time  |  avg time  |  max time  |%varavg| %total
---------------------------------------------------------------
Pair    | 0.40218    | 1.1185     | 1.4502     |  28.5 | 72.67
Neigh   | 0          | 0          | 0          |   0.0 |  0.00
Comm    | 0.023825   | 0.25014    | 0.75302    |  42.5 | 16.25
Output  | 0          | 0          | 0          |   0.0 |  0.00
Modify  | 1.594e-05  | 0.0021975  | 0.0047594  |   2.2 |  0.14
Other   |            | 0.1683     |            |       | 10.93

Nlocal:        2776.45 ave        3949 max           0 min
Histogram: 8 4 4 0 4 12 8 1 27 36
Nghost:        3879.03 ave        5424 max         232 min
Histogram: 8 0 8 0 16 0 8 8 16 40
Neighs:        79213.5 ave      115112 max           0 min
Histogram: 8 4 4 0 10 6 8 8 24 32

Total # of neighbors = 8238201
Ave neighs/atom = 28.530467
Neighbor list builds = 0
Dangerous builds = 0
The dot product: -6.77537054265683e-08
Setting atom values ...
  1 settings made for x
  1 settings made for y
  1 settings made for z
Setting up cg style minimization ...
  Unit style    : metal
  Current step  : 1274
Per MPI rank memory allocation (min/avg/max) = 5.441 | 5.816 | 6.074 Mbytes
Step PotEng KinEng TotEng v_fx v_fy v_fz 
    1274   -1152449.4            0   -1152449.4  0.034475642 -0.030398931 -0.039427239 
    1385   -1152449.4            0   -1152449.4 -1.6788611e-05 1.5300454e-05 3.9610259e-05 
Loop time of 1.28559 on 104 procs for 111 steps with 288751 atoms

99.9% CPU use with 104 MPI tasks x 1 OpenMP threads

Minimization stats:
  Stopping criterion = energy tolerance
  Energy initial, next-to-last, final = 
     -1152449.39393818  -1152449.39533392  -1152449.39533392
  Force two-norm initial, final = 0.17555589 0.00023575951
  Force max component initial, final = 0.076042136 3.9610259e-05
  Final line search alpha, max atom move = 1.0000000 3.9610259e-05
  Iterations, force evaluations = 111 222

MPI task timing breakdown:
Section |  min time  |  avg time  |  max time  |%varavg| %total
---------------------------------------------------------------
Pair    | 0.33567    | 0.94044    | 1.2134     |  26.2 | 73.15
Neigh   | 0          | 0          | 0          |   0.0 |  0.00
Comm    | 0.019328   | 0.21133    | 0.63535    |  38.6 | 16.44
Output  | 0          | 0          | 0          |   0.0 |  0.00
Modify  | 1.2975e-05 | 0.0018402  | 0.0039951  |   2.0 |  0.14
Other   |            | 0.132      |            |       | 10.27

Nlocal:        2776.45 ave        3947 max           0 min
Histogram: 8 4 4 0 4 12 8 2 26 36
Nghost:        3879.03 ave        5424 max         232 min
Histogram: 8 0 8 0 16 0 8 8 16 40
Neighs:        79213.4 ave      115004 max           0 min
Histogram: 8 4 4 0 10 6 8 8 24 32

Total # of neighbors = 8238197
Ave neighs/atom = 28.530454
Neighbor list builds = 0
Dangerous builds = 0
The dot product: -1.92083008961509e-07
Setting atom values ...
  1 settings made for x
  1 settings made for y
  1 settings made for z
Setting up cg style minimization ...
  Unit style    : metal
  Current step  : 1385
Per MPI rank memory allocation (min/avg/max) = 5.441 | 5.816 | 6.074 Mbytes
Step PotEng KinEng TotEng v_fx v_fy v_fz 
    1385   -1152449.4            0   -1152449.4  0.043164294 -0.035598721 -0.048387932 
    1585   -1152449.4            0   -1152449.4 4.171482e-06 -3.4425745e-06 -9.4426865e-06 
Loop time of 2.36977 on 104 procs for 200 steps with 288751 atoms

99.9% CPU use with 104 MPI tasks x 1 OpenMP threads

Minimization stats:
  Stopping criterion = energy tolerance
  Energy initial, next-to-last, final = 
     -1152449.38029047  -1152449.38176778  -1152449.38176778
  Force two-norm initial, final = 0.17861012 4.5373910e-05
  Force max component initial, final = 0.07762602 9.4426865e-06
  Final line search alpha, max atom move = 1.0000000 9.4426865e-06
  Iterations, force evaluations = 200 400

MPI task timing breakdown:
Section |  min time  |  avg time  |  max time  |%varavg| %total
---------------------------------------------------------------
Pair    | 0.60369    | 1.687      | 2.2034     |  35.2 | 71.19
Neigh   | 0          | 0          | 0          |   0.0 |  0.00
Comm    | 0.038716   | 0.3857     | 1.143      |  51.0 | 16.28
Output  | 0          | 0          | 0          |   0.0 |  0.00
Modify  | 2.3767e-05 | 0.0033054  | 0.007139   |   2.7 |  0.14
Other   |            | 0.2938     |            |       | 12.40

Nlocal:        2776.45 ave        3945 max           0 min
Histogram: 8 4 4 0 4 12 8 2 26 36
Nghost:        3879.07 ave        5424 max         232 min
Histogram: 8 0 8 0 16 0 8 8 16 40
Neighs:        79213.4 ave      114941 max           0 min
Histogram: 8 4 4 0 10 6 8 8 22 34

Total # of neighbors = 8238198
Ave neighs/atom = 28.530457
Neighbor list builds = 0
Dangerous builds = 0
The dot product: 9.39848192368456e-08
Setting atom values ...
  1 settings made for x
  1 settings made for y
  1 settings made for z
Setting up cg style minimization ...
  Unit style    : metal
  Current step  : 1585
Per MPI rank memory allocation (min/avg/max) = 5.441 | 5.816 | 6.074 Mbytes
Step PotEng KinEng TotEng v_fx v_fy v_fz 
    1585   -1152449.4            0   -1152449.4  0.061478577  -0.04451042 -0.067965657 
    1792   -1152449.4            0   -1152449.4 -4.6857234e-06 3.4635042e-06 3.4066669e-06 
Loop time of 2.40116 on 104 procs for 207 steps with 288751 atoms

99.9% CPU use with 104 MPI tasks x 1 OpenMP threads

Minimization stats:
  Stopping criterion = energy tolerance
  Energy initial, next-to-last, final = 
     -1152449.36559238  -1152449.36855271  -1152449.36855271
  Force two-norm initial, final = 0.18966541 7.0029732e-05
  Force max component initial, final = 0.079705278 8.9716368e-06
  Final line search alpha, max atom move = 1.0000000 8.9716368e-06
  Iterations, force evaluations = 207 414

MPI task timing breakdown:
Section |  min time  |  avg time  |  max time  |%varavg| %total
---------------------------------------------------------------
Pair    | 0.62255    | 1.7494     | 2.2588     |  35.8 | 72.86
Neigh   | 0          | 0          | 0          |   0.0 |  0.00
Comm    | 0.039162   | 0.39438    | 1.1861     |  52.6 | 16.42
Output  | 0          | 0          | 0          |   0.0 |  0.00
Modify  | 2.3796e-05 | 0.0034187  | 0.007442   |   2.8 |  0.14
Other   |            | 0.2539     |            |       | 10.57

Nlocal:        2776.45 ave        3942 max           0 min
Histogram: 8 4 4 0 4 12 8 2 26 36
Nghost:        3879.07 ave        5424 max         232 min
Histogram: 8 0 8 0 16 0 8 8 16 40
Neighs:        79213.4 ave      114855 max           0 min
Histogram: 8 4 4 0 10 6 8 8 22 34

Total # of neighbors = 8238194
Ave neighs/atom = 28.530443
Neighbor list builds = 0
Dangerous builds = 0
The dot product: -3.38047783488158e-07
Setting atom values ...
  1 settings made for x
  1 settings made for y
  1 settings made for z
Setting up cg style minimization ...
  Unit style    : metal
  Current step  : 1792
Per MPI rank memory allocation (min/avg/max) = 5.441 | 5.816 | 6.074 Mbytes
Step PotEng KinEng TotEng v_fx v_fy v_fz 
    1792   -1152449.4            0   -1152449.4    0.1586102 -0.054478658  -0.12922924 
    1995   -1152449.4            0   -1152449.4 3.7736724e-05 -1.5471394e-05 -1.8700042e-05 
Loop time of 2.39817 on 104 procs for 203 steps with 288751 atoms

99.9% CPU use with 104 MPI tasks x 1 OpenMP threads

Minimization stats:
  Stopping criterion = energy tolerance
  Energy initial, next-to-last, final = 
     -1152449.35470359  -1152449.36173016  -1152449.36173016
  Force two-norm initial, final = 0.25797873 0.00017791066
  Force max component initial, final = 0.1586102 3.7736724e-05
  Final line search alpha, max atom move = 1.0000000 3.7736724e-05
  Iterations, force evaluations = 203 406

MPI task timing breakdown:
Section |  min time  |  avg time  |  max time  |%varavg| %total
---------------------------------------------------------------
Pair    | 0.61794    | 1.7067     | 2.2264     |  35.1 | 71.17
Neigh   | 1.0259e-05 | 0.0029463  | 0.0042758  |   2.2 |  0.12
Comm    | 0.037633   | 0.38985    | 1.1528     |  51.0 | 16.26
Output  | 0          | 0          | 0          |   0.0 |  0.00
Modify  | 2.5211e-05 | 0.0033517  | 0.0072812  |   2.7 |  0.14
Other   |            | 0.2953     |            |       | 12.31

Nlocal:        2776.45 ave        3944 max           0 min
Histogram: 8 4 4 0 4 12 8 2 26 36
Nghost:        3879.03 ave        5424 max         232 min
Histogram: 8 0 8 0 16 0 8 8 16 40
Neighs:        79213.4 ave      114916 max           0 min
Histogram: 8 4 4 0 10 6 8 8 22 34

Total # of neighbors = 8238197
Ave neighs/atom = 28.530454
Neighbor list builds = 1
Dangerous builds = 0
The dot product: 2.57630031363879e-06
Setting atom values ...
  1 settings made for x
  1 settings made for y
  1 settings made for z
Setting up cg style minimization ...
  Unit style    : metal
  Current step  : 1995
Per MPI rank memory allocation (min/avg/max) = 5.441 | 5.816 | 6.074 Mbytes
Step PotEng KinEng TotEng v_fx v_fy v_fz 
    1995   -1152449.3            0   -1152449.3   0.14256898 -0.013193869  -0.07675186 
    2000   -1152449.4            0   -1152449.4 0.0047795056 -0.0021920226 0.0026332274 
    2190   -1152449.4            0   -1152449.4 -1.8339642e-05 -5.7495509e-06 3.2031033e-05 
Loop time of 2.2516 on 104 procs for 195 steps with 288751 atoms

99.9% CPU use with 104 MPI tasks x 1 OpenMP threads

Minimization stats:
  Stopping criterion = energy tolerance
  Energy initial, next-to-last, final = 
      -1152449.3498666  -1152449.35366918  -1152449.35366918
  Force two-norm initial, final = 0.21253949 0.00016183757
  Force max component initial, final = 0.14256898 4.6904893e-05
  Final line search alpha, max atom move = 1.0000000 4.6904893e-05
  Iterations, force evaluations = 195 390

MPI task timing breakdown:
Section |  min time  |  avg time  |  max time  |%varavg| %total
---------------------------------------------------------------
Pair    | 0.58491    | 1.6417     | 2.1251     |  34.7 | 72.91
Neigh   | 0          | 0          | 0          |   0.0 |  0.00
Comm    | 0.033893   | 0.36739    | 1.1065     |  51.2 | 16.32
Output  | 0.00011475 | 0.00011707 | 0.00017438 |   0.0 |  0.01
Modify  | 2.2802e-05 | 0.003212   | 0.0069659  |   2.7 |  0.14
Other   |            | 0.2392     |            |       | 10.62

Nlocal:        2776.45 ave        3945 max           0 min
Histogram: 8 4 4 0 4 12 8 1 27 36
Nghost:        3879.03 ave        5424 max         232 min
Histogram: 8 0 8 0 16 0 8 8 16 40
Neighs:        79213.5 ave      114939 max           0 min
Histogram: 8 4 4 0 10 6 8 8 22 34

Total # of neighbors = 8238202
Ave neighs/atom = 28.530471
Neighbor list builds = 0
Dangerous builds = 0
The dot product: -1.08927801744473e-06
Setting atom values ...
  1 settings made for x
  1 settings made for y
  1 settings made for z
Setting up cg style minimization ...
  Unit style    : metal
  Current step  : 2190
Per MPI rank memory allocation (min/avg/max) = 5.441 | 5.816 | 6.074 Mbytes
Step PotEng KinEng TotEng v_fx v_fy v_fz 
    2190   -1152449.3            0   -1152449.3  0.079126347 0.0034180177 -0.036899602 
    2303   -1152449.3            0   -1152449.3 7.4200423e-06 -1.4024318e-05 3.2468461e-05 
Loop time of 1.32102 on 104 procs for 113 steps with 288751 atoms

99.9% CPU use with 104 MPI tasks x 1 OpenMP threads

Minimization stats:
  Stopping criterion = energy tolerance
  Energy initial, next-to-last, final = 
     -1152449.34239226  -1152449.34472779  -1152449.34472779
  Force two-norm initial, final = 0.16271125 0.00027361518
  Force max component initial, final = 0.079362976 3.8848868e-05
  Final line search alpha, max atom move = 1.0000000 3.8848868e-05
  Iterations, force evaluations = 113 226

MPI task timing breakdown:
Section |  min time  |  avg time  |  max time  |%varavg| %total
---------------------------------------------------------------
Pair    | 0.34372    | 0.95438    | 1.239      |  26.4 | 72.25
Neigh   | 0          | 0          | 0          |   0.0 |  0.00
Comm    | 0.026111   | 0.21465    | 0.64501    |  38.9 | 16.25
Output  | 0          | 0          | 0          |   0.0 |  0.00
Modify  | 1.4203e-05 | 0.0018759  | 0.0046968  |   2.1 |  0.14
Other   |            | 0.1501     |            |       | 11.36

Nlocal:        2776.45 ave        3945 max           0 min
Histogram: 8 4 4 0 4 12 8 0 28 36
Nghost:        3879.07 ave        5424 max         232 min
Histogram: 8 0 8 0 16 0 8 8 16 40
Neighs:        79213.5 ave      114930 max           0 min
Histogram: 8 4 4 0 10 6 8 8 22 34

Total # of neighbors = 8238203
Ave neighs/atom = 28.530474
Neighbor list builds = 0
Dangerous builds = 0
The dot product: -3.11362180584585e-07
Setting atom values ...
  1 settings made for x
  1 settings made for y
  1 settings made for z
Setting up cg style minimization ...
  Unit style    : metal
  Current step  : 2303
Per MPI rank memory allocation (min/avg/max) = 5.441 | 5.816 | 6.074 Mbytes
Step PotEng KinEng TotEng v_fx v_fy v_fz 
    2303   -1152449.3            0   -1152449.3  0.036227919   0.01006397 -0.028612623 
    2551   -1152449.3            0   -1152449.3 -5.1652676e-06 -5.4700822e-06 1.3034354e-05 
Loop time of 2.88083 on 104 procs for 248 steps with 288751 atoms

99.9% CPU use with 104 MPI tasks x 1 OpenMP threads

Minimization stats:
  Stopping criterion = energy tolerance
  Energy initial, next-to-last, final = 
      -1152449.3351821  -1152449.34516456  -1152449.34516456
  Force two-norm initial, final = 0.15179783 9.5950674e-05
  Force max component initial, final = 0.074075416 1.7672042e-05
  Final line search alpha, max atom move = 1.0000000 1.7672042e-05
  Iterations, force evaluations = 248 496

MPI task timing breakdown:
Section |  min time  |  avg time  |  max time  |%varavg| %total
---------------------------------------------------------------
Pair    | 0.74609    | 2.0892     | 2.7029     |  39.1 | 72.52
Neigh   | 1.0323e-05 | 0.0029591  | 0.0042818  |   2.2 |  0.10
Comm    | 0.044602   | 0.46862    | 1.4049     |  57.5 | 16.27
Output  | 0          | 0          | 0          |   0.0 |  0.00
Modify  | 2.8796e-05 | 0.0040883  | 0.008867   |   3.0 |  0.14
Other   |            | 0.316      |            |       | 10.97

Nlocal:        2776.45 ave        3948 max           0 min
Histogram: 8 4 4 0 4 12 8 0 28 36
Nghost:        3879.03 ave        5424 max         232 min
Histogram: 8 0 8 0 16 0 8 8 16 40
Neighs:        79213.5 ave      115042 max           0 min
Histogram: 8 4 4 0 10 6 8 8 24 32

Total # of neighbors = 8238202
Ave neighs/atom = 28.530471
Neighbor list builds = 1
Dangerous builds = 0
The dot product: -5.72851895348943e-07
Setting atom values ...
  1 settings made for x
  1 settings made for y
  1 settings made for z
Setting up cg style minimization ...
  Unit style    : metal
  Current step  : 2551
Per MPI rank memory allocation (min/avg/max) = 5.441 | 5.816 | 6.074 Mbytes
Step PotEng KinEng TotEng v_fx v_fy v_fz 
    2551   -1152449.3            0   -1152449.3 -0.0049845372 -0.021829511  0.036517149 
    2666   -1152449.3            0   -1152449.3 -1.8564499e-05 8.5846517e-06 -1.2678046e-05 
Loop time of 1.33178 on 104 procs for 115 steps with 288751 atoms

99.9% CPU use with 104 MPI tasks x 1 OpenMP threads

Minimization stats:
  Stopping criterion = energy tolerance
  Energy initial, next-to-last, final = 
     -1152449.34736011  -1152449.34836098  -1152449.34836098
  Force two-norm initial, final = 0.13182807 9.8086144e-05
  Force max component initial, final = 0.05245673 1.8564499e-05
  Final line search alpha, max atom move = 1.0000000 1.8564499e-05
  Iterations, force evaluations = 115 230

MPI task timing breakdown:
Section |  min time  |  avg time  |  max time  |%varavg| %total
---------------------------------------------------------------
Pair    | 0.34607    | 0.96528    | 1.2562     |  26.6 | 72.48
Neigh   | 0          | 0          | 0          |   0.0 |  0.00
Comm    | 0.02107    | 0.21684    | 0.64882    |  39.2 | 16.28
Output  | 0          | 0          | 0          |   0.0 |  0.00
Modify  | 1.4374e-05 | 0.0019027  | 0.0041074  |   2.1 |  0.14
Other   |            | 0.1478     |            |       | 11.10

Nlocal:        2776.45 ave        3961 max           0 min
Histogram: 8 4 4 0 6 10 8 2 28 34
Nghost:        3879.03 ave        5425 max         232 min
Histogram: 8 0 8 0 16 0 8 8 16 40
Neighs:        79213.4 ave      115460 max           0 min
Histogram: 8 4 4 0 10 6 8 8 24 32

Total # of neighbors = 8238191
Ave neighs/atom = 28.530433
Neighbor list builds = 0
Dangerous builds = 0
The dot product: -4.1012418050631e-08
Setting atom values ...
  1 settings made for x
  1 settings made for y
  1 settings made for z
Setting up cg style minimization ...
  Unit style    : metal
  Current step  : 2666
Per MPI rank memory allocation (min/avg/max) = 5.441 | 5.816 | 6.074 Mbytes
Step PotEng KinEng TotEng v_fx v_fy v_fz 
    2666   -1152449.3            0   -1152449.3 0.00084892946 -0.010935986  0.018492594 
    2857   -1152449.4            0   -1152449.4 -1.3145361e-05 -3.2215588e-06 6.6407091e-06 
Loop time of 2.24307 on 104 procs for 191 steps with 288751 atoms

99.9% CPU use with 104 MPI tasks x 1 OpenMP threads

Minimization stats:
  Stopping criterion = energy tolerance
  Energy initial, next-to-last, final = 
      -1152449.3496537  -1152449.35055828  -1152449.35055828
  Force two-norm initial, final = 0.12503743 8.1356229e-05
  Force max component initial, final = 0.053003781 1.3145361e-05
  Final line search alpha, max atom move = 1.0000000 1.3145361e-05
  Iterations, force evaluations = 191 382

MPI task timing breakdown:
Section |  min time  |  avg time  |  max time  |%varavg| %total
---------------------------------------------------------------
Pair    | 0.57782    | 1.6196     | 2.0997     |  34.4 | 72.20
Neigh   | 0          | 0          | 0          |   0.0 |  0.00
Comm    | 0.032891   | 0.36644    | 1.0913     |  50.1 | 16.34
Output  | 0          | 0          | 0          |   0.0 |  0.00
Modify  | 2.2531e-05 | 0.0031573  | 0.0068376  |   2.7 |  0.14
Other   |            | 0.2539     |            |       | 11.32

Nlocal:        2776.45 ave        3961 max           0 min
Histogram: 8 4 4 0 6 10 8 2 28 34
Nghost:        3879.03 ave        5425 max         232 min
Histogram: 8 0 8 0 16 0 8 8 16 40
Neighs:        79213.4 ave      115461 max           0 min
Histogram: 8 4 4 0 10 6 8 8 24 32

Total # of neighbors = 8238193
Ave neighs/atom = 28.530440
Neighbor list builds = 0
Dangerous builds = 0
The dot product: -1.15448761472405e-09
Setting atom values ...
  1 settings made for x
  1 settings made for y
  1 settings made for z
Setting up cg style minimization ...
  Unit style    : metal
  Current step  : 2857
Per MPI rank memory allocation (min/avg/max) = 5.441 | 5.816 | 6.074 Mbytes
Step PotEng KinEng TotEng v_fx v_fy v_fz 
    2857   -1152449.4            0   -1152449.4 0.00055952548 -0.012003246  0.020346265 
    3000   -1152449.4            0   -1152449.4 7.0008767e-06 -4.9783382e-05 8.3972916e-05 
    3040   -1152449.4            0   -1152449.4 -8.8657974e-06 1.1881892e-05 -1.9406946e-05 
Loop time of 2.14986 on 104 procs for 183 steps with 288751 atoms

99.9% CPU use with 104 MPI tasks x 1 OpenMP threads

Minimization stats:
  Stopping criterion = energy tolerance
  Energy initial, next-to-last, final = 
     -1152449.35063174  -1152449.35153364  -1152449.35153364
  Force two-norm initial, final = 0.12558366 0.0001167156
  Force max component initial, final = 0.052603439 1.9406946e-05
  Final line search alpha, max atom move = 1.0000000 1.9406946e-05
  Iterations, force evaluations = 183 366

MPI task timing breakdown:
Section |  min time  |  avg time  |  max time  |%varavg| %total
---------------------------------------------------------------
Pair    | 0.5509     | 1.5385     | 2.0246     |  33.7 | 71.56
Neigh   | 0          | 0          | 0          |   0.0 |  0.00
Comm    | 0.034176   | 0.35176    | 1.0431     |  48.7 | 16.36
Output  | 0.00016128 | 0.00017373 | 0.00034111 |   0.0 |  0.01
Modify  | 2.3255e-05 | 0.0030213  | 0.006554   |   2.6 |  0.14
Other   |            | 0.2564     |            |       | 11.93

Nlocal:        2776.45 ave        3961 max           0 min
Histogram: 8 4 4 0 6 10 8 2 28 34
Nghost:        3879.03 ave        5427 max         232 min
Histogram: 8 0 8 0 16 0 8 8 16 40
Neighs:        79213.4 ave      115461 max           0 min
Histogram: 8 4 4 0 10 6 8 8 24 32

Total # of neighbors = 8238189
Ave neighs/atom = 28.530426
Neighbor list builds = 0
Dangerous builds = 0
The dot product: -1.35269560746947e-08
Setting atom values ...
  1 settings made for x
  1 settings made for y
  1 settings made for z
Setting up cg style minimization ...
  Unit style    : metal
  Current step  : 3040
Per MPI rank memory allocation (min/avg/max) = 5.441 | 5.816 | 6.074 Mbytes
Step PotEng KinEng TotEng v_fx v_fy v_fz 
    3040   -1152449.4            0   -1152449.4 0.00095842072 -0.011436327  0.019411955 
    3255   -1152449.4            0   -1152449.4 -5.6239692e-06 5.2965007e-07 -4.1040963e-07 
Loop time of 2.49959 on 104 procs for 215 steps with 288751 atoms

99.9% CPU use with 104 MPI tasks x 1 OpenMP threads

Minimization stats:
  Stopping criterion = energy tolerance
  Energy initial, next-to-last, final = 
     -1152449.35029604  -1152449.35119077  -1152449.35119077
  Force two-norm initial, final = 0.12510304 4.2090134e-05
  Force max component initial, final = 0.052458993 5.8932116e-06
  Final line search alpha, max atom move = 1.0000000 5.8932116e-06
  Iterations, force evaluations = 215 430

MPI task timing breakdown:
Section |  min time  |  avg time  |  max time  |%varavg| %total
---------------------------------------------------------------
Pair    | 0.64349    | 1.8169     | 2.3519     |  36.6 | 72.69
Neigh   | 0          | 0          | 0          |   0.0 |  0.00
Comm    | 0.037814   | 0.40883    | 1.2329     |  53.9 | 16.36
Output  | 0          | 0          | 0          |   0.0 |  0.00
Modify  | 2.6577e-05 | 0.0035536  | 0.0077258  |   2.8 |  0.14
Other   |            | 0.2703     |            |       | 10.81

Nlocal:        2776.45 ave        3960 max           0 min
Histogram: 8 4 4 0 4 12 8 2 28 34
Nghost:        3879.03 ave        5424 max         232 min
Histogram: 8 0 8 0 16 0 8 8 16 40
Neighs:        79213.4 ave      115429 max           0 min
Histogram: 8 4 4 0 10 6 8 8 24 32

Total # of neighbors = 8238191
Ave neighs/atom = 28.530433
Neighbor list builds = 0
Dangerous builds = 0
The dot product: -1.617001296629e-09
Setting atom values ...
  1 settings made for x
  1 settings made for y
  1 settings made for z
Setting up cg style minimization ...
  Unit style    : metal
  Current step  : 3255
Per MPI rank memory allocation (min/avg/max) = 5.441 | 5.816 | 6.074 Mbytes
Step PotEng KinEng TotEng v_fx v_fy v_fz 
    3255   -1152449.3            0   -1152449.3 0.0013185637 -0.010588038  0.017989991 
    3423   -1152449.3            0   -1152449.3 -4.6054811e-05 1.9901933e-05 -3.0041467e-05 
Loop time of 1.95894 on 104 procs for 168 steps with 288751 atoms

99.9% CPU use with 104 MPI tasks x 1 OpenMP threads

Minimization stats:
  Stopping criterion = energy tolerance
  Energy initial, next-to-last, final = 
     -1152449.34861579  -1152449.34949827  -1152449.34949827
  Force two-norm initial, final = 0.12419655 0.00022421808
  Force max component initial, final = 0.052314129 4.9585289e-05
  Final line search alpha, max atom move = 1.0000000 4.9585289e-05
  Iterations, force evaluations = 168 336

MPI task timing breakdown:
Section |  min time  |  avg time  |  max time  |%varavg| %total
---------------------------------------------------------------
Pair    | 0.50826    | 1.4173     | 1.8454     |  32.2 | 72.35
Neigh   | 0          | 0          | 0          |   0.0 |  0.00
Comm    | 0.031412   | 0.31897    | 0.95719    |  47.6 | 16.28
Output  | 0          | 0          | 0          |   0.0 |  0.00
Modify  | 1.9999e-05 | 0.0027779  | 0.0060253  |   2.5 |  0.14
Other   |            | 0.2199     |            |       | 11.22

Nlocal:        2776.45 ave        3958 max           0 min
Histogram: 8 4 4 0 4 12 8 2 28 34
Nghost:        3879.03 ave        5424 max         232 min
Histogram: 8 0 8 0 16 0 8 8 16 40
Neighs:        79213.4 ave      115392 max           0 min
Histogram: 8 4 4 0 10 6 8 8 24 32

Total # of neighbors = 8238191
Ave neighs/atom = 28.530433
Neighbor list builds = 0
Dangerous builds = 0
The dot product: -3.03939317926084e-08
Setting atom values ...
  1 settings made for x
  1 settings made for y
  1 settings made for z
Setting up cg style minimization ...
  Unit style    : metal
  Current step  : 3423
Per MPI rank memory allocation (min/avg/max) = 5.441 | 5.816 | 6.074 Mbytes
Step PotEng KinEng TotEng v_fx v_fy v_fz 
    3423   -1152449.3            0   -1152449.3 0.0014289803 -0.0095520284  0.016256254 
    3620   -1152449.3            0   -1152449.3 -1.0918908e-05 -1.2428127e-05 2.2243189e-05 
Loop time of 2.27437 on 104 procs for 197 steps with 288751 atoms

99.9% CPU use with 104 MPI tasks x 1 OpenMP threads

Minimization stats:
  Stopping criterion = energy tolerance
  Energy initial, next-to-last, final = 
     -1152449.34558039  -1152449.34644901  -1152449.34644901
  Force two-norm initial, final = 0.12319632 8.8664138e-05
  Force max component initial, final = 0.052208354 2.6952019e-05
  Final line search alpha, max atom move = 1.0000000 2.6952019e-05
  Iterations, force evaluations = 197 394

MPI task timing breakdown:
Section |  min time  |  avg time  |  max time  |%varavg| %total
---------------------------------------------------------------
Pair    | 0.59234    | 1.6564     | 2.1459     |  34.7 | 72.83
Neigh   | 0          | 0          | 0          |   0.0 |  0.00
Comm    | 0.035512   | 0.37059    | 1.1145     |  51.2 | 16.29
Output  | 0          | 0          | 0          |   0.0 |  0.00
Modify  | 2.2947e-05 | 0.0032476  | 0.0070294  |   2.7 |  0.14
Other   |            | 0.2442     |            |       | 10.74

Nlocal:        2776.45 ave        3958 max           0 min
Histogram: 8 4 4 0 4 12 8 2 28 34
Nghost:        3879.03 ave        5424 max         232 min
Histogram: 8 0 8 0 16 0 8 8 16 40
Neighs:        79213.4 ave      115362 max           0 min
Histogram: 8 4 4 0 10 6 8 8 24 32

Total # of neighbors = 8238190
Ave neighs/atom = 28.530429
Neighbor list builds = 0
Dangerous builds = 0
The dot product: 7.58682099223195e-09
Setting atom values ...
  1 settings made for x
  1 settings made for y
  1 settings made for z
Setting up cg style minimization ...
  Unit style    : metal
  Current step  : 3620
Per MPI rank memory allocation (min/avg/max) = 5.441 | 5.816 | 6.074 Mbytes
Step PotEng KinEng TotEng v_fx v_fy v_fz 
    3620   -1152449.3            0   -1152449.3 0.0012962752 -0.0085467772  0.014577625 
    3843   -1152449.3            0   -1152449.3 -1.9412376e-06 1.3926048e-06 -2.2292792e-06 
Loop time of 2.60001 on 104 procs for 223 steps with 288751 atoms

99.9% CPU use with 104 MPI tasks x 1 OpenMP threads

Minimization stats:
  Stopping criterion = energy tolerance
  Energy initial, next-to-last, final = 
     -1152449.34118125  -1152449.34203716  -1152449.34203716
  Force two-norm initial, final = 0.12240552 2.7623198e-05
  Force max component initial, final = 0.052062334 4.9033683e-06
  Final line search alpha, max atom move = 1.0000000 4.9033683e-06
  Iterations, force evaluations = 223 446

MPI task timing breakdown:
Section |  min time  |  avg time  |  max time  |%varavg| %total
---------------------------------------------------------------
Pair    | 0.6706     | 1.8705     | 2.4346     |  37.0 | 71.94
Neigh   | 0          | 0          | 0          |   0.0 |  0.00
Comm    | 0.041333   | 0.423      | 1.2727     |  54.6 | 16.27
Output  | 0          | 0          | 0          |   0.0 |  0.00
Modify  | 2.6608e-05 | 0.0036811  | 0.0079908  |   2.9 |  0.14
Other   |            | 0.3029     |            |       | 11.65

Nlocal:        2776.45 ave        3957 max           0 min
Histogram: 8 4 4 0 4 12 8 2 28 34
Nghost:        3879.03 ave        5424 max         232 min
Histogram: 8 0 8 0 16 0 8 8 16 40
Neighs:        79213.4 ave      115325 max           0 min
Histogram: 8 4 4 0 10 6 8 8 24 32

Total # of neighbors = 8238190
Ave neighs/atom = 28.530429
Neighbor list builds = 0
Dangerous builds = 0
The dot product: -1.44347246737768e-09
Setting atom values ...
  1 settings made for x
  1 settings made for y
  1 settings made for z
Setting up cg style minimization ...
  Unit style    : metal
  Current step  : 3843
Per MPI rank memory allocation (min/avg/max) = 5.441 | 5.816 | 6.074 Mbytes
Step PotEng KinEng TotEng v_fx v_fy v_fz 
    3843   -1152449.3            0   -1152449.3 0.00076801476 -0.0075389975  0.012916008 
    3981   -1152449.3            0   -1152449.3 -2.141983e-05 -2.7661269e-05  4.94131e-05 
Loop time of 1.60813 on 104 procs for 138 steps with 288751 atoms

99.9% CPU use with 104 MPI tasks x 1 OpenMP threads

Minimization stats:
  Stopping criterion = energy tolerance
  Energy initial, next-to-last, final = 
     -1152449.33540335   -1152449.3362517   -1152449.3362517
  Force two-norm initial, final = 0.12194212 0.00034238535
  Force max component initial, final = 0.051926832 5.3628244e-05
  Final line search alpha, max atom move = 1.0000000 5.3628244e-05
  Iterations, force evaluations = 138 276

MPI task timing breakdown:
Section |  min time  |  avg time  |  max time  |%varavg| %total
---------------------------------------------------------------
Pair    | 0.41495    | 1.1669     | 1.5101     |  29.2 | 72.56
Neigh   | 0          | 0          | 0          |   0.0 |  0.00
Comm    | 0.023873   | 0.26001    | 0.7865     |  43.3 | 16.17
Output  | 0          | 0          | 0          |   0.0 |  0.00
Modify  | 1.6207e-05 | 0.0022834  | 0.0049599  |   2.3 |  0.14
Other   |            | 0.1789     |            |       | 11.12

Nlocal:        2776.45 ave        3957 max           0 min
Histogram: 8 4 4 0 4 12 8 2 28 34
Nghost:        3879.03 ave        5424 max         232 min
Histogram: 8 0 8 0 16 0 8 8 16 40
Neighs:        79213.4 ave      115325 max           0 min
Histogram: 8 4 4 0 10 6 8 8 24 32

Total # of neighbors = 8238192
Ave neighs/atom = 28.530436
Neighbor list builds = 0
Dangerous builds = 0
The dot product: 1.7332521375745e-08
Setting atom values ...
  1 settings made for x
  1 settings made for y
  1 settings made for z
Setting up cg style minimization ...
  Unit style    : metal
  Current step  : 3981
Per MPI rank memory allocation (min/avg/max) = 5.441 | 5.816 | 6.074 Mbytes
Step PotEng KinEng TotEng v_fx v_fy v_fz 
    3981   -1152449.3            0   -1152449.3 -0.00017908174 -0.0066405619  0.011468855 
    4000   -1152449.3            0   -1152449.3 9.9733545e-05 0.00017477909 -0.00030973256 
    4172   -1152449.3            0   -1152449.3 -8.9813287e-06 -6.9388105e-06 1.2712624e-05 
Loop time of 2.25058 on 104 procs for 191 steps with 288751 atoms

99.9% CPU use with 104 MPI tasks x 1 OpenMP threads

Minimization stats:
  Stopping criterion = energy tolerance
  Energy initial, next-to-last, final = 
     -1152449.32822657  -1152449.32907374  -1152449.32907374
  Force two-norm initial, final = 0.12189302 9.1505428e-05
  Force max component initial, final = 0.051727148 1.2712624e-05
  Final line search alpha, max atom move = 1.0000000 1.2712624e-05
  Iterations, force evaluations = 191 382

MPI task timing breakdown:
Section |  min time  |  avg time  |  max time  |%varavg| %total
---------------------------------------------------------------
Pair    | 0.57337    | 1.6042     | 2.0872     |  34.3 | 71.28
Neigh   | 0          | 0          | 0          |   0.0 |  0.00
Comm    | 0.034466   | 0.3622     | 1.0759     |  50.0 | 16.09
Output  | 9.8269e-05 | 0.00010566 | 0.00018791 |   0.0 |  0.00
Modify  | 2.2716e-05 | 0.0031513  | 0.0068319  |   2.7 |  0.14
Other   |            | 0.2809     |            |       | 12.48

Nlocal:        2776.45 ave        3956 max           0 min
Histogram: 8 4 4 0 4 12 8 0 30 34
Nghost:        3879.01 ave        5424 max         232 min
Histogram: 8 0 8 0 16 0 8 8 16 40
Neighs:        79213.4 ave      115286 max           0 min
Histogram: 8 4 4 0 10 6 8 8 24 32

Total # of neighbors = 8238189
Ave neighs/atom = 28.530426
Neighbor list builds = 0
Dangerous builds = 0
The dot product: 3.04129781078502e-09
Setting atom values ...
  1 settings made for x
  1 settings made for y
  1 settings made for z
Setting up cg style minimization ...
  Unit style    : metal
  Current step  : 4172
Per MPI rank memory allocation (min/avg/max) = 5.441 | 5.816 | 6.074 Mbytes
Step PotEng KinEng TotEng v_fx v_fy v_fz 
    4172   -1152449.3            0   -1152449.3 -0.0014888661 -0.005773604  0.010093925 
    4349   -1152449.3            0   -1152449.3 -8.9475334e-06 -8.7372452e-06 1.5828085e-05 
Loop time of 2.06731 on 104 procs for 177 steps with 288751 atoms

99.9% CPU use with 104 MPI tasks x 1 OpenMP threads

Minimization stats:
  Stopping criterion = energy tolerance
  Energy initial, next-to-last, final = 
     -1152449.31962359   -1152449.3204738   -1152449.3204738
  Force two-norm initial, final = 0.12215873 0.00014479564
  Force max component initial, final = 0.051613778 1.5828085e-05
  Final line search alpha, max atom move = 1.0000000 1.5828085e-05
  Iterations, force evaluations = 177 354

MPI task timing breakdown:
Section |  min time  |  avg time  |  max time  |%varavg| %total
---------------------------------------------------------------
Pair    | 0.53095    | 1.5005     | 1.9446     |  33.3 | 72.58
Neigh   | 0          | 0          | 0          |   0.0 |  0.00
Comm    | 0.032106   | 0.3393     | 1.0152     |  48.6 | 16.41
Output  | 0          | 0          | 0          |   0.0 |  0.00
Modify  | 2.0524e-05 | 0.0029279  | 0.0063727  |   2.6 |  0.14
Other   |            | 0.2245     |            |       | 10.86

Nlocal:        2776.45 ave        3955 max           0 min
Histogram: 8 4 4 0 4 12 8 0 30 34
Nghost:        3879.07 ave        5424 max         232 min
Histogram: 8 0 8 0 16 0 8 8 16 40
Neighs:        79213.3 ave      115268 max           0 min
Histogram: 8 4 4 0 10 6 8 8 24 32

Total # of neighbors = 8238188
Ave neighs/atom = 28.530422
Neighbor list builds = 0
Dangerous builds = 0
The dot product: 5.07482779048632e-09
Setting atom values ...
  1 settings made for x
  1 settings made for y
  1 settings made for z
Setting up cg style minimization ...
  Unit style    : metal
  Current step  : 4349
Per MPI rank memory allocation (min/avg/max) = 5.441 | 5.816 | 6.074 Mbytes
Step PotEng KinEng TotEng v_fx v_fy v_fz 
    4349   -1152449.3            0   -1152449.3 -0.0031735562 -0.0050684246 0.0090263648 
    4547   -1152449.3            0   -1152449.3 6.1568714e-06 -1.3388165e-05 2.2639589e-05 
Loop time of 2.29898 on 104 procs for 198 steps with 288751 atoms

99.9% CPU use with 104 MPI tasks x 1 OpenMP threads

Minimization stats:
  Stopping criterion = energy tolerance
  Energy initial, next-to-last, final = 
     -1152449.30956072  -1152449.31041785  -1152449.31041785
  Force two-norm initial, final = 0.12270383 8.3192029e-05
  Force max component initial, final = 0.051445971 2.2639589e-05
  Final line search alpha, max atom move = 1.0000000 2.2639589e-05
  Iterations, force evaluations = 198 396

MPI task timing breakdown:
Section |  min time  |  avg time  |  max time  |%varavg| %total
---------------------------------------------------------------
Pair    | 0.59713    | 1.6606     | 2.1641     |  34.8 | 72.23
Neigh   | 0          | 0          | 0          |   0.0 |  0.00
Comm    | 0.042525   | 0.37416    | 1.1206     |  51.3 | 16.27
Output  | 0          | 0          | 0          |   0.0 |  0.00
Modify  | 2.33e-05   | 0.0032656  | 0.0070779  |   2.7 |  0.14
Other   |            | 0.261      |            |       | 11.35

Nlocal:        2776.45 ave        3951 max           0 min
Histogram: 8 4 4 0 4 12 8 0 30 34
Nghost:        3879.07 ave        5424 max         232 min
Histogram: 8 0 8 0 16 0 8 8 16 40
Neighs:        79213.4 ave      115132 max           0 min
Histogram: 8 4 4 0 10 6 8 8 24 32

Total # of neighbors = 8238189
Ave neighs/atom = 28.530426
Neighbor list builds = 0
Dangerous builds = 0
The dot product: 5.38361845923295e-09
Setting atom values ...
  1 settings made for x
  1 settings made for y
  1 settings made for z
Setting up cg style minimization ...
  Unit style    : metal
  Current step  : 4547
Per MPI rank memory allocation (min/avg/max) = 5.441 | 5.816 | 6.074 Mbytes
Step PotEng KinEng TotEng v_fx v_fy v_fz 
    4547   -1152449.3            0   -1152449.3 -0.0051735068 -0.0045266635 0.0082668393 
    4717   -1152449.3            0   -1152449.3 3.2461331e-05 3.9212967e-05 -7.0582035e-05 
Loop time of 1.99323 on 104 procs for 170 steps with 288751 atoms

99.9% CPU use with 104 MPI tasks x 1 OpenMP threads

Minimization stats:
  Stopping criterion = energy tolerance
  Energy initial, next-to-last, final = 
     -1152449.29801073  -1152449.29887389  -1152449.29887389
  Force two-norm initial, final = 0.12337019 0.00020963357
  Force max component initial, final = 0.051268504 7.0582035e-05
  Final line search alpha, max atom move = 1.0000000 7.0582035e-05
  Iterations, force evaluations = 170 340

MPI task timing breakdown:
Section |  min time  |  avg time  |  max time  |%varavg| %total
---------------------------------------------------------------
Pair    | 0.52038    | 1.4405     | 1.8551     |  32.4 | 72.27
Neigh   | 0          | 0          | 0          |   0.0 |  0.00
Comm    | 0.029413   | 0.32811    | 0.97662    |  47.3 | 16.46
Output  | 0          | 0          | 0          |   0.0 |  0.00
Modify  | 1.9602e-05 | 0.0028078  | 0.0061049  |   2.5 |  0.14
Other   |            | 0.2218     |            |       | 11.13

Nlocal:        2776.45 ave        3949 max           0 min
Histogram: 8 4 4 0 4 12 8 0 28 36
Nghost:        3879.14 ave        5425 max         232 min
Histogram: 8 0 8 0 16 0 8 8 16 40
Neighs:        79213.4 ave      115074 max           0 min
Histogram: 8 4 4 0 10 6 8 8 24 32

Total # of neighbors = 8238189
Ave neighs/atom = 28.530426
Neighbor list builds = 0
Dangerous builds = 0
The dot product: -3.21249264006611e-08
Setting atom values ...
  1 settings made for x
  1 settings made for y
  1 settings made for z
Setting up cg style minimization ...
  Unit style    : metal
  Current step  : 4717
Per MPI rank memory allocation (min/avg/max) = 5.441 | 5.816 | 6.074 Mbytes
Step PotEng KinEng TotEng v_fx v_fy v_fz 
    4717   -1152449.3            0   -1152449.3 -0.0074704182 -0.0042502097 0.0079973551 
    4972   -1152449.3            0   -1152449.3 1.7792412e-07 5.6978244e-07 -1.0024246e-06 
Loop time of 2.9919 on 104 procs for 255 steps with 288751 atoms

99.9% CPU use with 104 MPI tasks x 1 OpenMP threads

Minimization stats:
  Stopping criterion = energy tolerance
  Energy initial, next-to-last, final = 
     -1152449.28495352  -1152449.28581873  -1152449.28581873
  Force two-norm initial, final = 0.12400673 4.6724711e-06
  Force max component initial, final = 0.051161732 1.0024246e-06
  Final line search alpha, max atom move = 1.0000000 1.0024246e-06
  Iterations, force evaluations = 255 510

MPI task timing breakdown:
Section |  min time  |  avg time  |  max time  |%varavg| %total
---------------------------------------------------------------
Pair    | 0.77051    | 2.1499     | 2.7982     |  39.8 | 71.86
Neigh   | 0          | 0          | 0          |   0.0 |  0.00
Comm    | 0.045694   | 0.48702    | 1.4506     |  58.0 | 16.28
Output  | 0          | 0          | 0          |   0.0 |  0.00
Modify  | 2.9591e-05 | 0.0042198  | 0.0091268  |   3.1 |  0.14
Other   |            | 0.3507     |            |       | 11.72

Nlocal:        2776.45 ave        3945 max           0 min
Histogram: 8 4 4 0 4 12 8 0 28 36
Nghost:        3879.14 ave        5425 max         232 min
Histogram: 8 0 8 0 16 0 8 8 16 40
Neighs:        79213.3 ave      114926 max           0 min
Histogram: 8 4 4 0 10 6 8 8 22 34

Total # of neighbors = 8238187
Ave neighs/atom = 28.530419
Neighbor list builds = 0
Dangerous builds = 0
The dot product: -4.3631930520594e-10
Setting atom values ...
  1 settings made for x
  1 settings made for y
  1 settings made for z
Setting up cg style minimization ...
  Unit style    : metal
  Current step  : 4972
Per MPI rank memory allocation (min/avg/max) = 5.441 | 5.816 | 6.074 Mbytes
Step PotEng KinEng TotEng v_fx v_fy v_fz 
    4972   -1152449.3            0   -1152449.3  -0.01005237 -0.0045356229 0.0087379057 
    5000   -1152449.3            0   -1152449.3 -0.00012822251 -7.8690973e-05 0.00014760862 
    5160   -1152449.3            0   -1152449.3 -2.3138133e-05 -6.7221004e-07 3.1654038e-06 
Loop time of 2.173 on 104 procs for 188 steps with 288751 atoms

99.9% CPU use with 104 MPI tasks x 1 OpenMP threads

Minimization stats:
  Stopping criterion = energy tolerance
  Energy initial, next-to-last, final = 
     -1152449.27038701  -1152449.27124706  -1152449.27124706
  Force two-norm initial, final = 0.1245821 0.00010268939
  Force max component initial, final = 0.050930314 2.7709695e-05
  Final line search alpha, max atom move = 1.0000000 2.7709695e-05
  Iterations, force evaluations = 188 376

MPI task timing breakdown:
Section |  min time  |  avg time  |  max time  |%varavg| %total
---------------------------------------------------------------
Pair    | 0.56573    | 1.5878     | 2.0472     |  34.1 | 73.07
Neigh   | 0          | 0          | 0          |   0.0 |  0.00
Comm    | 0.035483   | 0.35662    | 1.0847     |  50.6 | 16.41
Output  | 0.00015802 | 0.00016191 | 0.00025684 |   0.0 |  0.01
Modify  | 2.3485e-05 | 0.0031072  | 0.0067488  |   2.6 |  0.14
Other   |            | 0.2253     |            |       | 10.37

Nlocal:        2776.45 ave        3942 max           0 min
Histogram: 8 4 4 0 4 12 8 0 28 36
Nghost:        3879.14 ave        5425 max         232 min
Histogram: 8 0 8 0 16 0 8 8 16 40
Neighs:        79213.3 ave      114835 max           0 min
Histogram: 8 4 4 0 10 6 8 8 22 34

Total # of neighbors = 8238186
Ave neighs/atom = 28.530415
Neighbor list builds = 0
Dangerous builds = 0
The dot product: 1.7222033934533e-08
Setting atom values ...
  1 settings made for x
  1 settings made for y
  1 settings made for z
Setting up cg style minimization ...
  Unit style    : metal
  Current step  : 5160
Per MPI rank memory allocation (min/avg/max) = 5.441 | 5.816 | 6.074 Mbytes
Step PotEng KinEng TotEng v_fx v_fy v_fz 
    5160   -1152449.3            0   -1152449.3 -0.012755662 -0.0055620934   0.01080214 
    5341   -1152449.3            0   -1152449.3 -1.8436161e-05 1.2960826e-05 -2.089327e-05 
Loop time of 2.09437 on 104 procs for 181 steps with 288751 atoms

99.9% CPU use with 104 MPI tasks x 1 OpenMP threads

Minimization stats:
  Stopping criterion = energy tolerance
  Energy initial, next-to-last, final = 
     -1152449.25433867  -1152449.25518549  -1152449.25518549
  Force two-norm initial, final = 0.12517248 0.00012265792
  Force max component initial, final = 0.050790143 2.0893270e-05
  Final line search alpha, max atom move = 1.0000000 2.0893270e-05
  Iterations, force evaluations = 181 362

MPI task timing breakdown:
Section |  min time  |  avg time  |  max time  |%varavg| %total
---------------------------------------------------------------
Pair    | 0.54603    | 1.5222     | 1.9699     |  33.3 | 72.68
Neigh   | 0          | 0          | 0          |   0.0 |  0.00
Comm    | 0.033076   | 0.34182    | 1.0326     |  49.7 | 16.32
Output  | 0          | 0          | 0          |   0.0 |  0.00
Modify  | 2.1094e-05 | 0.0029929  | 0.0065029  |   2.6 |  0.14
Other   |            | 0.2273     |            |       | 10.85

Nlocal:        2776.45 ave        3934 max           0 min
Histogram: 8 4 4 0 4 12 8 0 28 36
Nghost:        3879.14 ave        5425 max         232 min
Histogram: 8 0 8 0 16 0 8 8 16 40
Neighs:        79213.3 ave      114573 max           0 min
Histogram: 8 4 4 0 8 8 8 8 20 36

Total # of neighbors = 8238187
Ave neighs/atom = 28.530419
Neighbor list builds = 0
Dangerous builds = 0
The dot product: -5.34858331431648e-09
Setting atom values ...
  1 settings made for x
  1 settings made for y
  1 settings made for z
Setting up cg style minimization ...
  Unit style    : metal
  Current step  : 5341
Per MPI rank memory allocation (min/avg/max) = 5.441 | 5.816 | 6.074 Mbytes
Step PotEng KinEng TotEng v_fx v_fy v_fz 
    5341   -1152449.2            0   -1152449.2 -0.015678507 -0.0077193583   0.01490711 
    5520   -1152449.2            0   -1152449.2 -1.545626e-05 1.467061e-05 -2.4167368e-05 
Loop time of 2.05771 on 104 procs for 179 steps with 288751 atoms

99.9% CPU use with 104 MPI tasks x 1 OpenMP threads

Minimization stats:
  Stopping criterion = energy tolerance
  Energy initial, next-to-last, final = 
     -1152449.23689593  -1152449.23773235  -1152449.23773235
  Force two-norm initial, final = 0.12645684 0.00012291572
  Force max component initial, final = 0.050691525 2.4167368e-05
  Final line search alpha, max atom move = 1.0000000 2.4167368e-05
  Iterations, force evaluations = 179 358

MPI task timing breakdown:
Section |  min time  |  avg time  |  max time  |%varavg| %total
---------------------------------------------------------------
Pair    | 0.53608    | 1.5079     | 1.9413     |  33.3 | 73.28
Neigh   | 0          | 0          | 0          |   0.0 |  0.00
Comm    | 0.031677   | 0.3351     | 1.0167     |  49.5 | 16.28
Output  | 0          | 0          | 0          |   0.0 |  0.00
Modify  | 2.0769e-05 | 0.002953   | 0.0064239  |   2.6 |  0.14
Other   |            | 0.2118     |            |       | 10.29

Nlocal:        2776.45 ave        3930 max           0 min
Histogram: 8 4 4 0 4 12 8 0 26 38
Nghost:        3879.12 ave        5425 max         232 min
Histogram: 8 0 8 0 16 0 8 8 16 40
Neighs:        79213.3 ave      114476 max           0 min
Histogram: 8 4 4 0 8 8 8 8 20 36

Total # of neighbors = 8238185
Ave neighs/atom = 28.530412
Neighbor list builds = 0
Dangerous builds = 0
The dot product: -3.44034580188809e-08
Setting atom values ...
  1 settings made for x
  1 settings made for y
  1 settings made for z
Setting up cg style minimization ...
  Unit style    : metal
  Current step  : 5520
Per MPI rank memory allocation (min/avg/max) = 5.441 | 5.816 | 6.074 Mbytes
Step PotEng KinEng TotEng v_fx v_fy v_fz 
    5520   -1152449.2            0   -1152449.2 -0.018890146 -0.011856035  0.022639288 
    5781   -1152449.2            0   -1152449.2 5.4252312e-06 7.7025996e-06 -1.4049428e-05 
Loop time of 3.00186 on 104 procs for 261 steps with 288751 atoms

99.9% CPU use with 104 MPI tasks x 1 OpenMP threads

Minimization stats:
  Stopping criterion = energy tolerance
  Energy initial, next-to-last, final = 
     -1152449.21830291  -1152449.24984821  -1152449.24984821
  Force two-norm initial, final = 0.13076391 6.4817006e-05
  Force max component initial, final = 0.050891867 1.7512362e-05
  Final line search alpha, max atom move = 1.0000000 1.7512362e-05
  Iterations, force evaluations = 261 520

MPI task timing breakdown:
Section |  min time  |  avg time  |  max time  |%varavg| %total
---------------------------------------------------------------
Pair    | 0.78294    | 2.1761     | 2.8197     |  39.8 | 72.49
Neigh   | 1.0531e-05 | 0.0029593  | 0.0042679  |   2.2 |  0.10
Comm    | 0.049029   | 0.48757    | 1.4624     |  58.9 | 16.24
Output  | 0          | 0          | 0          |   0.0 |  0.00
Modify  | 3.0424e-05 | 0.0042864  | 0.00929    |   3.1 |  0.14
Other   |            | 0.3309     |            |       | 11.02

Nlocal:        2776.45 ave        3930 max           0 min
Histogram: 8 4 4 0 4 12 8 0 26 38
Nghost:        3879.11 ave        5425 max         232 min
Histogram: 8 0 8 0 16 0 8 8 16 40
Neighs:        79213.3 ave      114471 max           0 min
Histogram: 8 4 4 0 8 8 8 8 20 36

Total # of neighbors = 8238182
Ave neighs/atom = 28.530402
Neighbor list builds = 1
Dangerous builds = 0
The dot product: -1.35530491568805e-06
Setting atom values ...
  1 settings made for x
  1 settings made for y
  1 settings made for z
Setting up cg style minimization ...
  Unit style    : metal
  Current step  : 5781
Per MPI rank memory allocation (min/avg/max) = 5.441 | 5.816 | 6.074 Mbytes
Step PotEng KinEng TotEng v_fx v_fy v_fz 
    5781   -1152449.2            0   -1152449.2 -0.044316813 -0.0072137871  0.023900742 
    5999   -1152449.2            0   -1152449.2 -1.4746192e-06 -1.0243437e-05 2.5075298e-05 
Loop time of 2.54328 on 104 procs for 218 steps with 288751 atoms

99.9% CPU use with 104 MPI tasks x 1 OpenMP threads

Minimization stats:
  Stopping criterion = energy tolerance
  Energy initial, next-to-last, final = 
     -1152449.24548023   -1152449.2494316   -1152449.2494316
  Force two-norm initial, final = 0.15133093 0.00015024055
  Force max component initial, final = 0.066563764 4.0798780e-05
  Final line search alpha, max atom move = 1.0000000 4.0798780e-05
  Iterations, force evaluations = 218 436

MPI task timing breakdown:
Section |  min time  |  avg time  |  max time  |%varavg| %total
---------------------------------------------------------------
Pair    | 0.65427    | 1.8452     | 2.403      |  36.9 | 72.55
Neigh   | 0          | 0          | 0          |   0.0 |  0.00
Comm    | 0.03839    | 0.41403    | 1.2456     |  54.1 | 16.28
Output  | 0          | 0          | 0          |   0.0 |  0.00
Modify  | 2.5813e-05 | 0.0035983  | 0.0078125  |   2.8 |  0.14
Other   |            | 0.2804     |            |       | 11.03

Nlocal:        2776.45 ave        3958 max           0 min
Histogram: 8 4 4 0 4 12 8 2 28 34
Nghost:        3879.03 ave        5424 max         232 min
Histogram: 8 0 8 0 16 0 8 8 16 40
Neighs:        79213.3 ave      115359 max           0 min
Histogram: 8 4 4 0 10 6 8 8 24 32

Total # of neighbors = 8238183
Ave neighs/atom = 28.530405
Neighbor list builds = 0
Dangerous builds = 0
The dot product: 6.99759004946112e-07
Setting atom values ...
  1 settings made for x
  1 settings made for y
  1 settings made for z
Setting up cg style minimization ...
  Unit style    : metal
  Current step  : 5999
Per MPI rank memory allocation (min/avg/max) = 5.441 | 5.816 | 6.074 Mbytes
Step PotEng KinEng TotEng v_fx v_fy v_fz 
    5999   -1152449.3            0   -1152449.3 -0.039532261 0.0064219524 -0.0019933354 
    6000   -1152449.3            0   -1152449.3  0.011209129 -0.010439867  0.023691501 
    6153   -1152449.3            0   -1152449.3 1.1513992e-05 2.1405746e-05 -6.1873807e-05 
Loop time of 1.79247 on 104 procs for 154 steps with 288751 atoms

99.9% CPU use with 104 MPI tasks x 1 OpenMP threads

Minimization stats:
  Stopping criterion = energy tolerance
  Energy initial, next-to-last, final = 
      -1152449.2506045  -1152449.25241152  -1152449.25241152
  Force two-norm initial, final = 0.1532223 0.00020688734
  Force max component initial, final = 0.068342778 6.1873807e-05
  Final line search alpha, max atom move = 1.0000000 6.1873807e-05
  Iterations, force evaluations = 154 308

MPI task timing breakdown:
Section |  min time  |  avg time  |  max time  |%varavg| %total
---------------------------------------------------------------
Pair    | 0.46103    | 1.2928     | 1.6929     |  30.9 | 72.13
Neigh   | 0          | 0          | 0          |   0.0 |  0.00
Comm    | 0.026837   | 0.29234    | 0.87183    |  45.0 | 16.31
Output  | 8.2556e-05 | 8.7441e-05 | 0.00014648 |   0.0 |  0.00
Modify  | 1.7791e-05 | 0.0025505  | 0.0055226  |   2.4 |  0.14
Other   |            | 0.2047     |            |       | 11.42

Nlocal:        2776.45 ave        3961 max           0 min
Histogram: 8 4 4 0 6 10 8 2 28 34
Nghost:        3879.03 ave        5424 max         232 min
Histogram: 8 0 8 0 16 0 8 8 16 40
Neighs:        79213.3 ave      115468 max           0 min
Histogram: 8 4 4 0 10 6 8 8 24 32

Total # of neighbors = 8238186
Ave neighs/atom = 28.530415
Neighbor list builds = 0
Dangerous builds = 0
The dot product: -5.19141940604337e-07
Setting atom values ...
  1 settings made for x
  1 settings made for y
  1 settings made for z
Setting up cg style minimization ...
  Unit style    : metal
  Current step  : 6153
Per MPI rank memory allocation (min/avg/max) = 5.441 | 5.816 | 6.074 Mbytes
Step PotEng KinEng TotEng v_fx v_fy v_fz 
    6153   -1152449.3            0   -1152449.3 -0.050408466  0.012694373 -0.013493115 
    6310   -1152449.3            0   -1152449.3 -3.5245591e-06 -2.8399271e-06 9.3566023e-06 
Loop time of 1.83442 on 104 procs for 157 steps with 288751 atoms

99.9% CPU use with 104 MPI tasks x 1 OpenMP threads

Minimization stats:
  Stopping criterion = energy tolerance
  Energy initial, next-to-last, final = 
     -1152449.25447419   -1152449.2556708   -1152449.2556708
  Force two-norm initial, final = 0.15243635 4.4574031e-05
  Force max component initial, final = 0.068607217 9.3566023e-06
  Final line search alpha, max atom move = 1.0000000 9.3566023e-06
  Iterations, force evaluations = 157 314

MPI task timing breakdown:
Section |  min time  |  avg time  |  max time  |%varavg| %total
---------------------------------------------------------------
Pair    | 0.47166    | 1.3291     | 1.7268     |  31.3 | 72.46
Neigh   | 0          | 0          | 0          |   0.0 |  0.00
Comm    | 0.028017   | 0.29755    | 0.89943    |  46.3 | 16.22
Output  | 0          | 0          | 0          |   0.0 |  0.00
Modify  | 1.8591e-05 | 0.0025948  | 0.005662   |   2.4 |  0.14
Other   |            | 0.2051     |            |       | 11.18

Nlocal:        2776.45 ave        3961 max           0 min
Histogram: 8 4 4 0 6 10 8 2 28 34
Nghost:        3879.03 ave        5424 max         232 min
Histogram: 8 0 8 0 16 0 8 8 16 40
Neighs:        79213.3 ave      115468 max           0 min
Histogram: 8 4 4 0 10 6 8 8 24 32

Total # of neighbors = 8238182
Ave neighs/atom = 28.530402
Neighbor list builds = 0
Dangerous builds = 0
The dot product: 5.08252498338434e-08
Setting atom values ...
  1 settings made for x
  1 settings made for y
  1 settings made for z
Setting up cg style minimization ...
  Unit style    : metal
  Current step  : 6310
Per MPI rank memory allocation (min/avg/max) = 5.441 | 5.816 | 6.074 Mbytes
Step PotEng KinEng TotEng v_fx v_fy v_fz 
    6310   -1152449.3            0   -1152449.3 -0.057344767  0.017186421  -0.02080215 
    6571   -1152449.3            0   -1152449.3 -7.199256e-07 -5.0573916e-06 1.4418954e-05 
Loop time of 3.02696 on 104 procs for 261 steps with 288751 atoms

99.9% CPU use with 104 MPI tasks x 1 OpenMP threads

Minimization stats:
  Stopping criterion = energy tolerance
  Energy initial, next-to-last, final = 
     -1152449.25708277  -1152449.29834956  -1152449.29834956
  Force two-norm initial, final = 0.15804753 4.9647623e-05
  Force max component initial, final = 0.067635499 1.4418954e-05
  Final line search alpha, max atom move = 1.0000000 1.4418954e-05
  Iterations, force evaluations = 261 521

MPI task timing breakdown:
Section |  min time  |  avg time  |  max time  |%varavg| %total
---------------------------------------------------------------
Pair    | 0.7856     | 2.1891     | 2.8473     |  40.0 | 72.32
Neigh   | 1.0438e-05 | 0.0029567  | 0.0043199  |   2.2 |  0.10
Comm    | 0.04714    | 0.49163    | 1.4709     |  58.9 | 16.24
Output  | 0          | 0          | 0          |   0.0 |  0.00
Modify  | 3.0084e-05 | 0.0042993  | 0.0092978  |   3.1 |  0.14
Other   |            | 0.339      |            |       | 11.20

Nlocal:        2776.45 ave        3961 max           0 min
Histogram: 8 4 4 0 6 10 8 2 28 34
Nghost:        3879.03 ave        5424 max         232 min
Histogram: 8 0 8 0 16 0 8 8 16 40
Neighs:        79213.4 ave      115466 max           0 min
Histogram: 8 4 4 0 10 6 8 8 24 32

Total # of neighbors = 8238193
Ave neighs/atom = 28.530440
Neighbor list builds = 1
Dangerous builds = 0
The dot product: 4.05172800502584e-07
Setting atom values ...
  1 settings made for x
  1 settings made for y
  1 settings made for z
Setting up cg style minimization ...
  Unit style    : metal
  Current step  : 6571
Per MPI rank memory allocation (min/avg/max) = 5.441 | 5.816 | 6.074 Mbytes
Step PotEng KinEng TotEng v_fx v_fy v_fz 
    6571   -1152449.3            0   -1152449.3  0.063755161 -0.0040431712 -0.058410842 
    6786   -1152449.3            0   -1152449.3 -2.1282869e-06 -5.6142963e-06 1.9520243e-05 
Loop time of 2.49715 on 104 procs for 215 steps with 288751 atoms

99.9% CPU use with 104 MPI tasks x 1 OpenMP threads

Minimization stats:
  Stopping criterion = energy tolerance
  Energy initial, next-to-last, final = 
     -1152449.30956761  -1152449.31181559  -1152449.31181559
  Force two-norm initial, final = 0.16193449 7.1916630e-05
  Force max component initial, final = 0.063755161 1.9520243e-05
  Final line search alpha, max atom move = 1.0000000 1.9520243e-05
  Iterations, force evaluations = 215 430

MPI task timing breakdown:
Section |  min time  |  avg time  |  max time  |%varavg| %total
---------------------------------------------------------------
Pair    | 0.6471     | 1.8139     | 2.3473     |  36.5 | 72.64
Neigh   | 0          | 0          | 0          |   0.0 |  0.00
Comm    | 0.037524   | 0.40966    | 1.2227     |  53.4 | 16.41
Output  | 0          | 0          | 0          |   0.0 |  0.00
Modify  | 2.5757e-05 | 0.0035528  | 0.0076765  |   2.8 |  0.14
Other   |            | 0.27       |            |       | 10.81

Nlocal:        2776.45 ave        3960 max           0 min
Histogram: 8 4 4 0 4 12 8 4 26 34
Nghost:        3879.03 ave        5424 max         232 min
Histogram: 8 0 8 0 16 0 8 8 16 40
Neighs:        79213.4 ave      115435 max           0 min
Histogram: 8 4 4 0 10 6 8 8 24 32

Total # of neighbors = 8238197
Ave neighs/atom = 28.530454
Neighbor list builds = 0
Dangerous builds = 0
The dot product: -1.37625613946443e-07
Setting atom values ...
  1 settings made for x
  1 settings made for y
  1 settings made for z
Setting up cg style minimization ...
  Unit style    : metal
  Current step  : 6786
Per MPI rank memory allocation (min/avg/max) = 5.441 | 5.816 | 6.074 Mbytes
Step PotEng KinEng TotEng v_fx v_fy v_fz 
    6786   -1152449.3            0   -1152449.3 -0.064373469  0.030304793 -0.027174321 
    6964   -1152449.3            0   -1152449.3 2.8271737e-06 3.150724e-06 -1.2237376e-05 
Loop time of 2.06564 on 104 procs for 178 steps with 288751 atoms

99.9% CPU use with 104 MPI tasks x 1 OpenMP threads

Minimization stats:
  Stopping criterion = energy tolerance
  Energy initial, next-to-last, final = 
     -1152449.32106837  -1152449.32231262  -1152449.32231262
  Force two-norm initial, final = 0.16163433 0.00012636582
  Force max component initial, final = 0.064373469 1.2237376e-05
  Final line search alpha, max atom move = 1.0000000 1.2237376e-05
  Iterations, force evaluations = 178 356

MPI task timing breakdown:
Section |  min time  |  avg time  |  max time  |%varavg| %total
---------------------------------------------------------------
Pair    | 0.53306    | 1.496      | 1.949      |  33.2 | 72.42
Neigh   | 0          | 0          | 0          |   0.0 |  0.00
Comm    | 0.031696   | 0.33642    | 1.0089     |  48.9 | 16.29
Output  | 0          | 0          | 0          |   0.0 |  0.00
Modify  | 2.057e-05  | 0.0029429  | 0.0063692  |   2.6 |  0.14
Other   |            | 0.2302     |            |       | 11.15

Nlocal:        2776.45 ave        3961 max           0 min
Histogram: 8 4 4 0 6 10 8 4 26 34
Nghost:        3879.07 ave        5424 max         232 min
Histogram: 8 0 8 0 16 0 8 8 16 40
Neighs:        79213.4 ave      115470 max           0 min
Histogram: 8 4 4 0 10 6 8 8 24 32

Total # of neighbors = 8238195
Ave neighs/atom = 28.530447
Neighbor list builds = 0
Dangerous builds = 0
The dot product: 2.83712499650524e-09
Setting atom values ...
  1 settings made for x
  1 settings made for y
  1 settings made for z
Setting up cg style minimization ...
  Unit style    : metal
  Current step  : 6964
Per MPI rank memory allocation (min/avg/max) = 5.441 | 5.816 | 6.074 Mbytes
Step PotEng KinEng TotEng v_fx v_fy v_fz 
    6964   -1152449.3            0   -1152449.3 -0.047038215  0.026552583 -0.031399835 
    7000   -1152449.3            0   -1152449.3 0.00023810142 5.9598709e-06 -0.00025839649 
    7099   -1152449.3            0   -1152449.3 2.4061074e-05 -2.198436e-05 4.1043122e-05 
Loop time of 1.61294 on 104 procs for 135 steps with 288751 atoms

99.9% CPU use with 104 MPI tasks x 1 OpenMP threads

Minimization stats:
  Stopping criterion = energy tolerance
  Energy initial, next-to-last, final = 
     -1152449.32999432   -1152449.3311804   -1152449.3311804
  Force two-norm initial, final = 0.15665411 0.00028623729
  Force max component initial, final = 0.056540359 7.5245667e-05
  Final line search alpha, max atom move = 1.0000000 7.5245667e-05
  Iterations, force evaluations = 135 270

MPI task timing breakdown:
Section |  min time  |  avg time  |  max time  |%varavg| %total
---------------------------------------------------------------
Pair    | 0.41422    | 1.1518     | 1.4954     |  29.0 | 71.41
Neigh   | 0          | 0          | 0          |   0.0 |  0.00
Comm    | 0.023369   | 0.263      | 0.77562    |  41.7 | 16.31
Output  | 0.00011015 | 0.00011392 | 0.00022887 |   0.0 |  0.01
Modify  | 1.6e-05    | 0.0022389  | 0.0049267  |   2.2 |  0.14
Other   |            | 0.1958     |            |       | 12.14

Nlocal:        2776.45 ave        3961 max           0 min
Histogram: 8 4 4 0 6 10 8 4 26 34
Nghost:        3879.05 ave        5424 max         232 min
Histogram: 8 0 8 0 16 0 8 8 16 40
Neighs:        79213.4 ave      115469 max           0 min
Histogram: 8 4 4 0 10 6 8 8 24 32

Total # of neighbors = 8238197
Ave neighs/atom = 28.530454
Neighbor list builds = 0
Dangerous builds = 0
The dot product: -1.56009084891385e-07
Setting atom values ...
  1 settings made for x
  1 settings made for y
  1 settings made for z
Setting up cg style minimization ...
  Unit style    : metal
  Current step  : 7099
Per MPI rank memory allocation (min/avg/max) = 5.441 | 5.816 | 6.074 Mbytes
Step PotEng KinEng TotEng v_fx v_fy v_fz 
    7099   -1152449.3            0   -1152449.3 -0.051100114  0.028035179 -0.030855495 
    7301   -1152449.3            0   -1152449.3 4.2012586e-06 1.2560798e-06 -7.9573006e-06 
[...]
  1 settings made for x
  1 settings made for y
  1 settings made for z
Setting up cg style minimization ...
  Unit style    : metal
  Current step  : 4108
Per MPI rank memory allocation (min/avg/max) = 5.441 | 5.816 | 6.074 Mbytes
Step PotEng KinEng TotEng v_fx v_fy v_fz 
    4108   -1152449.3            0   -1152449.3 -0.00041687406 -0.0064225096  0.011113837 
    4290   -1152449.3            0   -1152449.3 -9.5236534e-06 -8.2026995e-06 1.493842e-05 
Loop time of 2.14011 on 104 procs for 182 steps with 288751 atoms

99.9% CPU use with 104 MPI tasks x 1 OpenMP threads

Minimization stats:
  Stopping criterion = energy tolerance
  Energy initial, next-to-last, final = 
     -1152449.32649645  -1152449.32734316  -1152449.32734316
  Force two-norm initial, final = 0.12190527 0.00011434319
  Force max component initial, final = 0.051748328 1.4938420e-05
  Final line search alpha, max atom move = 1.0000000 1.4938420e-05
  Iterations, force evaluations = 182 364

MPI task timing breakdown:
Section |  min time  |  avg time  |  max time  |%varavg| %total
---------------------------------------------------------------
Pair    | 0.55063    | 1.5372     | 1.9871     |  33.6 | 71.83
Neigh   | 0          | 0          | 0          |   0.0 |  0.00
Comm    | 0.037645   | 0.34861    | 1.0511     |  48.9 | 16.29
Output  | 0          | 0          | 0          |   0.0 |  0.00
Modify  | 2.2834e-05 | 0.0030094  | 0.0064581  |   2.6 |  0.14
Other   |            | 0.2512     |            |       | 11.74

Nlocal:        2776.45 ave        3956 max           0 min
Histogram: 8 4 4 0 4 12 8 0 30 34
Nghost:        3879.05 ave        5424 max         232 min
Histogram: 8 0 8 0 16 0 8 8 16 40
Neighs:        79213.4 ave      115286 max           0 min
Histogram: 8 4 4 0 10 6 8 8 24 32

Total # of neighbors = 8238190
Ave neighs/atom = 28.530429
Neighbor list builds = 0
Dangerous builds = 0
The dot product: 4.40215699651827e-09
Setting atom values ...
  1 settings made for x
  1 settings made for y
  1 settings made for z
Setting up cg style minimization ...
  Unit style    : metal
  Current step  : 4290
Per MPI rank memory allocation (min/avg/max) = 5.441 | 5.816 | 6.074 Mbytes
Step PotEng KinEng TotEng v_fx v_fy v_fz 
    4290   -1152449.3            0   -1152449.3 -0.0018232619 -0.005625251 0.0098678483 
    4479   -1152449.3            0   -1152449.3 1.8393608e-05 8.6648695e-08 -1.6687249e-06 
Loop time of 2.20261 on 104 procs for 189 steps with 288751 atoms

99.9% CPU use with 104 MPI tasks x 1 OpenMP threads

Minimization stats:
  Stopping criterion = energy tolerance
  Energy initial, next-to-last, final = 
     -1152449.31758101  -1152449.31843262  -1152449.31843262
  Force two-norm initial, final = 0.12226128 9.5809087e-05
  Force max component initial, final = 0.051576285 1.8393608e-05
  Final line search alpha, max atom move = 1.0000000 1.8393608e-05
  Iterations, force evaluations = 189 378

MPI task timing breakdown:
Section |  min time  |  avg time  |  max time  |%varavg| %total
---------------------------------------------------------------
Pair    | 0.57005    | 1.6088     | 2.0723     |  34.3 | 73.04
Neigh   | 0          | 0          | 0          |   0.0 |  0.00
Comm    | 0.035937   | 0.35967    | 1.0995     |  51.3 | 16.33
Output  | 0          | 0          | 0          |   0.0 |  0.00
Modify  | 2.3265e-05 | 0.0031198  | 0.006641   |   2.6 |  0.14
Other   |            | 0.231      |            |       | 10.49

Nlocal:        2776.45 ave        3953 max           0 min
Histogram: 8 4 4 0 4 12 8 0 30 34
Nghost:        3879.07 ave        5424 max         232 min
Histogram: 8 0 8 0 16 0 8 8 16 40
Neighs:        79213.3 ave      115202 max           0 min
Histogram: 8 4 4 0 10 6 8 8 24 32

Total # of neighbors = 8238188
Ave neighs/atom = 28.530422
Neighbor list builds = 0
Dangerous builds = 0
The dot product: -1.39713687424186e-09
Setting atom values ...
  1 settings made for x
  1 settings made for y
  1 settings made for z
Setting up cg style minimization ...
  Unit style    : metal
  Current step  : 4479
Per MPI rank memory allocation (min/avg/max) = 5.441 | 5.816 | 6.074 Mbytes
Step PotEng KinEng TotEng v_fx v_fy v_fz 
    4479   -1152449.3            0   -1152449.3 -0.0035537607 -0.0049242011 0.0088107241 
    4650   -1152449.3            0   -1152449.3 2.5038269e-06 2.0197102e-05 -3.5137628e-05 
Loop time of 1.97703 on 104 procs for 171 steps with 288751 atoms

99.9% CPU use with 104 MPI tasks x 1 OpenMP threads

Minimization stats:
  Stopping criterion = energy tolerance
  Energy initial, next-to-last, final = 
     -1152449.30720018  -1152449.30805875  -1152449.30805875
  Force two-norm initial, final = 0.12283404 0.00018966539
  Force max component initial, final = 0.051424195 3.5137628e-05
  Final line search alpha, max atom move = 1.0000000 3.5137628e-05
  Iterations, force evaluations = 171 342

MPI task timing breakdown:
Section |  min time  |  avg time  |  max time  |%varavg| %total
---------------------------------------------------------------
Pair    | 0.51665    | 1.4408     | 1.8642     |  32.3 | 72.88
Neigh   | 0          | 0          | 0          |   0.0 |  0.00
Comm    | 0.030826   | 0.32246    | 0.97134    |  47.9 | 16.31
Output  | 0          | 0          | 0          |   0.0 |  0.00
Modify  | 2.1199e-05 | 0.0028215  | 0.0060739  |   2.5 |  0.14
Other   |            | 0.211      |            |       | 10.67

Nlocal:        2776.45 ave        3951 max           0 min
Histogram: 8 4 4 0 4 12 8 0 30 34
Nghost:        3879.11 ave        5424 max         232 min
Histogram: 8 0 8 0 16 0 8 8 16 40
Neighs:        79213.3 ave      115132 max           0 min
Histogram: 8 4 4 0 10 6 8 8 24 32

Total # of neighbors = 8238188
Ave neighs/atom = 28.530422
Neighbor list builds = 0
Dangerous builds = 0
The dot product: -1.09363416874212e-08
Setting atom values ...
  1 settings made for x
  1 settings made for y
  1 settings made for z
Setting up cg style minimization ...
  Unit style    : metal
  Current step  : 4650
Per MPI rank memory allocation (min/avg/max) = 5.441 | 5.816 | 6.074 Mbytes
Step PotEng KinEng TotEng v_fx v_fy v_fz 
    4650   -1152449.3            0   -1152449.3 -0.0056510851 -0.0044174547 0.0081210485 
    4832   -1152449.3            0   -1152449.3 -2.8869829e-05 4.7150121e-06 -5.7485711e-06 
Loop time of 2.10993 on 104 procs for 182 steps with 288751 atoms

99.9% CPU use with 104 MPI tasks x 1 OpenMP threads

Minimization stats:
  Stopping criterion = energy tolerance
  Energy initial, next-to-last, final = 
     -1152449.29532681  -1152449.29619093  -1152449.29619093
  Force two-norm initial, final = 0.12350776 0.00011566617
  Force max component initial, final = 0.051262007 2.8869829e-05
  Final line search alpha, max atom move = 1.0000000 2.8869829e-05
  Iterations, force evaluations = 182 364

MPI task timing breakdown:
Section |  min time  |  avg time  |  max time  |%varavg| %total
---------------------------------------------------------------
Pair    | 0.54875    | 1.5445     | 1.9851     |  33.6 | 73.20
Neigh   | 0          | 0          | 0          |   0.0 |  0.00
Comm    | 0.032478   | 0.34495    | 1.0643     |  50.1 | 16.35
Output  | 0          | 0          | 0          |   0.0 |  0.00
Modify  | 2.2186e-05 | 0.003001   | 0.0064228  |   2.6 |  0.14
Other   |            | 0.2175     |            |       | 10.31

Nlocal:        2776.45 ave        3947 max           0 min
Histogram: 8 4 4 0 4 12 8 0 28 36
Nghost:        3879.14 ave        5425 max         232 min
Histogram: 8 0 8 0 16 0 8 8 16 40
Neighs:        79213.4 ave      114994 max           0 min
Histogram: 8 4 4 0 10 6 8 8 24 32

Total # of neighbors = 8238189
Ave neighs/atom = 28.530426
Neighbor list builds = 0
Dangerous builds = 0
The dot product: 7.94727759434484e-09
Setting atom values ...
  1 settings made for x
  1 settings made for y
  1 settings made for z
Setting up cg style minimization ...
  Unit style    : metal
  Current step  : 4832
Per MPI rank memory allocation (min/avg/max) = 5.441 | 5.816 | 6.074 Mbytes
Step PotEng KinEng TotEng v_fx v_fy v_fz 
    4832   -1152449.3            0   -1152449.3 -0.0080660563 -0.0042826218 0.0081081854 
    5000   -1152449.3            0   -1152449.3 5.8893849e-05 -7.9169571e-06 8.7192103e-06 
    5125   -1152449.3            0   -1152449.3 6.5356841e-10 1.171005e-07 -2.030231e-07 
Loop time of 3.37843 on 104 procs for 293 steps with 288751 atoms

99.9% CPU use with 104 MPI tasks x 1 OpenMP threads

Minimization stats:
  Stopping criterion = energy tolerance
  Energy initial, next-to-last, final = 
     -1152449.28194403   -1152449.2828088   -1152449.2828088
  Force two-norm initial, final = 0.12415661 1.0132913e-06
  Force max component initial, final = 0.051078781 3.2477435e-07
  Final line search alpha, max atom move = 1.0000000 3.2477435e-07
  Iterations, force evaluations = 293 586

MPI task timing breakdown:
Section |  min time  |  avg time  |  max time  |%varavg| %total
---------------------------------------------------------------
Pair    | 0.88341    | 2.4633     | 3.1853     |  42.3 | 72.91
Neigh   | 0          | 0          | 0          |   0.0 |  0.00
Comm    | 0.051688   | 0.55261    | 1.6744     |  62.6 | 16.36
Output  | 0.00011037 | 0.00011759 | 0.00033873 |   0.0 |  0.00
Modify  | 3.6e-05    | 0.0048232  | 0.010386   |   3.3 |  0.14
Other   |            | 0.3575     |            |       | 10.58

Nlocal:        2776.45 ave        3944 max           0 min
Histogram: 8 4 4 0 4 12 8 0 28 36
Nghost:        3879.14 ave        5425 max         232 min
Histogram: 8 0 8 0 16 0 8 8 16 40
Neighs:        79213.3 ave      114897 max           0 min
Histogram: 8 4 4 0 10 6 8 8 22 34

Total # of neighbors = 8238186
Ave neighs/atom = 28.530415
Neighbor list builds = 0
Dangerous builds = 0
The dot product: -7.85371580029037e-11
Setting up cg style minimization ...
  Unit style    : metal
  Current step  : 5125
Per MPI rank memory allocation (min/avg/max) = 5.441 | 5.816 | 6.074 Mbytes
Step PotEng KinEng TotEng v_fx v_fy v_fz 
    5125   -1152449.3            0   -1152449.3  0.029990841   0.61191371   0.35303838 
    5455   -1152449.4            0   -1152449.4 -1.6217844e-07 -3.4886862e-07 9.0184421e-07 
Loop time of 3.83137 on 104 procs for 330 steps with 288751 atoms

99.9% CPU use with 104 MPI tasks x 1 OpenMP threads

Minimization stats:
  Stopping criterion = energy tolerance
  Energy initial, next-to-last, final = 
      -1152449.2828088  -1152449.35157347  -1152449.35157347
  Force two-norm initial, final = 0.70708835 3.8451107e-06
  Force max component initial, final = 0.61191371 9.0184421e-07
  Final line search alpha, max atom move = 1.0000000 9.0184421e-07
  Iterations, force evaluations = 330 660

MPI task timing breakdown:
Section |  min time  |  avg time  |  max time  |%varavg| %total
---------------------------------------------------------------
Pair    | 0.99371    | 2.7938     | 3.6062     |  44.9 | 72.92
Neigh   | 1.0223e-05 | 0.0029632  | 0.0043063  |   2.2 |  0.08
Comm    | 0.05899    | 0.625      | 1.8962     |  67.3 | 16.31
Output  | 0          | 0          | 0          |   0.0 |  0.00
Modify  | 3.6577e-05 | 0.0035461  | 0.0091535  |   3.7 |  0.09
Other   |            | 0.4061     |            |       | 10.60

Nlocal:        2776.45 ave        3941 max           0 min
Histogram: 8 4 4 0 4 12 8 0 28 36
Nghost:        3879.14 ave        5425 max         232 min
Histogram: 8 0 8 0 16 0 8 8 16 40
Neighs:        79213.4 ave      114810 max           0 min
Histogram: 8 4 4 0 10 6 8 8 22 34

Total # of neighbors = 8238195
Ave neighs/atom = 28.530447
Neighbor list builds = 1
Dangerous builds = 0
OMP_NUM_THREADS environment is not set. Defaulting to 1 thread. (../comm.cpp:94)
  using 1 OpenMP thread(s) per MPI task
Reading data file ...
  orthogonal box = (-122.39241 -121.13707 -37.090501) to (122.39241 121.13707 37.090501)
  13 by 4 by 2 MPI processor grid
  reading atoms ...
  288751 atoms
  read_data CPU = 0.346 seconds
199981 atoms in group inner
88770 atoms in group outer
1 atoms in group carbon
Neighbor list info ...
  update every 1 steps, delay 0 steps, check yes
  max neighbors/atom: 2000, page size: 100000
  master list distance cutoff = 5.6
  ghost atom cutoff = 5.6
  binsize = 2.8, bins = 88 87 27
  1 neighbor lists, perpetual/occasional/extra = 1 0 0
  (1) pair eam/alloy, perpetual
      attributes: half, newton on
      pair build: half/bin/atomonly/newton
      stencil: half/bin/3d/newton
      bin: standard
Setting up cg style minimization ...
  Unit style    : metal
  Current step  : 0
Per MPI rank memory allocation (min/avg/max) = 5.441 | 5.816 | 6.074 Mbytes
Step v_fx v_fy v_fz PotEng KinEng TotEng 
       0   -26.337995    15.247854   -51.288338     -1152433            0     -1152433 
     165 -4.5265192e-05 4.5207688e-06 4.8263128e-05   -1152449.5            0   -1152449.5 
Loop time of 1.8858 on 104 procs for 165 steps with 288751 atoms

99.9% CPU use with 104 MPI tasks x 1 OpenMP threads

Minimization stats:
  Stopping criterion = energy tolerance
  Energy initial, next-to-last, final = 
     -1152433.01643242  -1152449.45035284  -1152449.45035284
  Force two-norm initial, final = 89.244980 0.00016710947
  Force max component initial, final = 58.383279 4.8263128e-05
  Final line search alpha, max atom move = 1.0000000 4.8263128e-05
  Iterations, force evaluations = 165 322

MPI task timing breakdown:
Section |  min time  |  avg time  |  max time  |%varavg| %total
---------------------------------------------------------------
Pair    | 0.50436    | 1.365      | 1.7577     |  31.1 | 72.38
Neigh   | 5.0528e-05 | 0.014783   | 0.021467   |   5.0 |  0.78
Comm    | 0.029414   | 0.3071     | 0.91537    |  46.2 | 16.28
Output  | 0          | 0          | 0          |   0.0 |  0.00
Modify  | 1.78e-05   | 0.0017288  | 0.00444    |   2.6 |  0.09
Other   |            | 0.1972     |            |       | 10.46

Nlocal:        2776.45 ave        3958 max           0 min
Histogram: 8 4 4 0 4 12 8 2 28 34
Nghost:        3879.03 ave        5424 max         232 min
Histogram: 8 0 8 0 16 0 8 8 16 40
Neighs:        79213.6 ave      115374 max           0 min
Histogram: 8 4 4 0 10 6 8 8 24 32

Total # of neighbors = 8238211
Ave neighs/atom = 28.530502
Neighbor list builds = 5
Dangerous builds = 0
Setting atom values ...
  1 settings made for x
  1 settings made for y
  1 settings made for z
Setting up cg style minimization ...
  Unit style    : metal
  Current step  : 165
Per MPI rank memory allocation (min/avg/max) = 5.441 | 5.816 | 6.074 Mbytes
Step PotEng KinEng TotEng v_fx v_fy v_fz 
     165   -1152449.5            0   -1152449.5 0.0035798169 0.0062245172 -0.0007942826 
     296   -1152449.5            0   -1152449.5  9.78323e-07 9.517047e-07 -5.1872342e-08 
Loop time of 1.54786 on 104 procs for 131 steps with 288751 atoms

99.9% CPU use with 104 MPI tasks x 1 OpenMP threads

Minimization stats:
  Stopping criterion = energy tolerance
  Energy initial, next-to-last, final = 
     -1152449.45007371  -1152449.45025949  -1152449.45025949
  Force two-norm initial, final = 0.062485075 0.00014740889
  Force max component initial, final = 0.028132362 7.2744318e-06
  Final line search alpha, max atom move = 1.0000000 7.2744318e-06
  Iterations, force evaluations = 131 262

MPI task timing breakdown:
Section |  min time  |  avg time  |  max time  |%varavg| %total
---------------------------------------------------------------
Pair    | 0.39323    | 1.1016     | 1.4331     |  28.3 | 71.17
Neigh   | 0          | 0          | 0          |   0.0 |  0.00
Comm    | 0.023136   | 0.251      | 0.76113    |  41.4 | 16.22
Output  | 0          | 0          | 0          |   0.0 |  0.00
Modify  | 1.5267e-05 | 0.0021607  | 0.0046664  |   2.2 |  0.14
Other   |            | 0.1931     |            |       | 12.47

Nlocal:        2776.45 ave        3958 max           0 min
Histogram: 8 4 4 0 4 12 8 2 28 34
Nghost:        3879.03 ave        5424 max         232 min
Histogram: 8 0 8 0 16 0 8 8 16 40
Neighs:        79213.4 ave      115370 max           0 min
Histogram: 8 4 4 0 10 6 8 8 24 32

Total # of neighbors = 8238197
Ave neighs/atom = 28.530454
Neighbor list builds = 0
Dangerous builds = 0
Setting atom values ...
  1 settings made for x
  1 settings made for y
  1 settings made for z
Setting up cg style minimization ...
  Unit style    : metal
  Current step  : 296
Per MPI rank memory allocation (min/avg/max) = 5.441 | 5.816 | 6.074 Mbytes
Step PotEng KinEng TotEng v_fx v_fy v_fz 
     296   -1152449.4            0   -1152449.4   0.01266696  0.026402772 -0.0038926392 
     565   -1152449.4            0   -1152449.4 2.701432e-07 2.9109803e-08 3.9562661e-08 
Loop time of 3.12521 on 104 procs for 269 steps with 288751 atoms

99.9% CPU use with 104 MPI tasks x 1 OpenMP threads

Minimization stats:
  Stopping criterion = energy tolerance
  Energy initial, next-to-last, final = 
      -1152449.4465033   -1152449.4486019   -1152449.4486019
  Force two-norm initial, final = 0.2120565 2.5695315e-06
  Force max component initial, final = 0.09815807 3.4076294e-07
  Final line search alpha, max atom move = 1.0000000 3.4076294e-07
  Iterations, force evaluations = 269 538

MPI task timing breakdown:
Section |  min time  |  avg time  |  max time  |%varavg| %total
---------------------------------------------------------------
Pair    | 0.80502    | 2.26       | 2.9383     |  40.6 | 72.31
Neigh   | 0          | 0          | 0          |   0.0 |  0.00
Comm    | 0.049288   | 0.50567    | 1.515      |  59.7 | 16.18
Output  | 0          | 0          | 0          |   0.0 |  0.00
Modify  | 3.1439e-05 | 0.0044319  | 0.0094797  |   3.1 |  0.14
Other   |            | 0.3551     |            |       | 11.36

Nlocal:        2776.45 ave        3958 max           0 min
Histogram: 8 4 4 0 4 12 8 2 28 34
Nghost:        3879.03 ave        5424 max         232 min
Histogram: 8 0 8 0 16 0 8 8 16 40
Neighs:        79213.4 ave      115370 max           0 min
Histogram: 8 4 4 0 10 6 8 8 24 32

Total # of neighbors = 8238198
Ave neighs/atom = 28.530457
Neighbor list builds = 0
Dangerous builds = 0
The dot product: -6.87532374039215e-12
Setting up cg style minimization ...
  Unit style    : metal
  Current step  : 565
Per MPI rank memory allocation (min/avg/max) = 5.441 | 5.816 | 6.074 Mbytes
Step PotEng KinEng TotEng v_fx v_fy v_fz 
     565   -1152449.4            0   -1152449.4  0.021873112 -0.029331346  -0.12777117 
     775   -1152449.5            0   -1152449.5 -5.5461037e-06 1.6545828e-06 2.0130987e-05 
Loop time of 2.47049 on 104 procs for 210 steps with 288751 atoms

99.9% CPU use with 104 MPI tasks x 1 OpenMP threads

Minimization stats:
  Stopping criterion = energy tolerance
  Energy initial, next-to-last, final = 
      -1152449.4486019  -1152449.45035286  -1152449.45035286
  Force two-norm initial, final = 0.13290686 9.3018464e-05
  Force max component initial, final = 0.12777117 2.0130987e-05
  Final line search alpha, max atom move = 1.0000000 2.0130987e-05
  Iterations, force evaluations = 210 420

MPI task timing breakdown:
Section |  min time  |  avg time  |  max time  |%varavg| %total
---------------------------------------------------------------
Pair    | 0.63487    | 1.7692     | 2.3061     |  35.8 | 71.61
Neigh   | 0          | 0          | 0          |   0.0 |  0.00
Comm    | 0.039895   | 0.40186    | 1.1851     |  51.9 | 16.27
Output  | 0          | 0          | 0          |   0.0 |  0.00
Modify  | 2.3323e-05 | 0.0022468  | 0.0057535  |   3.0 |  0.09
Other   |            | 0.2972     |            |       | 12.03

Nlocal:        2776.45 ave        3958 max           0 min
Histogram: 8 4 4 0 4 12 8 2 28 34
Nghost:        3879.07 ave        5425 max         232 min
Histogram: 8 0 8 0 16 0 8 8 16 40
Neighs:        79213.4 ave      115370 max           0 min
Histogram: 8 4 4 0 10 6 8 8 24 32

Total # of neighbors = 8238197
Ave neighs/atom = 28.530454
Neighbor list builds = 0
Dangerous builds = 0
