LAMMPS (29 Oct 2020)
OMP_NUM_THREADS environment is not set. Defaulting to 1 thread. (../comm.cpp:94)
  using 1 OpenMP thread(s) per MPI task
########
#
########
variable                delta             equal     0.02 # the step size should be larger otherwise the number of
#the energy minimum sites is smaller
variable                iter_tot          equal     150

label                   loop
variable                seed              loop     310 319 #20 simulations
variable                iteration         loop      ${iter_tot} #The maximum ietration number per random direction
variable                iteration         loop      150 
clear
OMP_NUM_THREADS environment is not set. Defaulting to 1 thread. (../comm.cpp:94)
  using 1 OpenMP thread(s) per MPI task
units                   metal
atom_style              atomic
dimension                   3
boundary                p p p
atom_modify             map array sort 0 0.0

read_data               poslmp_carbon.dat
Reading data file ...
  orthogonal box = (-122.39241 -121.13707 -37.090501) to (122.39241 121.13707 37.090501)
  13 by 4 by 2 MPI processor grid
  reading atoms ...
  288751 atoms
  read_data CPU = 0.460 seconds

variable                zmax     equal    zhi
variable                zmin     equal    zlo

region                  inner   cylinder   z  1.16564  0.67298333  100.0  ${zmin}  ${zmax}  units  box
region                  inner   cylinder   z  1.16564  0.67298333  100.0  -37.0905005093422  ${zmax}  units  box
region                  inner   cylinder   z  1.16564  0.67298333  100.0  -37.0905005093422  37.0905005093422  units  box
group                   inner   region     inner
199981 atoms in group inner
group                   outer   subtract   all  inner
88770 atoms in group outer
group                   carbon  type       2
1 atoms in group carbon

pair_style              eam/alloy
pair_coeff              * * FeC-Becquart2013.eam.txt Fe C
neighbor                0.3 bin
neigh_modify            delay 0 check yes every 1

compute                 force     carbon   reduce  sum  fx fy fz
variable                fx    equal    c_force[1]
variable                fy    equal    c_force[2]
variable                fz    equal    c_force[3]

fix                     force    outer    setforce      0.0 0.0 0.0
thermo_style            custom   step     v_fx v_fy v_fz pe ke etotal
min_style               cg
minimize                1.0e-30 1.0e-30 10000 10000
Neighbor list info ...
  update every 1 steps, delay 0 steps, check yes
  max neighbors/atom: 2000, page size: 100000
  master list distance cutoff = 5.6
  ghost atom cutoff = 5.6
  binsize = 2.8, bins = 88 87 27
  1 neighbor lists, perpetual/occasional/extra = 1 0 0
  (1) pair eam/alloy, perpetual
      attributes: half, newton on
      pair build: half/bin/atomonly/newton
      stencil: half/bin/3d/newton
      bin: standard
Per MPI rank memory allocation (min/avg/max) = 5.441 | 5.816 | 6.074 Mbytes
Step v_fx v_fy v_fz PotEng KinEng TotEng 
       0   -26.337995    15.247854   -51.288338     -1152433            0     -1152433 
     165 -4.5265192e-05 4.5207688e-06 4.8263128e-05   -1152449.5            0   -1152449.5 
Loop time of 1.98086 on 104 procs for 165 steps with 288751 atoms

99.7% CPU use with 104 MPI tasks x 1 OpenMP threads

Minimization stats:
  Stopping criterion = energy tolerance
  Energy initial, next-to-last, final = 
     -1152433.01643242  -1152449.45035284  -1152449.45035284
  Force two-norm initial, final = 89.244980 0.00016710947
  Force max component initial, final = 58.383279 4.8263128e-05
  Final line search alpha, max atom move = 1.0000000 4.8263128e-05
  Iterations, force evaluations = 165 322

MPI task timing breakdown:
Section |  min time  |  avg time  |  max time  |%varavg| %total
---------------------------------------------------------------
Pair    | 0.52837    | 1.3808     | 1.7747     |  30.5 | 69.71
Neigh   | 5.6414e-05 | 0.015802   | 0.022666   |   5.2 |  0.80
Comm    | 0.039163   | 0.325      | 0.93799    |  44.8 | 16.41
Output  | 0          | 0          | 0          |   0.0 |  0.00
Modify  | 1.8883e-05 | 0.0017586  | 0.0046491  |   2.6 |  0.09
Other   |            | 0.2575     |            |       | 13.00

Nlocal:        2776.45 ave        3958 max           0 min
Histogram: 8 4 4 0 4 12 8 2 28 34
Nghost:        3879.03 ave        5424 max         232 min
Histogram: 8 0 8 0 16 0 8 8 16 40
Neighs:        79213.6 ave      115374 max           0 min
Histogram: 8 4 4 0 10 6 8 8 24 32

Total # of neighbors = 8238211
Ave neighs/atom = 28.530502
Neighbor list builds = 5
Dangerous builds = 0
#write_data              minimize.dat
#quit

variable                fx_0  equal    ${fx}
variable                fx_0  equal    -4.52651916686697e-05
variable                fy_0  equal    ${fy}
variable                fy_0  equal    4.52076880524954e-06
variable                fz_0  equal    ${fz}
variable                fz_0  equal    4.82631284723922e-05

variable                i     equal    288751

variable                x0    equal    x[v_i]
variable                y0    equal    y[v_i]
variable                z0    equal    z[v_i]

variable                x     equal    x[v_i]+v_delta*random(-1.0,1.0,${seed})
variable                x     equal    x[v_i]+v_delta*random(-1.0,1.0,310)
variable                y     equal    y[v_i]+v_delta*random(-1.0,1.0,${seed})
variable                y     equal    y[v_i]+v_delta*random(-1.0,1.0,310)
variable                z     equal    z[v_i]+v_delta*random(-1.0,1.0,${seed})
variable                z     equal    z[v_i]+v_delta*random(-1.0,1.0,310)
variable                x_0    equal     ${x0}
variable                x_0    equal     -0.0115746914069441
variable                y_0    equal     ${y0}
variable                y_0    equal     2.01217725078165
variable                z_0    equal     ${z0}
variable                z_0    equal     5.18459638636738
variable                x_1    equal     $x
variable                x_1    equal     -0.0187834869544295
variable                y_1    equal     $y
variable                y_1    equal     2.00294621745645
variable                z_1    equal     $z
variable                z_1    equal     5.1874876288715

set                atom        $i    x  ${x_1}  y  ${y_1}  z  ${z_1}
set                atom        288751    x  ${x_1}  y  ${y_1}  z  ${z_1}
set                atom        288751    x  -0.0187834869544295  y  ${y_1}  z  ${z_1}
set                atom        288751    x  -0.0187834869544295  y  2.00294621745645  z  ${z_1}
set                atom        288751    x  -0.0187834869544295  y  2.00294621745645  z  5.1874876288715
Setting atom values ...
  1 settings made for x
  1 settings made for y
  1 settings made for z
variable           vector_x          equal     ${x_1}-${x_0}
variable           vector_x          equal     -0.0187834869544295-${x_0}
variable           vector_x          equal     -0.0187834869544295--0.0115746914069441
variable           vector_y          equal     ${y_1}-${y_0}
variable           vector_y          equal     2.00294621745645-${y_0}
variable           vector_y          equal     2.00294621745645-2.01217725078165
variable           vector_z          equal     ${z_1}-${z_0}
variable           vector_z          equal     5.1874876288715-${z_0}
variable           vector_z          equal     5.1874876288715-5.18459638636738

#dump               1     all   custom   1000   dump_minimize.atom.* id type x y z
#dump_modify        1     element  Fe C
thermo_style       custom   step  pe ke etotal v_fx v_fy v_fz
thermo             1000

fix                hold    carbon   planeforce   ${vector_x}  ${vector_y}  ${vector_z}
fix                hold    carbon   planeforce   -0.0072087955474854  ${vector_y}  ${vector_z}
fix                hold    carbon   planeforce   -0.0072087955474854  -0.00923103332520014  ${vector_z}
fix                hold    carbon   planeforce   -0.0072087955474854  -0.00923103332520014  0.00289124250411987
min_style          cg
minimize           1.0e-30 1.0e-30 10000 10000
Per MPI rank memory allocation (min/avg/max) = 5.441 | 5.816 | 6.074 Mbytes
Step PotEng KinEng TotEng v_fx v_fy v_fz 
     165   -1152449.4            0   -1152449.4   0.01087353 -0.014800136 -0.020142029 
     276   -1152449.5            0   -1152449.5 -1.6909049e-05 2.9982998e-05 5.3568726e-05 
Loop time of 1.33517 on 104 procs for 111 steps with 288751 atoms

99.8% CPU use with 104 MPI tasks x 1 OpenMP threads

Minimization stats:
  Stopping criterion = energy tolerance
  Energy initial, next-to-last, final = 
     -1152449.44955145  -1152449.45008151  -1152449.45008151
  Force two-norm initial, final = 0.10845213 0.00017327849
  Force max component initial, final = 0.048235544 5.3568726e-05
  Final line search alpha, max atom move = 1.0000000 5.3568726e-05
  Iterations, force evaluations = 111 222

MPI task timing breakdown:
Section |  min time  |  avg time  |  max time  |%varavg| %total
---------------------------------------------------------------
Pair    | 0.33812    | 0.94593    | 1.2206     |  26.3 | 70.85
Neigh   | 0          | 0          | 0          |   0.0 |  0.00
Comm    | 0.022908   | 0.21676    | 0.64073    |  37.9 | 16.23
Output  | 0          | 0          | 0          |   0.0 |  0.00
Modify  | 1.3262e-05 | 0.0018396  | 0.0040069  |   2.0 |  0.14
Other   |            | 0.1706     |            |       | 12.78

Nlocal:        2776.45 ave        3958 max           0 min
Histogram: 8 4 4 0 4 12 8 2 28 34
Nghost:        3879.03 ave        5424 max         232 min
Histogram: 8 0 8 0 16 0 8 8 16 40
Neighs:        79213.4 ave      115370 max           0 min
Histogram: 8 4 4 0 10 6 8 8 24 32

Total # of neighbors = 8238198
Ave neighs/atom = 28.530457
Neighbor list builds = 0
Dangerous builds = 0
unfix              hold

variable           new_x         equal     ${x0}-${x_0}
variable           new_x         equal     -0.0190520344983074-${x_0}
variable           new_x         equal     -0.0190520344983074--0.0115746914069441
variable           new_y         equal     ${y0}-${y_0}
variable           new_y         equal     2.00293010983972-${y_0}
variable           new_y         equal     2.00293010983972-2.01217725078165
variable           new_z         equal     ${z0}-${z_0}
variable           new_z         equal     5.18676662595235-${z_0}
variable           new_z         equal     5.18676662595235-5.18459638636738

label iteration
variable           norm          equal     sqrt(${new_x}^2+${new_y}^2+${new_z}^2)
variable           norm          equal     sqrt(-0.0074773430913633^2+${new_y}^2+${new_z}^2)
variable           norm          equal     sqrt(-0.0074773430913633^2+-0.00924714094192991^2+${new_z}^2)
variable           norm          equal     sqrt(-0.0074773430913633^2+-0.00924714094192991^2+0.00217023958497009^2)
variable           unit_x        equal     ${new_x}/${norm}
variable           unit_x        equal     -0.0074773430913633/${norm}
variable           unit_x        equal     -0.0074773430913633/0.0120884331144299
variable           unit_y        equal     ${new_y}/${norm}
variable           unit_y        equal     -0.00924714094192991/${norm}
variable           unit_y        equal     -0.00924714094192991/0.0120884331144299
variable           unit_z        equal     ${new_z}/${norm}
variable           unit_z        equal     0.00217023958497009/${norm}
variable           unit_z        equal     0.00217023958497009/0.0120884331144299
variable           x_new         equal     ${x0}+${delta}*${unit_x}
variable           x_new         equal     -0.0190520344983074+${delta}*${unit_x}
variable           x_new         equal     -0.0190520344983074+0.02*${unit_x}
variable           x_new         equal     -0.0190520344983074+0.02*-0.618553539617772
variable           y_new         equal     ${y0}+${delta}*${unit_y}
variable           y_new         equal     2.00293010983972+${delta}*${unit_y}
variable           y_new         equal     2.00293010983972+0.02*${unit_y}
variable           y_new         equal     2.00293010983972+0.02*-0.764957778596768
variable           z_new         equal     ${z0}+${delta}*${unit_z}
variable           z_new         equal     5.18676662595235+${delta}*${unit_z}
variable           z_new         equal     5.18676662595235+0.02*${unit_z}
variable           z_new         equal     5.18676662595235+0.02*0.179530263717924

set                atom          $i    x  ${x_new}  y  ${y_new}  z   ${z_new}
set                atom          288751    x  ${x_new}  y  ${y_new}  z   ${z_new}
set                atom          288751    x  -0.0314231052906628  y  ${y_new}  z   ${z_new}
set                atom          288751    x  -0.0314231052906628  y  1.98763095426778  z   ${z_new}
set                atom          288751    x  -0.0314231052906628  y  1.98763095426778  z   5.19035723122671
Setting atom values ...
  1 settings made for x
  1 settings made for y
  1 settings made for z

fix                hold    carbon   planeforce   ${new_x}  ${new_y}  ${new_z}
fix                hold    carbon   planeforce   -0.0074773430913633  ${new_y}  ${new_z}
fix                hold    carbon   planeforce   -0.0074773430913633  -0.00924714094192991  ${new_z}
fix                hold    carbon   planeforce   -0.0074773430913633  -0.00924714094192991  0.00217023958497009
min_style          cg
minimize           1.0e-30 1.0e-30 10000 10000
Per MPI rank memory allocation (min/avg/max) = 5.441 | 5.816 | 6.074 Mbytes
Step PotEng KinEng TotEng v_fx v_fy v_fz 
     276   -1152449.4            0   -1152449.4  0.018345048 -0.022443064 -0.032421289 
     424   -1152449.4            0   -1152449.4 -3.4231481e-05 2.2187104e-05 -2.3404444e-05 
Loop time of 1.73738 on 104 procs for 148 steps with 288751 atoms

99.9% CPU use with 104 MPI tasks x 1 OpenMP threads

Minimization stats:
  Stopping criterion = energy tolerance
  Energy initial, next-to-last, final = 
     -1152449.44705576  -1152449.44849466  -1152449.44849466
  Force two-norm initial, final = 0.17811414 0.0001635874
  Force max component initial, final = 0.077761224 3.4231481e-05
  Final line search alpha, max atom move = 1.0000000 3.4231481e-05
  Iterations, force evaluations = 148 296

MPI task timing breakdown:
Section |  min time  |  avg time  |  max time  |%varavg| %total
---------------------------------------------------------------
Pair    | 0.4482     | 1.2448     | 1.6235     |  30.2 | 71.65
Neigh   | 0          | 0          | 0          |   0.0 |  0.00
Comm    | 0.029062   | 0.28242    | 0.83987    |  44.0 | 16.26
Output  | 0          | 0          | 0          |   0.0 |  0.00
Modify  | 1.8804e-05 | 0.0024464  | 0.0053255  |   2.3 |  0.14
Other   |            | 0.2077     |            |       | 11.96

Nlocal:        2776.45 ave        3958 max           0 min
Histogram: 8 4 4 0 4 12 8 2 28 34
Nghost:        3879.03 ave        5424 max         232 min
Histogram: 8 0 8 0 16 0 8 8 16 40
Neighs:        79213.5 ave      115370 max           0 min
Histogram: 8 4 4 0 10 6 8 8 24 32

Total # of neighbors = 8238200
Ave neighs/atom = 28.530464
Neighbor list builds = 0
Dangerous builds = 0
unfix              hold

variable           new_x         delete
variable           new_y         delete
variable           new_z         delete
variable           dot           delete
variable           new_x         equal     ${x0}-${x_0}
variable           new_x         equal     -0.032020638292393-${x_0}
variable           new_x         equal     -0.032020638292393--0.0115746914069441
variable           new_y         equal     ${y0}-${y_0}
variable           new_y         equal     1.98777366646629-${y_0}
variable           new_y         equal     1.98777366646629-2.01217725078165
variable           new_z         equal     ${z0}-${z_0}
variable           new_z         equal     5.1889065713686-${z_0}
variable           new_z         equal     5.1889065713686-5.18459638636738

variable           dot      equal     ${fx}*${new_x}+${fy}*${new_y}+${fz}*${new_z}
variable           dot      equal     -3.42314808054855e-05*${new_x}+${fy}*${new_y}+${fz}*${new_z}
variable           dot      equal     -3.42314808054855e-05*-0.0204459468854489+${fy}*${new_y}+${fz}*${new_z}
variable           dot      equal     -3.42314808054855e-05*-0.0204459468854489+2.21871037633142e-05*${new_y}+${fz}*${new_z}
variable           dot      equal     -3.42314808054855e-05*-0.0204459468854489+2.21871037633142e-05*-0.02440358431536+${fz}*${new_z}
variable           dot      equal     -3.42314808054855e-05*-0.0204459468854489+2.21871037633142e-05*-0.02440358431536+-2.34044440377729e-05*${new_z}
variable           dot      equal     -3.42314808054855e-05*-0.0204459468854489+2.21871037633142e-05*-0.02440358431536+-2.34044440377729e-05*0.00431018500121993
print              "The dot product: ${dot}"
The dot product: 5.75726973040408e-08

if "(${dot} >= 0.0) && (${dot} < 1.0e-10)" then "jump TaR.in relaxation" elif "(${dot} < 0.0) && (${dot} > -1.0e-10)" "jump TaR.in relaxation" elif "(${iteration} == ${iter_tot}) && (${seed} < 319)" "print 'The iteration number is maximum!'" "next seed" "variable iteration delete" "jump TaR.in loop" elif "(${iteration} == ${iter_tot}) && (${seed} == 319)" "quit" else    "next iteration"    "jump TaR.in iteration"
next iteration
jump TaR.in iteration
variable           norm          equal     sqrt(${new_x}^2+${new_y}^2+${new_z}^2)
variable           norm          equal     sqrt(-0.0204459468854489^2+${new_y}^2+${new_z}^2)
variable           norm          equal     sqrt(-0.0204459468854489^2+-0.02440358431536^2+${new_z}^2)
variable           norm          equal     sqrt(-0.0204459468854489^2+-0.02440358431536^2+0.00431018500121993^2)
variable           unit_x        equal     ${new_x}/${norm}
variable           unit_x        equal     -0.0204459468854489/${norm}
variable           unit_x        equal     -0.0204459468854489/0.0321270815080397
variable           unit_y        equal     ${new_y}/${norm}
variable           unit_y        equal     -0.02440358431536/${norm}
variable           unit_y        equal     -0.02440358431536/0.0321270815080397
variable           unit_z        equal     ${new_z}/${norm}
variable           unit_z        equal     0.00431018500121993/${norm}
variable           unit_z        equal     0.00431018500121993/0.0321270815080397
variable           x_new         equal     ${x0}+${delta}*${unit_x}
variable           x_new         equal     -0.032020638292393+${delta}*${unit_x}
variable           x_new         equal     -0.032020638292393+0.02*${unit_x}
variable           x_new         equal     -0.032020638292393+0.02*-0.636408473030218
variable           y_new         equal     ${y0}+${delta}*${unit_y}
variable           y_new         equal     1.98777366646629+${delta}*${unit_y}
variable           y_new         equal     1.98777366646629+0.02*${unit_y}
variable           y_new         equal     1.98777366646629+0.02*-0.75959543070394
variable           z_new         equal     ${z0}+${delta}*${unit_z}
variable           z_new         equal     5.1889065713686+${delta}*${unit_z}
variable           z_new         equal     5.1889065713686+0.02*${unit_z}
variable           z_new         equal     5.1889065713686+0.02*0.134160490119257

set                atom          $i    x  ${x_new}  y  ${y_new}  z   ${z_new}
set                atom          288751    x  ${x_new}  y  ${y_new}  z   ${z_new}
set                atom          288751    x  -0.0447488077529974  y  ${y_new}  z   ${z_new}
set                atom          288751    x  -0.0447488077529974  y  1.97258175785221  z   ${z_new}
set                atom          288751    x  -0.0447488077529974  y  1.97258175785221  z   5.19158978117099
Setting atom values ...
  1 settings made for x
  1 settings made for y
  1 settings made for z

fix                hold    carbon   planeforce   ${new_x}  ${new_y}  ${new_z}
fix                hold    carbon   planeforce   -0.0204459468854489  ${new_y}  ${new_z}
fix                hold    carbon   planeforce   -0.0204459468854489  -0.02440358431536  ${new_z}
fix                hold    carbon   planeforce   -0.0204459468854489  -0.02440358431536  0.00431018500121993
min_style          cg
minimize           1.0e-30 1.0e-30 10000 10000
Per MPI rank memory allocation (min/avg/max) = 5.441 | 5.816 | 6.074 Mbytes
Step PotEng KinEng TotEng v_fx v_fy v_fz 
     424   -1152449.4            0   -1152449.4  0.018706622 -0.021279623 -0.031744458 
     588   -1152449.4            0   -1152449.4 1.7680767e-06 -6.1884587e-06 -2.6650961e-05 
Loop time of 1.94468 on 104 procs for 164 steps with 288751 atoms

99.9% CPU use with 104 MPI tasks x 1 OpenMP threads

Minimization stats:
  Stopping criterion = energy tolerance
  Energy initial, next-to-last, final = 
     -1152449.44403835  -1152449.44546631  -1152449.44546631
  Force two-norm initial, final = 0.1769027 0.0001023001
  Force max component initial, final = 0.075526211 2.6650961e-05
  Final line search alpha, max atom move = 1.0000000 2.6650961e-05
  Iterations, force evaluations = 164 328

MPI task timing breakdown:
Section |  min time  |  avg time  |  max time  |%varavg| %total
---------------------------------------------------------------
Pair    | 0.49238    | 1.3915     | 1.8072     |  32.2 | 71.56
Neigh   | 0          | 0          | 0          |   0.0 |  0.00
Comm    | 0.030508   | 0.32022    | 0.94326    |  46.1 | 16.47
Output  | 0          | 0          | 0          |   0.0 |  0.00
Modify  | 1.9055e-05 | 0.0027127  | 0.0059081  |   2.5 |  0.14
Other   |            | 0.2302     |            |       | 11.84

Nlocal:        2776.45 ave        3957 max           0 min
Histogram: 8 4 4 0 4 12 8 2 28 34
Nghost:        3879.03 ave        5424 max         232 min
Histogram: 8 0 8 0 16 0 8 8 16 40
Neighs:        79213.5 ave      115340 max           0 min
Histogram: 8 4 4 0 10 6 8 8 24 32

Total # of neighbors = 8238201
Ave neighs/atom = 28.530467
Neighbor list builds = 0
Dangerous builds = 0
unfix              hold

variable           new_x         delete
variable           new_y         delete
variable           new_z         delete
variable           dot           delete
variable           new_x         equal     ${x0}-${x_0}
variable           new_x         equal     -0.0454131936665461-${x_0}
variable           new_x         equal     -0.0454131936665461--0.0115746914069441
variable           new_y         equal     ${y0}-${y_0}
variable           new_y         equal     1.97284783589857-${y_0}
variable           new_y         equal     1.97284783589857-2.01217725078165
variable           new_z         equal     ${z0}-${z_0}
variable           new_z         equal     5.18994466824457-${z_0}
variable           new_z         equal     5.18994466824457-5.18459638636738

variable           dot      equal     ${fx}*${new_x}+${fy}*${new_y}+${fz}*${new_z}
variable           dot      equal     1.76807672800212e-06*${new_x}+${fy}*${new_y}+${fz}*${new_z}
variable           dot      equal     1.76807672800212e-06*-0.033838502259602+${fy}*${new_y}+${fz}*${new_z}
variable           dot      equal     1.76807672800212e-06*-0.033838502259602+-6.18845871017944e-06*${new_y}+${fz}*${new_z}
variable           dot      equal     1.76807672800212e-06*-0.033838502259602+-6.18845871017944e-06*-0.0393294148830801+${fz}*${new_z}
variable           dot      equal     1.76807672800212e-06*-0.033838502259602+-6.18845871017944e-06*-0.0393294148830801+-2.66509606926407e-05*${new_z}
variable           dot      equal     1.76807672800212e-06*-0.033838502259602+-6.18845871017944e-06*-0.0393294148830801+-2.66509606926407e-05*0.00534828187718972
print              "The dot product: ${dot}"
The dot product: 4.10225416616627e-08

if "(${dot} >= 0.0) && (${dot} < 1.0e-10)" then "jump TaR.in relaxation" elif "(${dot} < 0.0) && (${dot} > -1.0e-10)" "jump TaR.in relaxation" elif "(${iteration} == ${iter_tot}) && (${seed} < 319)" "print 'The iteration number is maximum!'" "next seed" "variable iteration delete" "jump TaR.in loop" elif "(${iteration} == ${iter_tot}) && (${seed} == 319)" "quit" else    "next iteration"    "jump TaR.in iteration"
next iteration
jump TaR.in iteration
variable           norm          equal     sqrt(${new_x}^2+${new_y}^2+${new_z}^2)
variable           norm          equal     sqrt(-0.033838502259602^2+${new_y}^2+${new_z}^2)
variable           norm          equal     sqrt(-0.033838502259602^2+-0.0393294148830801^2+${new_z}^2)
variable           norm          equal     sqrt(-0.033838502259602^2+-0.0393294148830801^2+0.00534828187718972^2)
variable           unit_x        equal     ${new_x}/${norm}
variable           unit_x        equal     -0.033838502259602/${norm}
variable           unit_x        equal     -0.033838502259602/0.0521579450252443
variable           unit_y        equal     ${new_y}/${norm}
variable           unit_y        equal     -0.0393294148830801/${norm}
variable           unit_y        equal     -0.0393294148830801/0.0521579450252443
variable           unit_z        equal     ${new_z}/${norm}
variable           unit_z        equal     0.00534828187718972/${norm}
variable           unit_z        equal     0.00534828187718972/0.0521579450252443
variable           x_new         equal     ${x0}+${delta}*${unit_x}
variable           x_new         equal     -0.0454131936665461+${delta}*${unit_x}
variable           x_new         equal     -0.0454131936665461+0.02*${unit_x}
variable           x_new         equal     -0.0454131936665461+0.02*-0.648769851711456
variable           y_new         equal     ${y0}+${delta}*${unit_y}
variable           y_new         equal     1.97284783589857+${delta}*${unit_y}
variable           y_new         equal     1.97284783589857+0.02*${unit_y}
variable           y_new         equal     1.97284783589857+0.02*-0.754044563374665
variable           z_new         equal     ${z0}+${delta}*${unit_z}
variable           z_new         equal     5.18994466824457+${delta}*${unit_z}
variable           z_new         equal     5.18994466824457+0.02*${unit_z}
variable           z_new         equal     5.18994466824457+0.02*0.102540118760453

set                atom          $i    x  ${x_new}  y  ${y_new}  z   ${z_new}
set                atom          288751    x  ${x_new}  y  ${y_new}  z   ${z_new}
set                atom          288751    x  -0.0583885907007752  y  ${y_new}  z   ${z_new}
set                atom          288751    x  -0.0583885907007752  y  1.95776694463108  z   ${z_new}
set                atom          288751    x  -0.0583885907007752  y  1.95776694463108  z   5.19199547061978
Setting atom values ...
  1 settings made for x
  1 settings made for y
  1 settings made for z

fix                hold    carbon   planeforce   ${new_x}  ${new_y}  ${new_z}
fix                hold    carbon   planeforce   -0.033838502259602  ${new_y}  ${new_z}
fix                hold    carbon   planeforce   -0.033838502259602  -0.0393294148830801  ${new_z}
fix                hold    carbon   planeforce   -0.033838502259602  -0.0393294148830801  0.00534828187718972
min_style          cg
minimize           1.0e-30 1.0e-30 10000 10000
Per MPI rank memory allocation (min/avg/max) = 5.441 | 5.816 | 6.074 Mbytes
Step PotEng KinEng TotEng v_fx v_fy v_fz 
     588   -1152449.4            0   -1152449.4   0.01963202 -0.021084555 -0.030837021 
     696   -1152449.4            0   -1152449.4 3.0479938e-06 -9.1329128e-06 -4.7875668e-05 
Loop time of 1.25918 on 104 procs for 108 steps with 288751 atoms

99.9% CPU use with 104 MPI tasks x 1 OpenMP threads

Minimization stats:
  Stopping criterion = energy tolerance
  Energy initial, next-to-last, final = 
      -1152449.4395338  -1152449.44095385  -1152449.44095385
  Force two-norm initial, final = 0.17606777 0.00022963255
  Force max component initial, final = 0.073368138 4.7875668e-05
  Final line search alpha, max atom move = 1.0000000 4.7875668e-05
  Iterations, force evaluations = 108 216

MPI task timing breakdown:
Section |  min time  |  avg time  |  max time  |%varavg| %total
---------------------------------------------------------------
Pair    | 0.32959    | 0.90889    | 1.1795     |  25.6 | 72.18
Neigh   | 0          | 0          | 0          |   0.0 |  0.00
Comm    | 0.021287   | 0.20409    | 0.61125    |  37.9 | 16.21
Output  | 0          | 0          | 0          |   0.0 |  0.00
Modify  | 1.4158e-05 | 0.0017884  | 0.0038778  |   2.0 |  0.14
Other   |            | 0.1444     |            |       | 11.47

Nlocal:        2776.45 ave        3955 max           0 min
Histogram: 8 4 4 0 4 12 8 0 30 34
Nghost:        3879.03 ave        5424 max         232 min
Histogram: 8 0 8 0 16 0 8 8 16 40
Neighs:        79213.5 ave      115279 max           0 min
Histogram: 8 4 4 0 10 6 8 8 24 32

Total # of neighbors = 8238201
Ave neighs/atom = 28.530467
Neighbor list builds = 0
Dangerous builds = 0
unfix              hold

variable           new_x         delete
variable           new_y         delete
variable           new_z         delete
variable           dot           delete
variable           new_x         equal     ${x0}-${x_0}
variable           new_x         equal     -0.0589584256203185-${x_0}
variable           new_x         equal     -0.0589584256203185--0.0115746914069441
variable           new_y         equal     ${y0}-${y_0}
variable           new_y         equal     1.95803302847711-${y_0}
variable           new_y         equal     1.95803302847711-2.01217725078165
variable           new_z         equal     ${z0}-${z_0}
variable           new_z         equal     5.19034682186833-${z_0}
variable           new_z         equal     5.19034682186833-5.18459638636738

variable           dot      equal     ${fx}*${new_x}+${fy}*${new_y}+${fz}*${new_z}
variable           dot      equal     3.04799382947258e-06*${new_x}+${fy}*${new_y}+${fz}*${new_z}
variable           dot      equal     3.04799382947258e-06*-0.0473837342133744+${fy}*${new_y}+${fz}*${new_z}
variable           dot      equal     3.04799382947258e-06*-0.0473837342133744+-9.13291278248618e-06*${new_y}+${fz}*${new_z}
variable           dot      equal     3.04799382947258e-06*-0.0473837342133744+-9.13291278248618e-06*-0.0541442223045401+${fz}*${new_z}
variable           dot      equal     3.04799382947258e-06*-0.0473837342133744+-9.13291278248618e-06*-0.0541442223045401+-4.78756684314554e-05*${new_z}
variable           dot      equal     3.04799382947258e-06*-0.0473837342133744+-9.13291278248618e-06*-0.0541442223045401+-4.78756684314554e-05*0.00575043550094989
print              "The dot product: ${dot}"
The dot product: 7.47631871032267e-08

if "(${dot} >= 0.0) && (${dot} < 1.0e-10)" then "jump TaR.in relaxation" elif "(${dot} < 0.0) && (${dot} > -1.0e-10)" "jump TaR.in relaxation" elif "(${iteration} == ${iter_tot}) && (${seed} < 319)" "print 'The iteration number is maximum!'" "next seed" "variable iteration delete" "jump TaR.in loop" elif "(${iteration} == ${iter_tot}) && (${seed} == 319)" "quit" else    "next iteration"    "jump TaR.in iteration"
next iteration
jump TaR.in iteration
variable           norm          equal     sqrt(${new_x}^2+${new_y}^2+${new_z}^2)
variable           norm          equal     sqrt(-0.0473837342133744^2+${new_y}^2+${new_z}^2)
variable           norm          equal     sqrt(-0.0473837342133744^2+-0.0541442223045401^2+${new_z}^2)
variable           norm          equal     sqrt(-0.0473837342133744^2+-0.0541442223045401^2+0.00575043550094989^2)
variable           unit_x        equal     ${new_x}/${norm}
variable           unit_x        equal     -0.0473837342133744/${norm}
variable           unit_x        equal     -0.0473837342133744/0.0721795163839281
variable           unit_y        equal     ${new_y}/${norm}
variable           unit_y        equal     -0.0541442223045401/${norm}
variable           unit_y        equal     -0.0541442223045401/0.0721795163839281
variable           unit_z        equal     ${new_z}/${norm}
variable           unit_z        equal     0.00575043550094989/${norm}
variable           unit_z        equal     0.00575043550094989/0.0721795163839281
variable           x_new         equal     ${x0}+${delta}*${unit_x}
variable           x_new         equal     -0.0589584256203185+${delta}*${unit_x}
variable           x_new         equal     -0.0589584256203185+0.02*${unit_x}
variable           x_new         equal     -0.0589584256203185+0.02*-0.656470652440186
variable           y_new         equal     ${y0}+${delta}*${unit_y}
variable           y_new         equal     1.95803302847711+${delta}*${unit_y}
variable           y_new         equal     1.95803302847711+0.02*${unit_y}
variable           y_new         equal     1.95803302847711+0.02*-0.750132794137093
variable           z_new         equal     ${z0}+${delta}*${unit_z}
variable           z_new         equal     5.19034682186833+${delta}*${unit_z}
variable           z_new         equal     5.19034682186833+0.02*${unit_z}
variable           z_new         equal     5.19034682186833+0.02*0.0796685235512372

set                atom          $i    x  ${x_new}  y  ${y_new}  z   ${z_new}
set                atom          288751    x  ${x_new}  y  ${y_new}  z   ${z_new}
set                atom          288751    x  -0.0720878386691222  y  ${y_new}  z   ${z_new}
set                atom          288751    x  -0.0720878386691222  y  1.94303037259437  z   ${z_new}
set                atom          288751    x  -0.0720878386691222  y  1.94303037259437  z   5.19194019233935
Setting atom values ...
  1 settings made for x
  1 settings made for y
  1 settings made for z

fix                hold    carbon   planeforce   ${new_x}  ${new_y}  ${new_z}
fix                hold    carbon   planeforce   -0.0473837342133744  ${new_y}  ${new_z}
fix                hold    carbon   planeforce   -0.0473837342133744  -0.0541442223045401  ${new_z}
fix                hold    carbon   planeforce   -0.0473837342133744  -0.0541442223045401  0.00575043550094989
min_style          cg
minimize           1.0e-30 1.0e-30 10000 10000
Per MPI rank memory allocation (min/avg/max) = 5.441 | 5.816 | 6.074 Mbytes
Step PotEng KinEng TotEng v_fx v_fy v_fz 
     696   -1152449.4            0   -1152449.4  0.021043276 -0.021660715 -0.030553094 
     885   -1152449.4            0   -1152449.4 -9.6538282e-08 6.0173223e-07 4.8702362e-06 
Loop time of 2.20876 on 104 procs for 189 steps with 288751 atoms

99.9% CPU use with 104 MPI tasks x 1 OpenMP threads

Minimization stats:
  Stopping criterion = energy tolerance
  Energy initial, next-to-last, final = 
     -1152449.43351046  -1152449.43492273  -1152449.43492273
  Force two-norm initial, final = 0.17546194 1.8662233e-05
  Force max component initial, final = 0.072612071 4.8702362e-06
  Final line search alpha, max atom move = 1.0000000 4.8702362e-06
  Iterations, force evaluations = 189 378

MPI task timing breakdown:
Section |  min time  |  avg time  |  max time  |%varavg| %total
---------------------------------------------------------------
Pair    | 0.56877    | 1.5968     | 2.0645     |  34.2 | 72.29
Neigh   | 0          | 0          | 0          |   0.0 |  0.00
Comm    | 0.033657   | 0.35802    | 1.0748     |  50.2 | 16.21
Output  | 0          | 0          | 0          |   0.0 |  0.00
Modify  | 2.2018e-05 | 0.0031183  | 0.0067862  |   2.6 |  0.14
Other   |            | 0.2508     |            |       | 11.36

Nlocal:        2776.45 ave        3954 max           0 min
Histogram: 8 4 4 0 4 12 8 0 30 34
Nghost:        3879.03 ave        5424 max         232 min
Histogram: 8 0 8 0 16 0 8 8 16 40
Neighs:        79213.5 ave      115246 max           0 min
Histogram: 8 4 4 0 10 6 8 8 24 32

Total # of neighbors = 8238201
Ave neighs/atom = 28.530467
Neighbor list builds = 0
Dangerous builds = 0
unfix              hold

variable           new_x         delete
variable           new_y         delete
variable           new_z         delete
variable           dot           delete
variable           new_x         equal     ${x0}-${x_0}
variable           new_x         equal     -0.0724435994305402-${x_0}
variable           new_x         equal     -0.0724435994305402--0.0115746914069441
variable           new_y         equal     ${y0}-${y_0}
variable           new_y         equal     1.94317042709075-${y_0}
variable           new_y         equal     1.94317042709075-2.01217725078165
variable           new_z         equal     ${z0}-${z_0}
variable           new_z         equal     5.19032742204118-${z_0}
variable           new_z         equal     5.19032742204118-5.18459638636738

variable           dot      equal     ${fx}*${new_x}+${fy}*${new_y}+${fz}*${new_z}
variable           dot      equal     -9.65382821135388e-08*${new_x}+${fy}*${new_y}+${fz}*${new_z}
variable           dot      equal     -9.65382821135388e-08*-0.0608689080235961+${fy}*${new_y}+${fz}*${new_z}
variable           dot      equal     -9.65382821135388e-08*-0.0608689080235961+6.01732228519952e-07*${new_y}+${fz}*${new_z}
variable           dot      equal     -9.65382821135388e-08*-0.0608689080235961+6.01732228519952e-07*-0.0690068236909001+${fz}*${new_z}
variable           dot      equal     -9.65382821135388e-08*-0.0608689080235961+6.01732228519952e-07*-0.0690068236909001+4.87023621781678e-06*${new_z}
variable           dot      equal     -9.65382821135388e-08*-0.0608689080235961+6.01732228519952e-07*-0.0690068236909001+4.87023621781678e-06*0.00573103567379984
print              "The dot product: ${dot}"
The dot product: -7.73595248374379e-09

if "(${dot} >= 0.0) && (${dot} < 1.0e-10)" then "jump TaR.in relaxation" elif "(${dot} < 0.0) && (${dot} > -1.0e-10)" "jump TaR.in relaxation" elif "(${iteration} == ${iter_tot}) && (${seed} < 319)" "print 'The iteration number is maximum!'" "next seed" "variable iteration delete" "jump TaR.in loop" elif "(${iteration} == ${iter_tot}) && (${seed} == 319)" "quit" else    "next iteration"    "jump TaR.in iteration"
next iteration
jump TaR.in iteration
variable           norm          equal     sqrt(${new_x}^2+${new_y}^2+${new_z}^2)
variable           norm          equal     sqrt(-0.0608689080235961^2+${new_y}^2+${new_z}^2)
variable           norm          equal     sqrt(-0.0608689080235961^2+-0.0690068236909001^2+${new_z}^2)
variable           norm          equal     sqrt(-0.0608689080235961^2+-0.0690068236909001^2+0.00573103567379984^2)
variable           unit_x        equal     ${new_x}/${norm}
variable           unit_x        equal     -0.0608689080235961/${norm}
variable           unit_x        equal     -0.0608689080235961/0.0921944165868321
variable           unit_y        equal     ${new_y}/${norm}
variable           unit_y        equal     -0.0690068236909001/${norm}
variable           unit_y        equal     -0.0690068236909001/0.0921944165868321
variable           unit_z        equal     ${new_z}/${norm}
variable           unit_z        equal     0.00573103567379984/${norm}
variable           unit_z        equal     0.00573103567379984/0.0921944165868321
variable           x_new         equal     ${x0}+${delta}*${unit_x}
variable           x_new         equal     -0.0724435994305402+${delta}*${unit_x}
variable           x_new         equal     -0.0724435994305402+0.02*${unit_x}
variable           x_new         equal     -0.0724435994305402+0.02*-0.660223365763886
variable           y_new         equal     ${y0}+${delta}*${unit_y}
variable           y_new         equal     1.94317042709075+${delta}*${unit_y}
variable           y_new         equal     1.94317042709075+0.02*${unit_y}
variable           y_new         equal     1.94317042709075+0.02*-0.748492438540537
variable           z_new         equal     ${z0}+${delta}*${unit_z}
variable           z_new         equal     5.19032742204118+${delta}*${unit_z}
variable           z_new         equal     5.19032742204118+0.02*${unit_z}
variable           z_new         equal     5.19032742204118+0.02*0.0621625027411735

set                atom          $i    x  ${x_new}  y  ${y_new}  z   ${z_new}
set                atom          288751    x  ${x_new}  y  ${y_new}  z   ${z_new}
set                atom          288751    x  -0.0856480667458179  y  ${y_new}  z   ${z_new}
set                atom          288751    x  -0.0856480667458179  y  1.92820057831994  z   ${z_new}
set                atom          288751    x  -0.0856480667458179  y  1.92820057831994  z   5.191570672096
Setting atom values ...
  1 settings made for x
  1 settings made for y
  1 settings made for z

fix                hold    carbon   planeforce   ${new_x}  ${new_y}  ${new_z}
fix                hold    carbon   planeforce   -0.0608689080235961  ${new_y}  ${new_z}
fix                hold    carbon   planeforce   -0.0608689080235961  -0.0690068236909001  ${new_z}
fix                hold    carbon   planeforce   -0.0608689080235961  -0.0690068236909001  0.00573103567379984
min_style          cg
minimize           1.0e-30 1.0e-30 10000 10000
Per MPI rank memory allocation (min/avg/max) = 5.441 | 5.816 | 6.074 Mbytes
Step PotEng KinEng TotEng v_fx v_fy v_fz 
     885   -1152449.4            0   -1152449.4  0.023013598 -0.022875403 -0.031014694 
    1000   -1152449.4            0   -1152449.4 2.1096862e-05 -1.3144646e-05 6.5794861e-05 
    1014   -1152449.4            0   -1152449.4 7.8176128e-06 -4.8263093e-06 2.4917185e-05 
Loop time of 1.50118 on 104 procs for 129 steps with 288751 atoms

99.9% CPU use with 104 MPI tasks x 1 OpenMP threads

Minimization stats:
  Stopping criterion = energy tolerance
  Energy initial, next-to-last, final = 
     -1152449.42594528  -1152449.42734802  -1152449.42734802
  Force two-norm initial, final = 0.17500333 9.7802081e-05
  Force max component initial, final = 0.073058269 2.4917185e-05
  Final line search alpha, max atom move = 1.0000000 2.4917185e-05
  Iterations, force evaluations = 129 258

MPI task timing breakdown:
Section |  min time  |  avg time  |  max time  |%varavg| %total
---------------------------------------------------------------
Pair    | 0.38934    | 1.0843     | 1.4075     |  28.2 | 72.23
Neigh   | 0          | 0          | 0          |   0.0 |  0.00
Comm    | 0.023549   | 0.24467    | 0.7283     |  41.3 | 16.30
Output  | 0.00015964 | 0.00016538 | 0.00033025 |   0.0 |  0.01
Modify  | 1.5228e-05 | 0.0021324  | 0.0046196  |   2.2 |  0.14
Other   |            | 0.17       |            |       | 11.32

Nlocal:        2776.45 ave        3952 max           0 min
Histogram: 8 4 4 0 4 12 8 0 30 34
Nghost:        3879.03 ave        5424 max         232 min
Histogram: 8 0 8 0 16 0 8 8 16 40
Neighs:        79213.5 ave      115177 max           0 min
Histogram: 8 4 4 0 10 6 8 8 24 32

Total # of neighbors = 8238203
Ave neighs/atom = 28.530474
Neighbor list builds = 0
Dangerous builds = 0
unfix              hold

variable           new_x         delete
variable           new_y         delete
variable           new_z         delete
variable           dot           delete
variable           new_x         equal     ${x0}-${x_0}
variable           new_x         equal     -0.0856743201533392-${x_0}
variable           new_x         equal     -0.0856743201533392--0.0115746914069441
variable           new_y         equal     ${y0}-${y_0}
variable           new_y         equal     1.92808631951102-${y_0}
variable           new_y         equal     1.92808631951102-2.01217725078165
variable           new_z         equal     ${z0}-${z_0}
variable           new_z         equal     5.18991605776955-${z_0}
variable           new_z         equal     5.18991605776955-5.18459638636738

variable           dot      equal     ${fx}*${new_x}+${fy}*${new_y}+${fz}*${new_z}
variable           dot      equal     7.81761278233709e-06*${new_x}+${fy}*${new_y}+${fz}*${new_z}
variable           dot      equal     7.81761278233709e-06*-0.0740996287463951+${fy}*${new_y}+${fz}*${new_z}
variable           dot      equal     7.81761278233709e-06*-0.0740996287463951+-4.82630934100863e-06*${new_y}+${fz}*${new_z}
variable           dot      equal     7.81761278233709e-06*-0.0740996287463951+-4.82630934100863e-06*-0.0840909312706299+${fz}*${new_z}
variable           dot      equal     7.81761278233709e-06*-0.0740996287463951+-4.82630934100863e-06*-0.0840909312706299+2.49171849138801e-05*${new_z}
variable           dot      equal     7.81761278233709e-06*-0.0740996287463951+-4.82630934100863e-06*-0.0840909312706299+2.49171849138801e-05*0.00531967140217038
print              "The dot product: ${dot}"
The dot product: -4.08821217597362e-08

if "(${dot} >= 0.0) && (${dot} < 1.0e-10)" then "jump TaR.in relaxation" elif "(${dot} < 0.0) && (${dot} > -1.0e-10)" "jump TaR.in relaxation" elif "(${iteration} == ${iter_tot}) && (${seed} < 319)" "print 'The iteration number is maximum!'" "next seed" "variable iteration delete" "jump TaR.in loop" elif "(${iteration} == ${iter_tot}) && (${seed} == 319)" "quit" else    "next iteration"    "jump TaR.in iteration"
next iteration
jump TaR.in iteration
variable           norm          equal     sqrt(${new_x}^2+${new_y}^2+${new_z}^2)
variable           norm          equal     sqrt(-0.0740996287463951^2+${new_y}^2+${new_z}^2)
variable           norm          equal     sqrt(-0.0740996287463951^2+-0.0840909312706299^2+${new_z}^2)
variable           norm          equal     sqrt(-0.0740996287463951^2+-0.0840909312706299^2+0.00531967140217038^2)
variable           unit_x        equal     ${new_x}/${norm}
variable           unit_x        equal     -0.0740996287463951/${norm}
variable           unit_x        equal     -0.0740996287463951/0.112206678081754
variable           unit_y        equal     ${new_y}/${norm}
variable           unit_y        equal     -0.0840909312706299/${norm}
variable           unit_y        equal     -0.0840909312706299/0.112206678081754
variable           unit_z        equal     ${new_z}/${norm}
variable           unit_z        equal     0.00531967140217038/${norm}
variable           unit_z        equal     0.00531967140217038/0.112206678081754
variable           x_new         equal     ${x0}+${delta}*${unit_x}
variable           x_new         equal     -0.0856743201533392+${delta}*${unit_x}
variable           x_new         equal     -0.0856743201533392+0.02*${unit_x}
variable           x_new         equal     -0.0856743201533392+0.02*-0.660385192870659
variable           y_new         equal     ${y0}+${delta}*${unit_y}
variable           y_new         equal     1.92808631951102+${delta}*${unit_y}
variable           y_new         equal     1.92808631951102+0.02*${unit_y}
variable           y_new         equal     1.92808631951102+0.02*-0.749428935141998
variable           z_new         equal     ${z0}+${delta}*${unit_z}
variable           z_new         equal     5.18991605776955+${delta}*${unit_z}
variable           z_new         equal     5.18991605776955+0.02*${unit_z}
variable           z_new         equal     5.18991605776955+0.02*0.0474095792970046

set                atom          $i    x  ${x_new}  y  ${y_new}  z   ${z_new}
set                atom          288751    x  ${x_new}  y  ${y_new}  z   ${z_new}
set                atom          288751    x  -0.0988820240107524  y  ${y_new}  z   ${z_new}
set                atom          288751    x  -0.0988820240107524  y  1.91309774080818  z   ${z_new}
set                atom          288751    x  -0.0988820240107524  y  1.91309774080818  z   5.19086424935549
Setting atom values ...
  1 settings made for x
  1 settings made for y
  1 settings made for z

fix                hold    carbon   planeforce   ${new_x}  ${new_y}  ${new_z}
fix                hold    carbon   planeforce   -0.0740996287463951  ${new_y}  ${new_z}
fix                hold    carbon   planeforce   -0.0740996287463951  -0.0840909312706299  ${new_z}
fix                hold    carbon   planeforce   -0.0740996287463951  -0.0840909312706299  0.00531967140217038
min_style          cg
minimize           1.0e-30 1.0e-30 10000 10000
Per MPI rank memory allocation (min/avg/max) = 5.441 | 5.816 | 6.074 Mbytes
Step PotEng KinEng TotEng v_fx v_fy v_fz 
    1014   -1152449.4            0   -1152449.4  0.025756778 -0.024754466 -0.032531795 
    1141   -1152449.4            0   -1152449.4 -1.1596263e-05 1.0886919e-05 1.0566886e-05 
Loop time of 1.48157 on 104 procs for 127 steps with 288751 atoms

99.9% CPU use with 104 MPI tasks x 1 OpenMP threads

Minimization stats:
  Stopping criterion = energy tolerance
  Energy initial, next-to-last, final = 
     -1152449.41682308  -1152449.41821741  -1152449.41821741
  Force two-norm initial, final = 0.174793 0.0001089256
  Force max component initial, final = 0.073773638 1.8136606e-05
  Final line search alpha, max atom move = 1.0000000 1.8136606e-05
  Iterations, force evaluations = 127 254

MPI task timing breakdown:
Section |  min time  |  avg time  |  max time  |%varavg| %total
---------------------------------------------------------------
Pair    | 0.3847     | 1.0738     | 1.3837     |  27.9 | 72.48
Neigh   | 0          | 0          | 0          |   0.0 |  0.00
Comm    | 0.024907   | 0.24039    | 0.72355    |  41.4 | 16.23
Output  | 0          | 0          | 0          |   0.0 |  0.00
Modify  | 1.6531e-05 | 0.002109   | 0.004565   |   2.2 |  0.14
Other   |            | 0.1653     |            |       | 11.16

Nlocal:        2776.45 ave        3951 max           0 min
Histogram: 8 4 4 0 4 12 8 0 30 34
Nghost:        3879.03 ave        5424 max         232 min
Histogram: 8 0 8 0 16 0 8 8 16 40
Neighs:        79213.5 ave      115154 max           0 min
Histogram: 8 4 4 0 10 6 8 8 24 32

Total # of neighbors = 8238204
Ave neighs/atom = 28.530478
Neighbor list builds = 0
Dangerous builds = 0
unfix              hold

variable           new_x         delete
variable           new_y         delete
variable           new_z         delete
variable           dot           delete
variable           new_x         equal     ${x0}-${x_0}
variable           new_x         equal     -0.0984294624188597-${x_0}
variable           new_x         equal     -0.0984294624188597--0.0115746914069441
variable           new_y         equal     ${y0}-${y_0}
variable           new_y         equal     1.91258221673902-${y_0}
variable           new_y         equal     1.91258221673902-2.01217725078165
variable           new_z         equal     ${z0}-${z_0}
variable           new_z         equal     5.18901897501738-${z_0}
variable           new_z         equal     5.18901897501738-5.18459638636738

variable           dot      equal     ${fx}*${new_x}+${fy}*${new_y}+${fz}*${new_z}
variable           dot      equal     -1.15962628850699e-05*${new_x}+${fy}*${new_y}+${fz}*${new_z}
variable           dot      equal     -1.15962628850699e-05*-0.0868547710119156+${fy}*${new_y}+${fz}*${new_z}
variable           dot      equal     -1.15962628850699e-05*-0.0868547710119156+1.08869187637696e-05*${new_y}+${fz}*${new_z}
variable           dot      equal     -1.15962628850699e-05*-0.0868547710119156+1.08869187637696e-05*-0.0995950340426299+${fz}*${new_z}
variable           dot      equal     -1.15962628850699e-05*-0.0868547710119156+1.08869187637696e-05*-0.0995950340426299+1.05668863029594e-05*${new_z}
variable           dot      equal     -1.15962628850699e-05*-0.0868547710119156+1.08869187637696e-05*-0.0995950340426299+1.05668863029594e-05*0.00442258864999978
print              "The dot product: ${dot}"
The dot product: -3.03592959909511e-08

if "(${dot} >= 0.0) && (${dot} < 1.0e-10)" then "jump TaR.in relaxation" elif "(${dot} < 0.0) && (${dot} > -1.0e-10)" "jump TaR.in relaxation" elif "(${iteration} == ${iter_tot}) && (${seed} < 319)" "print 'The iteration number is maximum!'" "next seed" "variable iteration delete" "jump TaR.in loop" elif "(${iteration} == ${iter_tot}) && (${seed} == 319)" "quit" else    "next iteration"    "jump TaR.in iteration"
next iteration
jump TaR.in iteration
variable           norm          equal     sqrt(${new_x}^2+${new_y}^2+${new_z}^2)
variable           norm          equal     sqrt(-0.0868547710119156^2+${new_y}^2+${new_z}^2)
variable           norm          equal     sqrt(-0.0868547710119156^2+-0.0995950340426299^2+${new_z}^2)
variable           norm          equal     sqrt(-0.0868547710119156^2+-0.0995950340426299^2+0.00442258864999978^2)
variable           unit_x        equal     ${new_x}/${norm}
variable           unit_x        equal     -0.0868547710119156/${norm}
variable           unit_x        equal     -0.0868547710119156/0.132221334677321
variable           unit_y        equal     ${new_y}/${norm}
variable           unit_y        equal     -0.0995950340426299/${norm}
variable           unit_y        equal     -0.0995950340426299/0.132221334677321
variable           unit_z        equal     ${new_z}/${norm}
variable           unit_z        equal     0.00442258864999978/${norm}
variable           unit_z        equal     0.00442258864999978/0.132221334677321
variable           x_new         equal     ${x0}+${delta}*${unit_x}
variable           x_new         equal     -0.0984294624188597+${delta}*${unit_x}
variable           x_new         equal     -0.0984294624188597+0.02*${unit_x}
variable           x_new         equal     -0.0984294624188597+0.02*-0.656889232164234
variable           y_new         equal     ${y0}+${delta}*${unit_y}
variable           y_new         equal     1.91258221673902+${delta}*${unit_y}
variable           y_new         equal     1.91258221673902+0.02*${unit_y}
variable           y_new         equal     1.91258221673902+0.02*-0.753244809437797
variable           z_new         equal     ${z0}+${delta}*${unit_z}
variable           z_new         equal     5.18901897501738+${delta}*${unit_z}
variable           z_new         equal     5.18901897501738+0.02*${unit_z}
variable           z_new         equal     5.18901897501738+0.02*0.0334483739768084

set                atom          $i    x  ${x_new}  y  ${y_new}  z   ${z_new}
set                atom          288751    x  ${x_new}  y  ${y_new}  z   ${z_new}
set                atom          288751    x  -0.111567247062144  y  ${y_new}  z   ${z_new}
set                atom          288751    x  -0.111567247062144  y  1.89751732055026  z   ${z_new}
set                atom          288751    x  -0.111567247062144  y  1.89751732055026  z   5.18968794249692
Setting atom values ...
  1 settings made for x
  1 settings made for y
  1 settings made for z

fix                hold    carbon   planeforce   ${new_x}  ${new_y}  ${new_z}
fix                hold    carbon   planeforce   -0.0868547710119156  ${new_y}  ${new_z}
fix                hold    carbon   planeforce   -0.0868547710119156  -0.0995950340426299  ${new_z}
fix                hold    carbon   planeforce   -0.0868547710119156  -0.0995950340426299  0.00442258864999978
min_style          cg
minimize           1.0e-30 1.0e-30 10000 10000
Per MPI rank memory allocation (min/avg/max) = 5.441 | 5.816 | 6.074 Mbytes
Step PotEng KinEng TotEng v_fx v_fy v_fz 
    1141   -1152449.4            0   -1152449.4  0.029418555  -0.02721928 -0.035219929 
    1274   -1152449.4            0   -1152449.4 -5.3811788e-06 5.7723467e-06 2.4310652e-05 
Loop time of 1.5391 on 104 procs for 133 steps with 288751 atoms

99.9% CPU use with 104 MPI tasks x 1 OpenMP threads

Minimization stats:
  Stopping criterion = energy tolerance
  Energy initial, next-to-last, final = 
     -1152449.40614598  -1152449.40753509  -1152449.40753509
  Force two-norm initial, final = 0.17487756 9.6476359e-05
  Force max component initial, final = 0.074778836 2.4310652e-05
  Final line search alpha, max atom move = 1.0000000 2.4310652e-05
  Iterations, force evaluations = 133 266

MPI task timing breakdown:
Section |  min time  |  avg time  |  max time  |%varavg| %total
---------------------------------------------------------------
Pair    | 0.40218    | 1.1185     | 1.4502     |  28.5 | 72.67
Neigh   | 0          | 0          | 0          |   0.0 |  0.00
Comm    | 0.023825   | 0.25014    | 0.75302    |  42.5 | 16.25
Output  | 0          | 0          | 0          |   0.0 |  0.00
Modify  | 1.594e-05  | 0.0021975  | 0.0047594  |   2.2 |  0.14
Other   |            | 0.1683     |            |       | 10.93

Nlocal:        2776.45 ave        3949 max           0 min
Histogram: 8 4 4 0 4 12 8 1 27 36
Nghost:        3879.03 ave        5424 max         232 min
Histogram: 8 0 8 0 16 0 8 8 16 40
Neighs:        79213.5 ave      115112 max           0 min
Histogram: 8 4 4 0 10 6 8 8 24 32

Total # of neighbors = 8238201
Ave neighs/atom = 28.530467
Neighbor list builds = 0
Dangerous builds = 0
unfix              hold

variable           new_x         delete
variable           new_y         delete
variable           new_z         delete
variable           dot           delete
variable           new_x         equal     ${x0}-${x_0}
variable           new_x         equal     -0.110421803126191-${x_0}
variable           new_x         equal     -0.110421803126191--0.0115746914069441
variable           new_y         equal     ${y0}-${y_0}
variable           new_y         equal     1.89641749905726-${y_0}
variable           new_y         equal     1.89641749905726-2.01217725078165
variable           new_z         equal     ${z0}-${z_0}
variable           new_z         equal     5.18741563343363-${z_0}
variable           new_z         equal     5.18741563343363-5.18459638636738

variable           dot      equal     ${fx}*${new_x}+${fy}*${new_y}+${fz}*${new_z}
variable           dot      equal     -5.38117883238809e-06*${new_x}+${fy}*${new_y}+${fz}*${new_z}
variable           dot      equal     -5.38117883238809e-06*-0.0988471117192469+${fy}*${new_y}+${fz}*${new_z}
variable           dot      equal     -5.38117883238809e-06*-0.0988471117192469+5.77234674508038e-06*${new_y}+${fz}*${new_z}
variable           dot      equal     -5.38117883238809e-06*-0.0988471117192469+5.77234674508038e-06*-0.11575975172439+${fz}*${new_z}
variable           dot      equal     -5.38117883238809e-06*-0.0988471117192469+5.77234674508038e-06*-0.11575975172439+2.43106523884353e-05*${new_z}
variable           dot      equal     -5.38117883238809e-06*-0.0988471117192469+5.77234674508038e-06*-0.11575975172439+2.43106523884353e-05*0.00281924706624981
print              "The dot product: ${dot}"
The dot product: -6.77537054265683e-08

if "(${dot} >= 0.0) && (${dot} < 1.0e-10)" then "jump TaR.in relaxation" elif "(${dot} < 0.0) && (${dot} > -1.0e-10)" "jump TaR.in relaxation" elif "(${iteration} == ${iter_tot}) && (${seed} < 319)" "print 'The iteration number is maximum!'" "next seed" "variable iteration delete" "jump TaR.in loop" elif "(${iteration} == ${iter_tot}) && (${seed} == 319)" "quit" else    "next iteration"    "jump TaR.in iteration"
next iteration
jump TaR.in iteration
variable           norm          equal     sqrt(${new_x}^2+${new_y}^2+${new_z}^2)
variable           norm          equal     sqrt(-0.0988471117192469^2+${new_y}^2+${new_z}^2)
variable           norm          equal     sqrt(-0.0988471117192469^2+-0.11575975172439^2+${new_z}^2)
variable           norm          equal     sqrt(-0.0988471117192469^2+-0.11575975172439^2+0.00281924706624981^2)
variable           unit_x        equal     ${new_x}/${norm}
variable           unit_x        equal     -0.0988471117192469/${norm}
variable           unit_x        equal     -0.0988471117192469/0.15224657555607
variable           unit_y        equal     ${new_y}/${norm}
variable           unit_y        equal     -0.11575975172439/${norm}
variable           unit_y        equal     -0.11575975172439/0.15224657555607
variable           unit_z        equal     ${new_z}/${norm}
variable           unit_z        equal     0.00281924706624981/${norm}
variable           unit_z        equal     0.00281924706624981/0.15224657555607
variable           x_new         equal     ${x0}+${delta}*${unit_x}
variable           x_new         equal     -0.110421803126191+${delta}*${unit_x}
variable           x_new         equal     -0.110421803126191+0.02*${unit_x}
variable           x_new         equal     -0.110421803126191+0.02*-0.64925671633805
variable           y_new         equal     ${y0}+${delta}*${unit_y}
variable           y_new         equal     1.89641749905726+${delta}*${unit_y}
variable           y_new         equal     1.89641749905726+0.02*${unit_y}
variable           y_new         equal     1.89641749905726+0.02*-0.760343878353819
variable           z_new         equal     ${z0}+${delta}*${unit_z}
variable           z_new         equal     5.18741563343363+${delta}*${unit_z}
variable           z_new         equal     5.18741563343363+0.02*${unit_z}
variable           z_new         equal     5.18741563343363+0.02*0.0185176386132345

set                atom          $i    x  ${x_new}  y  ${y_new}  z   ${z_new}
set                atom          288751    x  ${x_new}  y  ${y_new}  z   ${z_new}
set                atom          288751    x  -0.123406937452952  y  ${y_new}  z   ${z_new}
set                atom          288751    x  -0.123406937452952  y  1.88121062149018  z   ${z_new}
set                atom          288751    x  -0.123406937452952  y  1.88121062149018  z   5.18778598620589
Setting atom values ...
  1 settings made for x
  1 settings made for y
  1 settings made for z

fix                hold    carbon   planeforce   ${new_x}  ${new_y}  ${new_z}
fix                hold    carbon   planeforce   -0.0988471117192469  ${new_y}  ${new_z}
fix                hold    carbon   planeforce   -0.0988471117192469  -0.11575975172439  ${new_z}
fix                hold    carbon   planeforce   -0.0988471117192469  -0.11575975172439  0.00281924706624981
min_style          cg
minimize           1.0e-30 1.0e-30 10000 10000
Per MPI rank memory allocation (min/avg/max) = 5.441 | 5.816 | 6.074 Mbytes
Step PotEng KinEng TotEng v_fx v_fy v_fz 
    1274   -1152449.4            0   -1152449.4  0.034475642 -0.030398931 -0.039427239 
    1385   -1152449.4            0   -1152449.4 -1.6788611e-05 1.5300454e-05 3.9610259e-05 
Loop time of 1.28559 on 104 procs for 111 steps with 288751 atoms

99.9% CPU use with 104 MPI tasks x 1 OpenMP threads

Minimization stats:
  Stopping criterion = energy tolerance
  Energy initial, next-to-last, final = 
     -1152449.39393818  -1152449.39533392  -1152449.39533392
  Force two-norm initial, final = 0.17555589 0.00023575951
  Force max component initial, final = 0.076042136 3.9610259e-05
  Final line search alpha, max atom move = 1.0000000 3.9610259e-05
  Iterations, force evaluations = 111 222

MPI task timing breakdown:
Section |  min time  |  avg time  |  max time  |%varavg| %total
---------------------------------------------------------------
Pair    | 0.33567    | 0.94044    | 1.2134     |  26.2 | 73.15
Neigh   | 0          | 0          | 0          |   0.0 |  0.00
Comm    | 0.019328   | 0.21133    | 0.63535    |  38.6 | 16.44
Output  | 0          | 0          | 0          |   0.0 |  0.00
Modify  | 1.2975e-05 | 0.0018402  | 0.0039951  |   2.0 |  0.14
Other   |            | 0.132      |            |       | 10.27

Nlocal:        2776.45 ave        3947 max           0 min
Histogram: 8 4 4 0 4 12 8 2 26 36
Nghost:        3879.03 ave        5424 max         232 min
Histogram: 8 0 8 0 16 0 8 8 16 40
Neighs:        79213.4 ave      115004 max           0 min
Histogram: 8 4 4 0 10 6 8 8 24 32

Total # of neighbors = 8238197
Ave neighs/atom = 28.530454
Neighbor list builds = 0
Dangerous builds = 0
unfix              hold

variable           new_x         delete
variable           new_y         delete
variable           new_z         delete
variable           dot           delete
variable           new_x         equal     ${x0}-${x_0}
variable           new_x         equal     -0.121160754715892-${x_0}
variable           new_x         equal     -0.121160754715892--0.0115746914069441
variable           new_y         equal     ${y0}-${y_0}
variable           new_y         equal     1.87921645304395-${y_0}
variable           new_y         equal     1.87921645304395-2.01217725078165
variable           new_z         equal     ${z0}-${z_0}
variable           new_z         equal     5.18465899233972-${z_0}
variable           new_z         equal     5.18465899233972-5.18459638636738

variable           dot      equal     ${fx}*${new_x}+${fy}*${new_y}+${fz}*${new_z}
variable           dot      equal     -1.67886107765425e-05*${new_x}+${fy}*${new_y}+${fz}*${new_z}
variable           dot      equal     -1.67886107765425e-05*-0.109586063308948+${fy}*${new_y}+${fz}*${new_z}
variable           dot      equal     -1.67886107765425e-05*-0.109586063308948+1.53004543128865e-05*${new_y}+${fz}*${new_z}
variable           dot      equal     -1.67886107765425e-05*-0.109586063308948+1.53004543128865e-05*-0.1329607977377+${fz}*${new_z}
variable           dot      equal     -1.67886107765425e-05*-0.109586063308948+1.53004543128865e-05*-0.1329607977377+3.96102593559353e-05*${new_z}
variable           dot      equal     -1.67886107765425e-05*-0.109586063308948+1.53004543128865e-05*-0.1329607977377+3.96102593559353e-05*6.26059723405348e-05
print              "The dot product: ${dot}"
The dot product: -1.92083008961509e-07

if "(${dot} >= 0.0) && (${dot} < 1.0e-10)" then "jump TaR.in relaxation" elif "(${dot} < 0.0) && (${dot} > -1.0e-10)" "jump TaR.in relaxation" elif "(${iteration} == ${iter_tot}) && (${seed} < 319)" "print 'The iteration number is maximum!'" "next seed" "variable iteration delete" "jump TaR.in loop" elif "(${iteration} == ${iter_tot}) && (${seed} == 319)" "quit" else    "next iteration"    "jump TaR.in iteration"
next iteration
jump TaR.in iteration
variable           norm          equal     sqrt(${new_x}^2+${new_y}^2+${new_z}^2)
variable           norm          equal     sqrt(-0.109586063308948^2+${new_y}^2+${new_z}^2)
variable           norm          equal     sqrt(-0.109586063308948^2+-0.1329607977377^2+${new_z}^2)
variable           norm          equal     sqrt(-0.109586063308948^2+-0.1329607977377^2+6.26059723405348e-05^2)
variable           unit_x        equal     ${new_x}/${norm}
variable           unit_x        equal     -0.109586063308948/${norm}
variable           unit_x        equal     -0.109586063308948/0.172301140234492
variable           unit_y        equal     ${new_y}/${norm}
variable           unit_y        equal     -0.1329607977377/${norm}
variable           unit_y        equal     -0.1329607977377/0.172301140234492
variable           unit_z        equal     ${new_z}/${norm}
variable           unit_z        equal     6.26059723405348e-05/${norm}
variable           unit_z        equal     6.26059723405348e-05/0.172301140234492
variable           x_new         equal     ${x0}+${delta}*${unit_x}
variable           x_new         equal     -0.121160754715892+${delta}*${unit_x}
variable           x_new         equal     -0.121160754715892+0.02*${unit_x}
variable           x_new         equal     -0.121160754715892+0.02*-0.63601473071976
variable           y_new         equal     ${y0}+${delta}*${unit_y}
variable           y_new         equal     1.87921645304395+${delta}*${unit_y}
variable           y_new         equal     1.87921645304395+0.02*${unit_y}
variable           y_new         equal     1.87921645304395+0.02*-0.771676830209875
variable           z_new         equal     ${z0}+${delta}*${unit_z}
variable           z_new         equal     5.18465899233972+${delta}*${unit_z}
variable           z_new         equal     5.18465899233972+0.02*${unit_z}
variable           z_new         equal     5.18465899233972+0.02*0.000363352048949483

set                atom          $i    x  ${x_new}  y  ${y_new}  z   ${z_new}
set                atom          288751    x  ${x_new}  y  ${y_new}  z   ${z_new}
set                atom          288751    x  -0.133881049330287  y  ${y_new}  z   ${z_new}
set                atom          288751    x  -0.133881049330287  y  1.86378291643975  z   ${z_new}
set                atom          288751    x  -0.133881049330287  y  1.86378291643975  z   5.1846662593807
Setting atom values ...
  1 settings made for x
  1 settings made for y
  1 settings made for z

fix                hold    carbon   planeforce   ${new_x}  ${new_y}  ${new_z}
fix                hold    carbon   planeforce   -0.109586063308948  ${new_y}  ${new_z}
fix                hold    carbon   planeforce   -0.109586063308948  -0.1329607977377  ${new_z}
fix                hold    carbon   planeforce   -0.109586063308948  -0.1329607977377  6.26059723405348e-05
min_style          cg
minimize           1.0e-30 1.0e-30 10000 10000
Per MPI rank memory allocation (min/avg/max) = 5.441 | 5.816 | 6.074 Mbytes
Step PotEng KinEng TotEng v_fx v_fy v_fz 
    1385   -1152449.4            0   -1152449.4  0.043164294 -0.035598721 -0.048387932 
    1585   -1152449.4            0   -1152449.4 4.171482e-06 -3.4425745e-06 -9.4426865e-06 
Loop time of 2.36977 on 104 procs for 200 steps with 288751 atoms

99.9% CPU use with 104 MPI tasks x 1 OpenMP threads

Minimization stats:
  Stopping criterion = energy tolerance
  Energy initial, next-to-last, final = 
     -1152449.38029047  -1152449.38176778  -1152449.38176778
  Force two-norm initial, final = 0.17861012 4.5373910e-05
  Force max component initial, final = 0.07762602 9.4426865e-06
  Final line search alpha, max atom move = 1.0000000 9.4426865e-06
  Iterations, force evaluations = 200 400

MPI task timing breakdown:
Section |  min time  |  avg time  |  max time  |%varavg| %total
---------------------------------------------------------------
Pair    | 0.60369    | 1.687      | 2.2034     |  35.2 | 71.19
Neigh   | 0          | 0          | 0          |   0.0 |  0.00
Comm    | 0.038716   | 0.3857     | 1.143      |  51.0 | 16.28
Output  | 0          | 0          | 0          |   0.0 |  0.00
Modify  | 2.3767e-05 | 0.0033054  | 0.007139   |   2.7 |  0.14
Other   |            | 0.2938     |            |       | 12.40

Nlocal:        2776.45 ave        3945 max           0 min
Histogram: 8 4 4 0 4 12 8 2 26 36
Nghost:        3879.07 ave        5424 max         232 min
Histogram: 8 0 8 0 16 0 8 8 16 40
Neighs:        79213.4 ave      114941 max           0 min
Histogram: 8 4 4 0 10 6 8 8 22 34

Total # of neighbors = 8238198
Ave neighs/atom = 28.530457
Neighbor list builds = 0
Dangerous builds = 0
unfix              hold

variable           new_x         delete
variable           new_y         delete
variable           new_z         delete
variable           dot           delete
variable           new_x         equal     ${x0}-${x_0}
variable           new_x         equal     -0.128802220128445-${x_0}
variable           new_x         equal     -0.128802220128445--0.0115746914069441
variable           new_y         equal     ${y0}-${y_0}
variable           new_y         equal     1.85959404302394-${y_0}
variable           new_y         equal     1.85959404302394-2.01217725078165
variable           new_z         equal     ${z0}-${z_0}
variable           new_z         equal     5.17848390165063-${z_0}
variable           new_z         equal     5.17848390165063-5.18459638636738

variable           dot      equal     ${fx}*${new_x}+${fy}*${new_y}+${fz}*${new_z}
variable           dot      equal     4.17148198707649e-06*${new_x}+${fy}*${new_y}+${fz}*${new_z}
variable           dot      equal     4.17148198707649e-06*-0.117227528721501+${fy}*${new_y}+${fz}*${new_z}
variable           dot      equal     4.17148198707649e-06*-0.117227528721501+-3.44257454467271e-06*${new_y}+${fz}*${new_z}
variable           dot      equal     4.17148198707649e-06*-0.117227528721501+-3.44257454467271e-06*-0.15258320775771+${fz}*${new_z}
variable           dot      equal     4.17148198707649e-06*-0.117227528721501+-3.44257454467271e-06*-0.15258320775771+-9.44268646737261e-06*${new_z}
variable           dot      equal     4.17148198707649e-06*-0.117227528721501+-3.44257454467271e-06*-0.15258320775771+-9.44268646737261e-06*-0.00611248471675019
print              "The dot product: ${dot}"
The dot product: 9.39848192368456e-08

if "(${dot} >= 0.0) && (${dot} < 1.0e-10)" then "jump TaR.in relaxation" elif "(${dot} < 0.0) && (${dot} > -1.0e-10)" "jump TaR.in relaxation" elif "(${iteration} == ${iter_tot}) && (${seed} < 319)" "print 'The iteration number is maximum!'" "next seed" "variable iteration delete" "jump TaR.in loop" elif "(${iteration} == ${iter_tot}) && (${seed} == 319)" "quit" else    "next iteration"    "jump TaR.in iteration"
next iteration
jump TaR.in iteration
variable           norm          equal     sqrt(${new_x}^2+${new_y}^2+${new_z}^2)
variable           norm          equal     sqrt(-0.117227528721501^2+${new_y}^2+${new_z}^2)
variable           norm          equal     sqrt(-0.117227528721501^2+-0.15258320775771^2+${new_z}^2)
variable           norm          equal     sqrt(-0.117227528721501^2+-0.15258320775771^2+-0.00611248471675019^2)
variable           unit_x        equal     ${new_x}/${norm}
variable           unit_x        equal     -0.117227528721501/${norm}
variable           unit_x        equal     -0.117227528721501/0.192513093708442
variable           unit_y        equal     ${new_y}/${norm}
variable           unit_y        equal     -0.15258320775771/${norm}
variable           unit_y        equal     -0.15258320775771/0.192513093708442
variable           unit_z        equal     ${new_z}/${norm}
variable           unit_z        equal     -0.00611248471675019/${norm}
variable           unit_z        equal     -0.00611248471675019/0.192513093708442
variable           x_new         equal     ${x0}+${delta}*${unit_x}
variable           x_new         equal     -0.128802220128445+${delta}*${unit_x}
variable           x_new         equal     -0.128802220128445+0.02*${unit_x}
variable           x_new         equal     -0.128802220128445+0.02*-0.608932756018353
variable           y_new         equal     ${y0}+${delta}*${unit_y}
variable           y_new         equal     1.85959404302394+${delta}*${unit_y}
variable           y_new         equal     1.85959404302394+0.02*${unit_y}
variable           y_new         equal     1.85959404302394+0.02*-0.792586129174127
variable           z_new         equal     ${z0}+${delta}*${unit_z}
variable           z_new         equal     5.17848390165063+${delta}*${unit_z}
variable           z_new         equal     5.17848390165063+0.02*${unit_z}
variable           z_new         equal     5.17848390165063+0.02*-0.0317510076795475

set                atom          $i    x  ${x_new}  y  ${y_new}  z   ${z_new}
set                atom          288751    x  ${x_new}  y  ${y_new}  z   ${z_new}
set                atom          288751    x  -0.140980875248812  y  ${y_new}  z   ${z_new}
set                atom          288751    x  -0.140980875248812  y  1.84374232044046  z   ${z_new}
set                atom          288751    x  -0.140980875248812  y  1.84374232044046  z   5.17784888149704
Setting atom values ...
  1 settings made for x
  1 settings made for y
  1 settings made for z

fix                hold    carbon   planeforce   ${new_x}  ${new_y}  ${new_z}
fix                hold    carbon   planeforce   -0.117227528721501  ${new_y}  ${new_z}
fix                hold    carbon   planeforce   -0.117227528721501  -0.15258320775771  ${new_z}
fix                hold    carbon   planeforce   -0.117227528721501  -0.15258320775771  -0.00611248471675019
min_style          cg
minimize           1.0e-30 1.0e-30 10000 10000
Per MPI rank memory allocation (min/avg/max) = 5.441 | 5.816 | 6.074 Mbytes
Step PotEng KinEng TotEng v_fx v_fy v_fz 
    1585   -1152449.4            0   -1152449.4  0.061478577  -0.04451042 -0.067965657 
    1792   -1152449.4            0   -1152449.4 -4.6857234e-06 3.4635042e-06 3.4066669e-06 
Loop time of 2.40116 on 104 procs for 207 steps with 288751 atoms

99.9% CPU use with 104 MPI tasks x 1 OpenMP threads

Minimization stats:
  Stopping criterion = energy tolerance
  Energy initial, next-to-last, final = 
     -1152449.36559238  -1152449.36855271  -1152449.36855271
  Force two-norm initial, final = 0.18966541 7.0029732e-05
  Force max component initial, final = 0.079705278 8.9716368e-06
  Final line search alpha, max atom move = 1.0000000 8.9716368e-06
  Iterations, force evaluations = 207 414

MPI task timing breakdown:
Section |  min time  |  avg time  |  max time  |%varavg| %total
---------------------------------------------------------------
Pair    | 0.62255    | 1.7494     | 2.2588     |  35.8 | 72.86
Neigh   | 0          | 0          | 0          |   0.0 |  0.00
Comm    | 0.039162   | 0.39438    | 1.1861     |  52.6 | 16.42
Output  | 0          | 0          | 0          |   0.0 |  0.00
Modify  | 2.3796e-05 | 0.0034187  | 0.007442   |   2.8 |  0.14
Other   |            | 0.2539     |            |       | 10.57

Nlocal:        2776.45 ave        3942 max           0 min
Histogram: 8 4 4 0 4 12 8 2 26 36
Nghost:        3879.07 ave        5424 max         232 min
Histogram: 8 0 8 0 16 0 8 8 16 40
Neighs:        79213.4 ave      114855 max           0 min
Histogram: 8 4 4 0 10 6 8 8 22 34

Total # of neighbors = 8238194
Ave neighs/atom = 28.530443
Neighbor list builds = 0
Dangerous builds = 0
unfix              hold

variable           new_x         delete
variable           new_y         delete
variable           new_z         delete
variable           dot           delete
variable           new_x         equal     ${x0}-${x_0}
variable           new_x         equal     -0.109681147713884-${x_0}
variable           new_x         equal     -0.109681147713884--0.0115746914069441
variable           new_y         equal     ${y0}-${y_0}
variable           new_y         equal     1.82102031428456-${y_0}
variable           new_y         equal     1.82102031428456-2.01217725078165
variable           new_z         equal     ${z0}-${z_0}
variable           new_z         equal     5.14477016932225-${z_0}
variable           new_z         equal     5.14477016932225-5.18459638636738

variable           dot      equal     ${fx}*${new_x}+${fy}*${new_y}+${fz}*${new_z}
variable           dot      equal     -4.68572340296003e-06*${new_x}+${fy}*${new_y}+${fz}*${new_z}
variable           dot      equal     -4.68572340296003e-06*-0.0981064563069399+${fy}*${new_y}+${fz}*${new_z}
variable           dot      equal     -4.68572340296003e-06*-0.0981064563069399+3.46350416303138e-06*${new_y}+${fz}*${new_z}
variable           dot      equal     -4.68572340296003e-06*-0.0981064563069399+3.46350416303138e-06*-0.19115693649709+${fz}*${new_z}
variable           dot      equal     -4.68572340296003e-06*-0.0981064563069399+3.46350416303138e-06*-0.19115693649709+3.40666692704764e-06*${new_z}
variable           dot      equal     -4.68572340296003e-06*-0.0981064563069399+3.46350416303138e-06*-0.19115693649709+3.40666692704764e-06*-0.03982621704513
print              "The dot product: ${dot}"
The dot product: -3.38047783488158e-07

if "(${dot} >= 0.0) && (${dot} < 1.0e-10)" then "jump TaR.in relaxation" elif "(${dot} < 0.0) && (${dot} > -1.0e-10)" "jump TaR.in relaxation" elif "(${iteration} == ${iter_tot}) && (${seed} < 319)" "print 'The iteration number is maximum!'" "next seed" "variable iteration delete" "jump TaR.in loop" elif "(${iteration} == ${iter_tot}) && (${seed} == 319)" "quit" else    "next iteration"    "jump TaR.in iteration"
next iteration
jump TaR.in iteration
variable           norm          equal     sqrt(${new_x}^2+${new_y}^2+${new_z}^2)
variable           norm          equal     sqrt(-0.0981064563069399^2+${new_y}^2+${new_z}^2)
variable           norm          equal     sqrt(-0.0981064563069399^2+-0.19115693649709^2+${new_z}^2)
variable           norm          equal     sqrt(-0.0981064563069399^2+-0.19115693649709^2+-0.03982621704513^2)
variable           unit_x        equal     ${new_x}/${norm}
variable           unit_x        equal     -0.0981064563069399/${norm}
[...]
---------------------------------------------------------------
Pair    | 0.99371    | 2.7938     | 3.6062     |  44.9 | 72.92
Neigh   | 1.0223e-05 | 0.0029632  | 0.0043063  |   2.2 |  0.08
Comm    | 0.05899    | 0.625      | 1.8962     |  67.3 | 16.31
Output  | 0          | 0          | 0          |   0.0 |  0.00
Modify  | 3.6577e-05 | 0.0035461  | 0.0091535  |   3.7 |  0.09
Other   |            | 0.4061     |            |       | 10.60

Nlocal:        2776.45 ave        3941 max           0 min
Histogram: 8 4 4 0 4 12 8 0 28 36
Nghost:        3879.14 ave        5425 max         232 min
Histogram: 8 0 8 0 16 0 8 8 16 40
Neighs:        79213.4 ave      114810 max           0 min
Histogram: 8 4 4 0 10 6 8 8 22 34

Total # of neighbors = 8238195
Ave neighs/atom = 28.530447
Neighbor list builds = 1
Dangerous builds = 0
print              "${x0} ${y0} ${z0}" append info.dat screen no

if "${seed} < 319" then "next seed" "variable iteration delete" "jump TaR.in loop" else "quit"
next seed
variable iteration delete
jump TaR.in loop
variable                seed              loop     310 319 #20 simulations
variable                iteration         loop      ${iter_tot} #The maximum ietration number per random direction
variable                iteration         loop      150 
clear
OMP_NUM_THREADS environment is not set. Defaulting to 1 thread. (../comm.cpp:94)
  using 1 OpenMP thread(s) per MPI task
units                   metal
atom_style              atomic
dimension                   3
boundary                p p p
atom_modify             map array sort 0 0.0

read_data               poslmp_carbon.dat
Reading data file ...
  orthogonal box = (-122.39241 -121.13707 -37.090501) to (122.39241 121.13707 37.090501)
  13 by 4 by 2 MPI processor grid
  reading atoms ...
  288751 atoms
  read_data CPU = 0.346 seconds

variable                zmax     equal    zhi
variable                zmin     equal    zlo

region                  inner   cylinder   z  1.16564  0.67298333  100.0  ${zmin}  ${zmax}  units  box
region                  inner   cylinder   z  1.16564  0.67298333  100.0  -37.0905005093422  ${zmax}  units  box
region                  inner   cylinder   z  1.16564  0.67298333  100.0  -37.0905005093422  37.0905005093422  units  box
group                   inner   region     inner
199981 atoms in group inner
group                   outer   subtract   all  inner
88770 atoms in group outer
group                   carbon  type       2
1 atoms in group carbon

pair_style              eam/alloy
pair_coeff              * * FeC-Becquart2013.eam.txt Fe C
neighbor                0.3 bin
neigh_modify            delay 0 check yes every 1

compute                 force     carbon   reduce  sum  fx fy fz
variable                fx    equal    c_force[1]
variable                fy    equal    c_force[2]
variable                fz    equal    c_force[3]

fix                     force    outer    setforce      0.0 0.0 0.0
thermo_style            custom   step     v_fx v_fy v_fz pe ke etotal
min_style               cg
minimize                1.0e-30 1.0e-30 10000 10000
Neighbor list info ...
  update every 1 steps, delay 0 steps, check yes
  max neighbors/atom: 2000, page size: 100000
  master list distance cutoff = 5.6
  ghost atom cutoff = 5.6
  binsize = 2.8, bins = 88 87 27
  1 neighbor lists, perpetual/occasional/extra = 1 0 0
  (1) pair eam/alloy, perpetual
      attributes: half, newton on
      pair build: half/bin/atomonly/newton
      stencil: half/bin/3d/newton
      bin: standard
Per MPI rank memory allocation (min/avg/max) = 5.441 | 5.816 | 6.074 Mbytes
Step v_fx v_fy v_fz PotEng KinEng TotEng 
       0   -26.337995    15.247854   -51.288338     -1152433            0     -1152433 
     165 -4.5265192e-05 4.5207688e-06 4.8263128e-05   -1152449.5            0   -1152449.5 
Loop time of 1.8858 on 104 procs for 165 steps with 288751 atoms

99.9% CPU use with 104 MPI tasks x 1 OpenMP threads

Minimization stats:
  Stopping criterion = energy tolerance
  Energy initial, next-to-last, final = 
     -1152433.01643242  -1152449.45035284  -1152449.45035284
  Force two-norm initial, final = 89.244980 0.00016710947
  Force max component initial, final = 58.383279 4.8263128e-05
  Final line search alpha, max atom move = 1.0000000 4.8263128e-05
  Iterations, force evaluations = 165 322

MPI task timing breakdown:
Section |  min time  |  avg time  |  max time  |%varavg| %total
---------------------------------------------------------------
Pair    | 0.50436    | 1.365      | 1.7577     |  31.1 | 72.38
Neigh   | 5.0528e-05 | 0.014783   | 0.021467   |   5.0 |  0.78
Comm    | 0.029414   | 0.3071     | 0.91537    |  46.2 | 16.28
Output  | 0          | 0          | 0          |   0.0 |  0.00
Modify  | 1.78e-05   | 0.0017288  | 0.00444    |   2.6 |  0.09
Other   |            | 0.1972     |            |       | 10.46

Nlocal:        2776.45 ave        3958 max           0 min
Histogram: 8 4 4 0 4 12 8 2 28 34
Nghost:        3879.03 ave        5424 max         232 min
Histogram: 8 0 8 0 16 0 8 8 16 40
Neighs:        79213.6 ave      115374 max           0 min
Histogram: 8 4 4 0 10 6 8 8 24 32

Total # of neighbors = 8238211
Ave neighs/atom = 28.530502
Neighbor list builds = 5
Dangerous builds = 0
#write_data              minimize.dat
#quit

variable                fx_0  equal    ${fx}
variable                fx_0  equal    -4.52651916686697e-05
variable                fy_0  equal    ${fy}
variable                fy_0  equal    4.52076880524954e-06
variable                fz_0  equal    ${fz}
variable                fz_0  equal    4.82631284723922e-05

variable                i     equal    288751

variable                x0    equal    x[v_i]
variable                y0    equal    y[v_i]
variable                z0    equal    z[v_i]

variable                x     equal    x[v_i]+v_delta*random(-1.0,1.0,${seed})
variable                x     equal    x[v_i]+v_delta*random(-1.0,1.0,319)
variable                y     equal    y[v_i]+v_delta*random(-1.0,1.0,${seed})
variable                y     equal    y[v_i]+v_delta*random(-1.0,1.0,319)
variable                z     equal    z[v_i]+v_delta*random(-1.0,1.0,${seed})
variable                z     equal    z[v_i]+v_delta*random(-1.0,1.0,319)
variable                x_0    equal     ${x0}
variable                x_0    equal     -0.0115746914069441
variable                y_0    equal     ${y0}
variable                y_0    equal     2.01217725078165
variable                z_0    equal     ${z0}
variable                z_0    equal     5.18459638636738
variable                x_1    equal     $x
variable                x_1    equal     -0.0124960719268111
variable                y_1    equal     $y
variable                y_1    equal     2.01343550721704
variable                z_1    equal     $z
variable                z_1    equal     5.19030426066547

set                atom        $i    x  ${x_1}  y  ${y_1}  z  ${z_1}
set                atom        288751    x  ${x_1}  y  ${y_1}  z  ${z_1}
set                atom        288751    x  -0.0124960719268111  y  ${y_1}  z  ${z_1}
set                atom        288751    x  -0.0124960719268111  y  2.01343550721704  z  ${z_1}
set                atom        288751    x  -0.0124960719268111  y  2.01343550721704  z  5.19030426066547
Setting atom values ...
  1 settings made for x
  1 settings made for y
  1 settings made for z
variable           vector_x          equal     ${x_1}-${x_0}
variable           vector_x          equal     -0.0124960719268111-${x_0}
variable           vector_x          equal     -0.0124960719268111--0.0115746914069441
variable           vector_y          equal     ${y_1}-${y_0}
variable           vector_y          equal     2.01343550721704-${y_0}
variable           vector_y          equal     2.01343550721704-2.01217725078165
variable           vector_z          equal     ${z_1}-${z_0}
variable           vector_z          equal     5.19030426066547-${z_0}
variable           vector_z          equal     5.19030426066547-5.18459638636738

#dump               1     all   custom   1000   dump_minimize.atom.* id type x y z
#dump_modify        1     element  Fe C
thermo_style       custom   step  pe ke etotal v_fx v_fy v_fz
thermo             1000

fix                hold    carbon   planeforce   ${vector_x}  ${vector_y}  ${vector_z}
fix                hold    carbon   planeforce   -0.000921380519867  ${vector_y}  ${vector_z}
fix                hold    carbon   planeforce   -0.000921380519867  0.00125825643538979  ${vector_z}
fix                hold    carbon   planeforce   -0.000921380519867  0.00125825643538979  0.00570787429809005
min_style          cg
minimize           1.0e-30 1.0e-30 10000 10000
Per MPI rank memory allocation (min/avg/max) = 5.441 | 5.816 | 6.074 Mbytes
Step PotEng KinEng TotEng v_fx v_fy v_fz 
     165   -1152449.5            0   -1152449.5 0.0035798169 0.0062245172 -0.0007942826 
     296   -1152449.5            0   -1152449.5  9.78323e-07 9.517047e-07 -5.1872342e-08 
Loop time of 1.54786 on 104 procs for 131 steps with 288751 atoms

99.9% CPU use with 104 MPI tasks x 1 OpenMP threads

Minimization stats:
  Stopping criterion = energy tolerance
  Energy initial, next-to-last, final = 
     -1152449.45007371  -1152449.45025949  -1152449.45025949
  Force two-norm initial, final = 0.062485075 0.00014740889
  Force max component initial, final = 0.028132362 7.2744318e-06
  Final line search alpha, max atom move = 1.0000000 7.2744318e-06
  Iterations, force evaluations = 131 262

MPI task timing breakdown:
Section |  min time  |  avg time  |  max time  |%varavg| %total
---------------------------------------------------------------
Pair    | 0.39323    | 1.1016     | 1.4331     |  28.3 | 71.17
Neigh   | 0          | 0          | 0          |   0.0 |  0.00
Comm    | 0.023136   | 0.251      | 0.76113    |  41.4 | 16.22
Output  | 0          | 0          | 0          |   0.0 |  0.00
Modify  | 1.5267e-05 | 0.0021607  | 0.0046664  |   2.2 |  0.14
Other   |            | 0.1931     |            |       | 12.47

Nlocal:        2776.45 ave        3958 max           0 min
Histogram: 8 4 4 0 4 12 8 2 28 34
Nghost:        3879.03 ave        5424 max         232 min
Histogram: 8 0 8 0 16 0 8 8 16 40
Neighs:        79213.4 ave      115370 max           0 min
Histogram: 8 4 4 0 10 6 8 8 24 32

Total # of neighbors = 8238197
Ave neighs/atom = 28.530454
Neighbor list builds = 0
Dangerous builds = 0
unfix              hold

variable           new_x         equal     ${x0}-${x_0}
variable           new_x         equal     -0.0125485582672275-${x_0}
variable           new_x         equal     -0.0125485582672275--0.0115746914069441
variable           new_y         equal     ${y0}-${y_0}
variable           new_y         equal     2.01348320156212-${y_0}
variable           new_y         equal     2.01348320156212-2.01217725078165
variable           new_z         equal     ${z0}-${z_0}
variable           new_z         equal     5.1902852743314-${z_0}
variable           new_z         equal     5.1902852743314-5.18459638636738

label iteration
variable           norm          equal     sqrt(${new_x}^2+${new_y}^2+${new_z}^2)
variable           norm          equal     sqrt(-0.0009738668602834^2+${new_y}^2+${new_z}^2)
variable           norm          equal     sqrt(-0.0009738668602834^2+0.0013059507804698^2+${new_z}^2)
variable           norm          equal     sqrt(-0.0009738668602834^2+0.0013059507804698^2+0.00568888796401978^2)
variable           unit_x        equal     ${new_x}/${norm}
variable           unit_x        equal     -0.0009738668602834/${norm}
variable           unit_x        equal     -0.0009738668602834/0.00591754766518505
variable           unit_y        equal     ${new_y}/${norm}
variable           unit_y        equal     0.0013059507804698/${norm}
variable           unit_y        equal     0.0013059507804698/0.00591754766518505
variable           unit_z        equal     ${new_z}/${norm}
variable           unit_z        equal     0.00568888796401978/${norm}
variable           unit_z        equal     0.00568888796401978/0.00591754766518505
variable           x_new         equal     ${x0}+${delta}*${unit_x}
variable           x_new         equal     -0.0125485582672275+${delta}*${unit_x}
variable           x_new         equal     -0.0125485582672275+0.02*${unit_x}
variable           x_new         equal     -0.0125485582672275+0.02*-0.164572710755334
variable           y_new         equal     ${y0}+${delta}*${unit_y}
variable           y_new         equal     2.01348320156212+${delta}*${unit_y}
variable           y_new         equal     2.01348320156212+0.02*${unit_y}
variable           y_new         equal     2.01348320156212+0.02*0.220691214394969
variable           z_new         equal     ${z0}+${delta}*${unit_z}
variable           z_new         equal     5.1902852743314+${delta}*${unit_z}
variable           z_new         equal     5.1902852743314+0.02*${unit_z}
variable           z_new         equal     5.1902852743314+0.02*0.96135904362705

set                atom          $i    x  ${x_new}  y  ${y_new}  z   ${z_new}
set                atom          288751    x  ${x_new}  y  ${y_new}  z   ${z_new}
set                atom          288751    x  -0.0158400124823342  y  ${y_new}  z   ${z_new}
set                atom          288751    x  -0.0158400124823342  y  2.01789702585002  z   ${z_new}
set                atom          288751    x  -0.0158400124823342  y  2.01789702585002  z   5.20951245520394
Setting atom values ...
  1 settings made for x
  1 settings made for y
  1 settings made for z

fix                hold    carbon   planeforce   ${new_x}  ${new_y}  ${new_z}
fix                hold    carbon   planeforce   -0.0009738668602834  ${new_y}  ${new_z}
fix                hold    carbon   planeforce   -0.0009738668602834  0.0013059507804698  ${new_z}
fix                hold    carbon   planeforce   -0.0009738668602834  0.0013059507804698  0.00568888796401978
min_style          cg
minimize           1.0e-30 1.0e-30 10000 10000
Per MPI rank memory allocation (min/avg/max) = 5.441 | 5.816 | 6.074 Mbytes
Step PotEng KinEng TotEng v_fx v_fy v_fz 
     296   -1152449.4            0   -1152449.4   0.01266696  0.026402772 -0.0038926392 
     565   -1152449.4            0   -1152449.4 2.701432e-07 2.9109803e-08 3.9562661e-08 
Loop time of 3.12521 on 104 procs for 269 steps with 288751 atoms

99.9% CPU use with 104 MPI tasks x 1 OpenMP threads

Minimization stats:
  Stopping criterion = energy tolerance
  Energy initial, next-to-last, final = 
      -1152449.4465033   -1152449.4486019   -1152449.4486019
  Force two-norm initial, final = 0.2120565 2.5695315e-06
  Force max component initial, final = 0.09815807 3.4076294e-07
  Final line search alpha, max atom move = 1.0000000 3.4076294e-07
  Iterations, force evaluations = 269 538

MPI task timing breakdown:
Section |  min time  |  avg time  |  max time  |%varavg| %total
---------------------------------------------------------------
Pair    | 0.80502    | 2.26       | 2.9383     |  40.6 | 72.31
Neigh   | 0          | 0          | 0          |   0.0 |  0.00
Comm    | 0.049288   | 0.50567    | 1.515      |  59.7 | 16.18
Output  | 0          | 0          | 0          |   0.0 |  0.00
Modify  | 3.1439e-05 | 0.0044319  | 0.0094797  |   3.1 |  0.14
Other   |            | 0.3551     |            |       | 11.36

Nlocal:        2776.45 ave        3958 max           0 min
Histogram: 8 4 4 0 4 12 8 2 28 34
Nghost:        3879.03 ave        5424 max         232 min
Histogram: 8 0 8 0 16 0 8 8 16 40
Neighs:        79213.4 ave      115370 max           0 min
Histogram: 8 4 4 0 10 6 8 8 24 32

Total # of neighbors = 8238198
Ave neighs/atom = 28.530457
Neighbor list builds = 0
Dangerous builds = 0
unfix              hold

variable           new_x         delete
variable           new_y         delete
variable           new_z         delete
variable           dot           delete
variable           new_x         equal     ${x0}-${x_0}
variable           new_x         equal     -0.0159260353845893-${x_0}
variable           new_x         equal     -0.0159260353845893--0.0115746914069441
variable           new_y         equal     ${y0}-${y_0}
variable           new_y         equal     2.01874314167238-${y_0}
variable           new_y         equal     2.01874314167238-2.01217725078165
variable           new_z         equal     ${z0}-${z_0}
variable           new_z         equal     5.20930349336819-${z_0}
variable           new_z         equal     5.20930349336819-5.18459638636738

variable           dot      equal     ${fx}*${new_x}+${fy}*${new_y}+${fz}*${new_z}
variable           dot      equal     2.70143203631287e-07*${new_x}+${fy}*${new_y}+${fz}*${new_z}
variable           dot      equal     2.70143203631287e-07*-0.0043513439776452+${fy}*${new_y}+${fz}*${new_z}
variable           dot      equal     2.70143203631287e-07*-0.0043513439776452+2.91098029143246e-08*${new_y}+${fz}*${new_z}
variable           dot      equal     2.70143203631287e-07*-0.0043513439776452+2.91098029143246e-08*0.00656589089072979+${fz}*${new_z}
variable           dot      equal     2.70143203631287e-07*-0.0043513439776452+2.91098029143246e-08*0.00656589089072979+3.95626606006212e-08*${new_z}
variable           dot      equal     2.70143203631287e-07*-0.0043513439776452+2.91098029143246e-08*0.00656589089072979+3.95626606006212e-08*0.0247071070008102
print              "The dot product: ${dot}"
The dot product: -6.87532374039215e-12

if "(${dot} >= 0.0) && (${dot} < 1.0e-10)" then "jump TaR.in relaxation" elif "(${dot} < 0.0) && (${dot} > -1.0e-10)" "jump TaR.in relaxation" elif "(${iteration} == ${iter_tot}) && (${seed} < 319)" "print 'The iteration number is maximum!'" "next seed" "variable iteration delete" "jump TaR.in loop" elif "(${iteration} == ${iter_tot}) && (${seed} == 319)" "quit" else    "next iteration"    "jump TaR.in iteration"
jump TaR.in relaxation
#full relaxation
min_style          cg
minimize           1.0e-30 1.0e-30 10000 10000
Per MPI rank memory allocation (min/avg/max) = 5.441 | 5.816 | 6.074 Mbytes
Step PotEng KinEng TotEng v_fx v_fy v_fz 
     565   -1152449.4            0   -1152449.4  0.021873112 -0.029331346  -0.12777117 
     775   -1152449.5            0   -1152449.5 -5.5461037e-06 1.6545828e-06 2.0130987e-05 
Loop time of 2.47049 on 104 procs for 210 steps with 288751 atoms

99.9% CPU use with 104 MPI tasks x 1 OpenMP threads

Minimization stats:
  Stopping criterion = energy tolerance
  Energy initial, next-to-last, final = 
      -1152449.4486019  -1152449.45035286  -1152449.45035286
  Force two-norm initial, final = 0.13290686 9.3018464e-05
  Force max component initial, final = 0.12777117 2.0130987e-05
  Final line search alpha, max atom move = 1.0000000 2.0130987e-05
  Iterations, force evaluations = 210 420

MPI task timing breakdown:
Section |  min time  |  avg time  |  max time  |%varavg| %total
---------------------------------------------------------------
Pair    | 0.63487    | 1.7692     | 2.3061     |  35.8 | 71.61
Neigh   | 0          | 0          | 0          |   0.0 |  0.00
Comm    | 0.039895   | 0.40186    | 1.1851     |  51.9 | 16.27
Output  | 0          | 0          | 0          |   0.0 |  0.00
Modify  | 2.3323e-05 | 0.0022468  | 0.0057535  |   3.0 |  0.09
Other   |            | 0.2972     |            |       | 12.03

Nlocal:        2776.45 ave        3958 max           0 min
Histogram: 8 4 4 0 4 12 8 2 28 34
Nghost:        3879.07 ave        5425 max         232 min
Histogram: 8 0 8 0 16 0 8 8 16 40
Neighs:        79213.4 ave      115370 max           0 min
Histogram: 8 4 4 0 10 6 8 8 24 32

Total # of neighbors = 8238197
Ave neighs/atom = 28.530454
Neighbor list builds = 0
Dangerous builds = 0
print              "${x0} ${y0} ${z0}" append info.dat screen no

if "${seed} < 319" then "next seed" "variable iteration delete" "jump TaR.in loop" else "quit"
quit
