LAMMPS (29 Oct 2020)
OMP_NUM_THREADS environment is not set. Defaulting to 1 thread. (../comm.cpp:94)
  using 1 OpenMP thread(s) per MPI task
########
#
########
variable                delta             equal     0.04 # the step size should be larger otherwise the number of
#the energy minimum sites is smaller
variable                iter_tot          equal     70

label                   loop
variable                seed              loop     310 319 #20 simulations
variable                iteration         loop      ${iter_tot} #The maximum ietration number per random direction
variable                iteration         loop      70 
clear
OMP_NUM_THREADS environment is not set. Defaulting to 1 thread. (../comm.cpp:94)
  using 1 OpenMP thread(s) per MPI task
units                   metal
atom_style              atomic
dimension                   3
boundary                p p p
atom_modify             map array sort 0 0.0

read_data               poslmp_carbon.dat
Reading data file ...
  orthogonal box = (-122.39241 -121.13707 -37.090501) to (122.39241 121.13707 37.090501)
  13 by 4 by 2 MPI processor grid
  reading atoms ...
  288751 atoms
  read_data CPU = 0.371 seconds

variable                zmax     equal    zhi
variable                zmin     equal    zlo

region                  inner   cylinder   z  1.16564  0.67298333  100.0  ${zmin}  ${zmax}  units  box
region                  inner   cylinder   z  1.16564  0.67298333  100.0  -37.0905005093422  ${zmax}  units  box
region                  inner   cylinder   z  1.16564  0.67298333  100.0  -37.0905005093422  37.0905005093422  units  box
group                   inner   region     inner
199981 atoms in group inner
group                   outer   subtract   all  inner
88770 atoms in group outer
group                   carbon  type       2
1 atoms in group carbon

pair_style              eam/alloy
pair_coeff              * * FeC-Becquart2013.eam.txt Fe C
neighbor                0.3 bin
neigh_modify            delay 0 check yes every 1

compute                 force     carbon   reduce  sum  fx fy fz
variable                fx    equal    c_force[1]
variable                fy    equal    c_force[2]
variable                fz    equal    c_force[3]

fix                     force    outer    setforce      0.0 0.0 0.0
thermo_style            custom   step     v_fx v_fy v_fz pe ke etotal
min_style               cg
minimize                1.0e-30 1.0e-30 10000 10000
Neighbor list info ...
  update every 1 steps, delay 0 steps, check yes
  max neighbors/atom: 2000, page size: 100000
  master list distance cutoff = 5.6
  ghost atom cutoff = 5.6
  binsize = 2.8, bins = 88 87 27
  1 neighbor lists, perpetual/occasional/extra = 1 0 0
  (1) pair eam/alloy, perpetual
      attributes: half, newton on
      pair build: half/bin/atomonly/newton
      stencil: half/bin/3d/newton
      bin: standard
Per MPI rank memory allocation (min/avg/max) = 5.441 | 5.816 | 6.074 Mbytes
Step v_fx v_fy v_fz PotEng KinEng TotEng 
       0   -25.409511    15.059185      49.9568   -1152433.5            0   -1152433.5 
     171 -1.1351615e-05 1.9111511e-05 4.9456971e-06   -1152449.5            0   -1152449.5 
Loop time of 1.98648 on 104 procs for 171 steps with 288751 atoms

99.8% CPU use with 104 MPI tasks x 1 OpenMP threads

Minimization stats:
  Stopping criterion = energy tolerance
  Energy initial, next-to-last, final = 
     -1152433.47074207  -1152449.45035261  -1152449.45035261
  Force two-norm initial, final = 87.079027 9.3306139e-05
  Force max component initial, final = 57.190163 1.9111511e-05
  Final line search alpha, max atom move = 1.0000000 1.9111511e-05
  Iterations, force evaluations = 171 333

MPI task timing breakdown:
Section |  min time  |  avg time  |  max time  |%varavg| %total
---------------------------------------------------------------
Pair    | 0.52811    | 1.4067     | 1.8153     |  31.3 | 70.81
Neigh   | 5.1267e-05 | 0.014717   | 0.021503   |   5.0 |  0.74
Comm    | 0.039452   | 0.31971    | 0.9526     |  46.5 | 16.09
Output  | 0          | 0          | 0          |   0.0 |  0.00
Modify  | 2.0219e-05 | 0.0017991  | 0.004589   |   2.6 |  0.09
Other   |            | 0.2436     |            |       | 12.26

Nlocal:        2776.45 ave        3958 max           0 min
Histogram: 8 4 4 0 4 12 8 2 28 34
Nghost:        3879.03 ave        5424 max         232 min
Histogram: 8 0 8 0 16 0 8 8 16 40
Neighs:        79213.5 ave      115369 max           0 min
Histogram: 8 4 4 0 10 6 8 8 24 32

Total # of neighbors = 8238206
Ave neighs/atom = 28.530485
Neighbor list builds = 5
Dangerous builds = 0
#write_data              minimize.dat
#quit

variable                fx_0  equal    ${fx}
variable                fx_0  equal    -1.13516150793691e-05
variable                fy_0  equal    ${fy}
variable                fy_0  equal    1.91115107518458e-05
variable                fz_0  equal    ${fz}
variable                fz_0  equal    4.94569707187864e-06

variable                i     equal    288751

variable                x0    equal    x[v_i]
variable                y0    equal    y[v_i]
variable                z0    equal    z[v_i]

variable                x     equal    x[v_i]+v_delta*random(-1.0,1.0,${seed})
variable                x     equal    x[v_i]+v_delta*random(-1.0,1.0,310)
variable                y     equal    y[v_i]+v_delta*random(-1.0,1.0,${seed})
variable                y     equal    y[v_i]+v_delta*random(-1.0,1.0,310)
variable                z     equal    z[v_i]+v_delta*random(-1.0,1.0,${seed})
variable                z     equal    z[v_i]+v_delta*random(-1.0,1.0,310)
variable                x_0    equal     ${x0}
variable                x_0    equal     -0.582746628828473
variable                y_0    equal     ${y0}
variable                y_0    equal     1.02287982353757
variable                z_0    equal     ${z0}
variable                z_0    equal     4.70619952764579
variable                x_1    equal     $x
variable                x_1    equal     -0.597164219923444
variable                y_1    equal     $y
variable                y_1    equal     1.00441775688718
variable                z_1    equal     $z
variable                z_1    equal     4.71198201265403

set                atom        $i    x  ${x_1}  y  ${y_1}  z  ${z_1}
set                atom        288751    x  ${x_1}  y  ${y_1}  z  ${z_1}
set                atom        288751    x  -0.597164219923444  y  ${y_1}  z  ${z_1}
set                atom        288751    x  -0.597164219923444  y  1.00441775688718  z  ${z_1}
set                atom        288751    x  -0.597164219923444  y  1.00441775688718  z  4.71198201265403
Setting atom values ...
  1 settings made for x
  1 settings made for y
  1 settings made for z
variable           vector_x          equal     ${x_1}-${x_0}
variable           vector_x          equal     -0.597164219923444-${x_0}
variable           vector_x          equal     -0.597164219923444--0.582746628828473
variable           vector_y          equal     ${y_1}-${y_0}
variable           vector_y          equal     1.00441775688718-${y_0}
variable           vector_y          equal     1.00441775688718-1.02287982353757
variable           vector_z          equal     ${z_1}-${z_0}
variable           vector_z          equal     4.71198201265403-${z_0}
variable           vector_z          equal     4.71198201265403-4.70619952764579

#dump               1     all   custom   1000   dump_minimize.atom.* id type x y z
#dump_modify        1     element  Fe C
thermo_style       custom   step  pe ke etotal v_fx v_fy v_fz
thermo             1000

fix                hold    carbon   planeforce   ${vector_x}  ${vector_y}  ${vector_z}
fix                hold    carbon   planeforce   -0.0144175910949711  ${vector_y}  ${vector_z}
fix                hold    carbon   planeforce   -0.0144175910949711  -0.0184620666503901  ${vector_z}
fix                hold    carbon   planeforce   -0.0144175910949711  -0.0184620666503901  0.00578248500823975
min_style          cg
minimize           1.0e-30 1.0e-30 10000 10000
Per MPI rank memory allocation (min/avg/max) = 5.441 | 5.816 | 6.074 Mbytes
Step PotEng KinEng TotEng v_fx v_fy v_fz 
     171   -1152449.4            0   -1152449.4 -0.026319113  0.010053026 -0.033525132 
     393   -1152449.4            0   -1152449.4 2.7198775e-06 -1.2881161e-06 2.6688867e-06 
Loop time of 2.58462 on 104 procs for 222 steps with 288751 atoms

99.9% CPU use with 104 MPI tasks x 1 OpenMP threads

Minimization stats:
  Stopping criterion = energy tolerance
  Energy initial, next-to-last, final = 
     -1152449.44724359  -1152449.44916263  -1152449.44916263
  Force two-norm initial, final = 0.19912478 3.5048236e-05
  Force max component initial, final = 0.10546002 2.9656232e-06
  Final line search alpha, max atom move = 1.0000000 2.9656232e-06
  Iterations, force evaluations = 222 444

MPI task timing breakdown:
Section |  min time  |  avg time  |  max time  |%varavg| %total
---------------------------------------------------------------
Pair    | 0.6817     | 1.875      | 2.4258     |  36.7 | 72.55
Neigh   | 0          | 0          | 0          |   0.0 |  0.00
Comm    | 0.049302   | 0.41982    | 1.2646     |  54.9 | 16.24
Output  | 0          | 0          | 0          |   0.0 |  0.00
Modify  | 2.8747e-05 | 0.0036631  | 0.0078422  |   2.9 |  0.14
Other   |            | 0.2861     |            |       | 11.07

Nlocal:        2776.45 ave        3960 max           0 min
Histogram: 8 4 4 0 4 12 8 2 28 34
Nghost:        3879.03 ave        5424 max         232 min
Histogram: 8 0 8 0 16 0 8 8 16 40
Neighs:        79213.4 ave      115431 max           0 min
Histogram: 8 4 4 0 10 6 8 8 24 32

Total # of neighbors = 8238197
Ave neighs/atom = 28.530454
Neighbor list builds = 0
Dangerous builds = 0
unfix              hold

variable           new_x         equal     ${x0}-${x_0}
variable           new_x         equal     -0.597125013596958-${x_0}
variable           new_x         equal     -0.597125013596958--0.582746628828473
variable           new_y         equal     ${y0}-${y_0}
variable           new_y         equal     1.00422057129593-${y_0}
variable           new_y         equal     1.00422057129593-1.02287982353757
variable           new_z         equal     ${z0}-${z_0}
variable           new_z         equal     4.71145020102985-${z_0}
variable           new_z         equal     4.71145020102985-4.70619952764579

label iteration
variable           norm          equal     sqrt(${new_x}^2+${new_y}^2+${new_z}^2)
variable           norm          equal     sqrt(-0.0143783847684851^2+${new_y}^2+${new_z}^2)
variable           norm          equal     sqrt(-0.0143783847684851^2+-0.01865925224164^2+${new_z}^2)
variable           norm          equal     sqrt(-0.0143783847684851^2+-0.01865925224164^2+0.00525067338405982^2)
variable           unit_x        equal     ${new_x}/${norm}
variable           unit_x        equal     -0.0143783847684851/${norm}
variable           unit_x        equal     -0.0143783847684851/0.0241345232758765
variable           unit_y        equal     ${new_y}/${norm}
variable           unit_y        equal     -0.01865925224164/${norm}
variable           unit_y        equal     -0.01865925224164/0.0241345232758765
variable           unit_z        equal     ${new_z}/${norm}
variable           unit_z        equal     0.00525067338405982/${norm}
variable           unit_z        equal     0.00525067338405982/0.0241345232758765
variable           x_new         equal     ${x0}+${delta}*${unit_x}
variable           x_new         equal     -0.597125013596958+${delta}*${unit_x}
variable           x_new         equal     -0.597125013596958+0.04*${unit_x}
variable           x_new         equal     -0.597125013596958+0.04*-0.595760048960939
variable           y_new         equal     ${y0}+${delta}*${unit_y}
variable           y_new         equal     1.00422057129593+${delta}*${unit_y}
variable           y_new         equal     1.00422057129593+0.04*${unit_y}
variable           y_new         equal     1.00422057129593+0.04*-0.773135314435265
variable           z_new         equal     ${z0}+${delta}*${unit_z}
variable           z_new         equal     4.71145020102985+${delta}*${unit_z}
variable           z_new         equal     4.71145020102985+0.04*${unit_z}
variable           z_new         equal     4.71145020102985+0.04*0.217558611953529

set                atom          $i    x  ${x_new}  y  ${y_new}  z   ${z_new}
set                atom          288751    x  ${x_new}  y  ${y_new}  z   ${z_new}
set                atom          288751    x  -0.620955415555396  y  ${y_new}  z   ${z_new}
set                atom          288751    x  -0.620955415555396  y  0.973295158718519  z   ${z_new}
set                atom          288751    x  -0.620955415555396  y  0.973295158718519  z   4.72015254550799
Setting atom values ...
  1 settings made for x
  1 settings made for y
  1 settings made for z

fix                hold    carbon   planeforce   ${new_x}  ${new_y}  ${new_z}
fix                hold    carbon   planeforce   -0.0143783847684851  ${new_y}  ${new_z}
fix                hold    carbon   planeforce   -0.0143783847684851  -0.01865925224164  ${new_z}
fix                hold    carbon   planeforce   -0.0143783847684851  -0.01865925224164  0.00525067338405982
min_style          cg
minimize           1.0e-30 1.0e-30 10000 10000
Per MPI rank memory allocation (min/avg/max) = 5.441 | 5.816 | 6.074 Mbytes
Step PotEng KinEng TotEng v_fx v_fy v_fz 
     393   -1152449.4            0   -1152449.4 -0.043622923  0.016335416 -0.061405555 
     627   -1152449.4            0   -1152449.4 4.0830893e-08 -1.0595833e-06 -3.653617e-06 
Loop time of 2.75795 on 104 procs for 234 steps with 288751 atoms

99.9% CPU use with 104 MPI tasks x 1 OpenMP threads

Minimization stats:
  Stopping criterion = energy tolerance
  Energy initial, next-to-last, final = 
      -1152449.4365224  -1152449.44176574  -1152449.44176574
  Force two-norm initial, final = 0.33048694 3.0825403e-05
  Force max component initial, final = 0.18623232 3.6536170e-06
  Final line search alpha, max atom move = 1.0000000 3.6536170e-06
  Iterations, force evaluations = 234 468

MPI task timing breakdown:
Section |  min time  |  avg time  |  max time  |%varavg| %total
---------------------------------------------------------------
Pair    | 0.70901    | 1.962      | 2.5598     |  37.9 | 71.14
Neigh   | 0          | 0          | 0          |   0.0 |  0.00
Comm    | 0.052271   | 0.44697    | 1.3287     |  55.1 | 16.21
Output  | 0          | 0          | 0          |   0.0 |  0.00
Modify  | 2.9311e-05 | 0.0038544  | 0.0081761  |   2.9 |  0.14
Other   |            | 0.3452     |            |       | 12.51

Nlocal:        2776.45 ave        3960 max           0 min
Histogram: 8 4 4 0 4 12 8 2 28 34
Nghost:        3879.03 ave        5424 max         232 min
Histogram: 8 0 8 0 16 0 8 8 16 40
Neighs:        79213.4 ave      115431 max           0 min
Histogram: 8 4 4 0 10 6 8 8 24 32

Total # of neighbors = 8238194
Ave neighs/atom = 28.530443
Neighbor list builds = 0
Dangerous builds = 0
unfix              hold

variable           new_x         delete
variable           new_y         delete
variable           new_z         delete
variable           dot           delete
variable           new_x         equal     ${x0}-${x_0}
variable           new_x         equal     -0.621402405158543-${x_0}
variable           new_x         equal     -0.621402405158543--0.582746628828473
variable           new_y         equal     ${y0}-${y_0}
variable           new_y         equal     0.972994993742169-${y_0}
variable           new_y         equal     0.972994993742169-1.02287982353757
variable           new_z         equal     ${z0}-${z_0}
variable           new_z         equal     4.71786182170329-${z_0}
variable           new_z         equal     4.71786182170329-4.70619952764579
variable           module        equal     sqrt(${new_x}*${new_x}+${new_y}*${new_y}+${new_z}*${new_z})
variable           module        equal     sqrt(-0.03865577633007*${new_x}+${new_y}*${new_y}+${new_z}*${new_z})
variable           module        equal     sqrt(-0.03865577633007*-0.03865577633007+${new_y}*${new_y}+${new_z}*${new_z})
variable           module        equal     sqrt(-0.03865577633007*-0.03865577633007+-0.049884829795401*${new_y}+${new_z}*${new_z})
variable           module        equal     sqrt(-0.03865577633007*-0.03865577633007+-0.049884829795401*-0.049884829795401+${new_z}*${new_z})
variable           module        equal     sqrt(-0.03865577633007*-0.03865577633007+-0.049884829795401*-0.049884829795401+0.0116622940575004*${new_z})
variable           module        equal     sqrt(-0.03865577633007*-0.03865577633007+-0.049884829795401*-0.049884829795401+0.0116622940575004*0.0116622940575004)
variable           unitx         equal     ${new_x}/${module}
variable           unitx         equal     -0.03865577633007/${module}
variable           unitx         equal     -0.03865577633007/0.0641776782852117
variable           unity         equal     ${new_y}/${module}
variable           unity         equal     -0.049884829795401/${module}
variable           unity         equal     -0.049884829795401/0.0641776782852117
variable           unitz         equal     ${new_z}/${module}
variable           unitz         equal     0.0116622940575004/${module}
variable           unitz         equal     0.0116622940575004/0.0641776782852117

variable           dot      equal     ${fx}*${unitx}+${fy}*${unity}+${fz}*${unitz}
variable           dot      equal     4.08308933791594e-08*${unitx}+${fy}*${unity}+${fz}*${unitz}
variable           dot      equal     4.08308933791594e-08*-0.602324318406784+${fy}*${unity}+${fz}*${unitz}
variable           dot      equal     4.08308933791594e-08*-0.602324318406784+-1.05958328561215e-06*${unity}+${fz}*${unitz}
variable           dot      equal     4.08308933791594e-08*-0.602324318406784+-1.05958328561215e-06*-0.777292527998724+${fz}*${unitz}
variable           dot      equal     4.08308933791594e-08*-0.602324318406784+-1.05958328561215e-06*-0.777292527998724+-3.65361699391248e-06*${unitz}
variable           dot      equal     4.08308933791594e-08*-0.602324318406784+-1.05958328561215e-06*-0.777292527998724+-3.65361699391248e-06*0.18171885255294
print              "The dot product: ${dot}"
The dot product: 1.35081642872422e-07

if "(${dot} >= 0.0) && (${dot} < 1.0e-9)" then "jump TaR.in relaxation" elif "(${dot} >= 0.0) && (${dot} > 1.0e-4)" "jump TaR.in relaxation" elif "(${dot} < 0.0) && (${dot} > -1.0e-9)" "jump TaR.in relaxation" elif "(${iteration} == ${iter_tot}) && (${seed} < 319)" "print 'The iteration number is maximum!'" "next seed" "variable iteration delete" "jump TaR.in loop" elif "(${iteration} == ${iter_tot}) && (${seed} == 319)" "quit" else    "next iteration"    "jump TaR.in iteration"
next iteration
jump TaR.in iteration
variable           norm          equal     sqrt(${new_x}^2+${new_y}^2+${new_z}^2)
variable           norm          equal     sqrt(-0.03865577633007^2+${new_y}^2+${new_z}^2)
variable           norm          equal     sqrt(-0.03865577633007^2+-0.049884829795401^2+${new_z}^2)
variable           norm          equal     sqrt(-0.03865577633007^2+-0.049884829795401^2+0.0116622940575004^2)
variable           unit_x        equal     ${new_x}/${norm}
variable           unit_x        equal     -0.03865577633007/${norm}
variable           unit_x        equal     -0.03865577633007/0.0641776782852117
variable           unit_y        equal     ${new_y}/${norm}
variable           unit_y        equal     -0.049884829795401/${norm}
variable           unit_y        equal     -0.049884829795401/0.0641776782852117
variable           unit_z        equal     ${new_z}/${norm}
variable           unit_z        equal     0.0116622940575004/${norm}
variable           unit_z        equal     0.0116622940575004/0.0641776782852117
variable           x_new         equal     ${x0}+${delta}*${unit_x}
variable           x_new         equal     -0.621402405158543+${delta}*${unit_x}
variable           x_new         equal     -0.621402405158543+0.04*${unit_x}
variable           x_new         equal     -0.621402405158543+0.04*-0.602324318406784
variable           y_new         equal     ${y0}+${delta}*${unit_y}
variable           y_new         equal     0.972994993742169+${delta}*${unit_y}
variable           y_new         equal     0.972994993742169+0.04*${unit_y}
variable           y_new         equal     0.972994993742169+0.04*-0.777292527998724
variable           z_new         equal     ${z0}+${delta}*${unit_z}
variable           z_new         equal     4.71786182170329+${delta}*${unit_z}
variable           z_new         equal     4.71786182170329+0.04*${unit_z}
variable           z_new         equal     4.71786182170329+0.04*0.18171885255294

set                atom          $i    x  ${x_new}  y  ${y_new}  z   ${z_new}
set                atom          288751    x  ${x_new}  y  ${y_new}  z   ${z_new}
set                atom          288751    x  -0.645495377894814  y  ${y_new}  z   ${z_new}
set                atom          288751    x  -0.645495377894814  y  0.94190329262222  z   ${z_new}
set                atom          288751    x  -0.645495377894814  y  0.94190329262222  z   4.72513057580541
Setting atom values ...
  1 settings made for x
  1 settings made for y
  1 settings made for z

fix                hold    carbon   planeforce   ${new_x}  ${new_y}  ${new_z}
fix                hold    carbon   planeforce   -0.03865577633007  ${new_y}  ${new_z}
fix                hold    carbon   planeforce   -0.03865577633007  -0.049884829795401  ${new_z}
fix                hold    carbon   planeforce   -0.03865577633007  -0.049884829795401  0.0116622940575004
min_style          cg
minimize           1.0e-30 1.0e-30 10000 10000
Per MPI rank memory allocation (min/avg/max) = 5.441 | 5.816 | 6.074 Mbytes
Step PotEng KinEng TotEng v_fx v_fy v_fz 
     627   -1152449.4            0   -1152449.4 -0.036056251 0.0092026772   -0.0801479 
     780   -1152449.4            0   -1152449.4 1.4808953e-05 -7.4734631e-06 1.7118343e-05 
Loop time of 1.76315 on 104 procs for 153 steps with 288751 atoms

99.9% CPU use with 104 MPI tasks x 1 OpenMP threads

Minimization stats:
  Stopping criterion = energy tolerance
  Energy initial, next-to-last, final = 
     -1152449.42337522  -1152449.42861213  -1152449.42861213
  Force two-norm initial, final = 0.33119437 0.00014819124
  Force max component initial, final = 0.19721305 1.7596355e-05
  Final line search alpha, max atom move = 1.0000000 1.7596355e-05
  Iterations, force evaluations = 153 306

MPI task timing breakdown:
Section |  min time  |  avg time  |  max time  |%varavg| %total
---------------------------------------------------------------
Pair    | 0.46836    | 1.2916     | 1.6632     |  30.5 | 73.26
Neigh   | 0          | 0          | 0          |   0.0 |  0.00
Comm    | 0.028097   | 0.28956    | 0.89161    |  45.8 | 16.42
Output  | 0          | 0          | 0          |   0.0 |  0.00
Modify  | 1.9157e-05 | 0.0025208  | 0.0053452  |   2.4 |  0.14
Other   |            | 0.1795     |            |       | 10.18

Nlocal:        2776.45 ave        3957 max           0 min
Histogram: 8 4 4 0 4 12 8 2 28 34
Nghost:        3879.03 ave        5424 max         232 min
Histogram: 8 0 8 0 16 0 8 8 16 40
Neighs:        79213.4 ave      115330 max           0 min
Histogram: 8 4 4 0 10 6 8 8 24 32

Total # of neighbors = 8238194
Ave neighs/atom = 28.530443
Neighbor list builds = 0
Dangerous builds = 0
unfix              hold

variable           new_x         delete
variable           new_y         delete
variable           new_z         delete
variable           dot           delete
variable           new_x         equal     ${x0}-${x_0}
variable           new_x         equal     -0.644790669676032-${x_0}
variable           new_x         equal     -0.644790669676032--0.582746628828473
variable           new_y         equal     ${y0}-${y_0}
variable           new_y         equal     0.939679709029642-${y_0}
variable           new_y         equal     0.939679709029642-1.02287982353757
variable           new_z         equal     ${z0}-${z_0}
variable           new_z         equal     4.71795513970704-${z_0}
variable           new_z         equal     4.71795513970704-4.70619952764579
variable           module        equal     sqrt(${new_x}*${new_x}+${new_y}*${new_y}+${new_z}*${new_z})
variable           module        equal     sqrt(-0.0620440408475591*${new_x}+${new_y}*${new_y}+${new_z}*${new_z})
variable           module        equal     sqrt(-0.0620440408475591*-0.0620440408475591+${new_y}*${new_y}+${new_z}*${new_z})
variable           module        equal     sqrt(-0.0620440408475591*-0.0620440408475591+-0.083200114507928*${new_y}+${new_z}*${new_z})
variable           module        equal     sqrt(-0.0620440408475591*-0.0620440408475591+-0.083200114507928*-0.083200114507928+${new_z}*${new_z})
variable           module        equal     sqrt(-0.0620440408475591*-0.0620440408475591+-0.083200114507928*-0.083200114507928+0.0117556120612496*${new_z})
variable           module        equal     sqrt(-0.0620440408475591*-0.0620440408475591+-0.083200114507928*-0.083200114507928+0.0117556120612496*0.0117556120612496)
variable           unitx         equal     ${new_x}/${module}
variable           unitx         equal     -0.0620440408475591/${module}
variable           unitx         equal     -0.0620440408475591/0.104450545588621
variable           unity         equal     ${new_y}/${module}
variable           unity         equal     -0.083200114507928/${module}
variable           unity         equal     -0.083200114507928/0.104450545588621
variable           unitz         equal     ${new_z}/${module}
variable           unitz         equal     0.0117556120612496/${module}
variable           unitz         equal     0.0117556120612496/0.104450545588621

variable           dot      equal     ${fx}*${unitx}+${fy}*${unity}+${fz}*${unitz}
variable           dot      equal     1.48089532312467e-05*${unitx}+${fy}*${unity}+${fz}*${unitz}
variable           dot      equal     1.48089532312467e-05*-0.594003990098049+${fy}*${unity}+${fz}*${unitz}
variable           dot      equal     1.48089532312467e-05*-0.594003990098049+-7.47346310227676e-06*${unity}+${fz}*${unitz}
variable           dot      equal     1.48089532312467e-05*-0.594003990098049+-7.47346310227676e-06*-0.796550310379537+${fz}*${unitz}
variable           dot      equal     1.48089532312467e-05*-0.594003990098049+-7.47346310227676e-06*-0.796550310379537+1.7118342922861e-05*${unitz}
variable           dot      equal     1.48089532312467e-05*-0.594003990098049+-7.47346310227676e-06*-0.796550310379537+1.7118342922861e-05*0.112547158035432
print              "The dot product: ${dot}"
The dot product: -9.16967108563408e-07

if "(${dot} >= 0.0) && (${dot} < 1.0e-9)" then "jump TaR.in relaxation" elif "(${dot} >= 0.0) && (${dot} > 1.0e-4)" "jump TaR.in relaxation" elif "(${dot} < 0.0) && (${dot} > -1.0e-9)" "jump TaR.in relaxation" elif "(${iteration} == ${iter_tot}) && (${seed} < 319)" "print 'The iteration number is maximum!'" "next seed" "variable iteration delete" "jump TaR.in loop" elif "(${iteration} == ${iter_tot}) && (${seed} == 319)" "quit" else    "next iteration"    "jump TaR.in iteration"
next iteration
jump TaR.in iteration
variable           norm          equal     sqrt(${new_x}^2+${new_y}^2+${new_z}^2)
variable           norm          equal     sqrt(-0.0620440408475591^2+${new_y}^2+${new_z}^2)
variable           norm          equal     sqrt(-0.0620440408475591^2+-0.083200114507928^2+${new_z}^2)
variable           norm          equal     sqrt(-0.0620440408475591^2+-0.083200114507928^2+0.0117556120612496^2)
variable           unit_x        equal     ${new_x}/${norm}
variable           unit_x        equal     -0.0620440408475591/${norm}
variable           unit_x        equal     -0.0620440408475591/0.104450545588621
variable           unit_y        equal     ${new_y}/${norm}
variable           unit_y        equal     -0.083200114507928/${norm}
variable           unit_y        equal     -0.083200114507928/0.104450545588621
variable           unit_z        equal     ${new_z}/${norm}
variable           unit_z        equal     0.0117556120612496/${norm}
variable           unit_z        equal     0.0117556120612496/0.104450545588621
variable           x_new         equal     ${x0}+${delta}*${unit_x}
variable           x_new         equal     -0.644790669676032+${delta}*${unit_x}
variable           x_new         equal     -0.644790669676032+0.04*${unit_x}
variable           x_new         equal     -0.644790669676032+0.04*-0.594003990098049
variable           y_new         equal     ${y0}+${delta}*${unit_y}
variable           y_new         equal     0.939679709029642+${delta}*${unit_y}
variable           y_new         equal     0.939679709029642+0.04*${unit_y}
variable           y_new         equal     0.939679709029642+0.04*-0.796550310379537
variable           z_new         equal     ${z0}+${delta}*${unit_z}
variable           z_new         equal     4.71795513970704+${delta}*${unit_z}
variable           z_new         equal     4.71795513970704+0.04*${unit_z}
variable           z_new         equal     4.71795513970704+0.04*0.112547158035432

set                atom          $i    x  ${x_new}  y  ${y_new}  z   ${z_new}
set                atom          288751    x  ${x_new}  y  ${y_new}  z   ${z_new}
set                atom          288751    x  -0.668550829279954  y  ${y_new}  z   ${z_new}
set                atom          288751    x  -0.668550829279954  y  0.907817696614461  z   ${z_new}
set                atom          288751    x  -0.668550829279954  y  0.907817696614461  z   4.72245702602846
Setting atom values ...
  1 settings made for x
  1 settings made for y
  1 settings made for z

fix                hold    carbon   planeforce   ${new_x}  ${new_y}  ${new_z}
fix                hold    carbon   planeforce   -0.0620440408475591  ${new_y}  ${new_z}
fix                hold    carbon   planeforce   -0.0620440408475591  -0.083200114507928  ${new_z}
fix                hold    carbon   planeforce   -0.0620440408475591  -0.083200114507928  0.0117556120612496
min_style          cg
minimize           1.0e-30 1.0e-30 10000 10000
Per MPI rank memory allocation (min/avg/max) = 5.441 | 5.816 | 6.074 Mbytes
Step PotEng KinEng TotEng v_fx v_fy v_fz 
     780   -1152449.4            0   -1152449.4 -0.029076795 0.0094301805 -0.086720264 
     920   -1152449.4            0   -1152449.4 -6.4856489e-06 2.6944375e-06 -1.5160279e-05 
Loop time of 1.63475 on 104 procs for 140 steps with 288751 atoms

99.9% CPU use with 104 MPI tasks x 1 OpenMP threads

Minimization stats:
  Stopping criterion = energy tolerance
  Energy initial, next-to-last, final = 
     -1152449.40509468  -1152449.41028581  -1152449.41028581
  Force two-norm initial, final = 0.32846628 9.9256049e-05
  Force max component initial, final = 0.2066825 1.5160279e-05
  Final line search alpha, max atom move = 1.0000000 1.5160279e-05
  Iterations, force evaluations = 140 280

MPI task timing breakdown:
Section |  min time  |  avg time  |  max time  |%varavg| %total
---------------------------------------------------------------
Pair    | 0.42904    | 1.1755     | 1.5281     |  29.1 | 71.91
Neigh   | 0          | 0          | 0          |   0.0 |  0.00
Comm    | 0.02802    | 0.26439    | 0.79314    |  43.0 | 16.17
Output  | 0          | 0          | 0          |   0.0 |  0.00
Modify  | 1.7608e-05 | 0.0023165  | 0.0049398  |   2.3 |  0.14
Other   |            | 0.1926     |            |       | 11.78

Nlocal:        2776.45 ave        3956 max           0 min
Histogram: 8 4 4 0 4 12 8 2 28 34
Nghost:        3879.03 ave        5424 max         232 min
Histogram: 8 0 8 0 16 0 8 8 16 40
Neighs:        79213.4 ave      115292 max           0 min
Histogram: 8 4 4 0 10 6 8 8 24 32

Total # of neighbors = 8238198
Ave neighs/atom = 28.530457
Neighbor list builds = 0
Dangerous builds = 0
unfix              hold

variable           new_x         delete
variable           new_y         delete
variable           new_z         delete
variable           dot           delete
variable           new_x         equal     ${x0}-${x_0}
variable           new_x         equal     -0.66727436200591-${x_0}
variable           new_x         equal     -0.66727436200591--0.582746628828473
variable           new_y         equal     ${y0}-${y_0}
variable           new_y         equal     0.905544280462632-${y_0}
variable           new_y         equal     0.905544280462632-1.02287982353757
variable           new_z         equal     ${z0}-${z_0}
variable           new_z         equal     4.71310393612629-${z_0}
variable           new_z         equal     4.71310393612629-4.70619952764579
variable           module        equal     sqrt(${new_x}*${new_x}+${new_y}*${new_y}+${new_z}*${new_z})
variable           module        equal     sqrt(-0.084527733177437*${new_x}+${new_y}*${new_y}+${new_z}*${new_z})
variable           module        equal     sqrt(-0.084527733177437*-0.084527733177437+${new_y}*${new_y}+${new_z}*${new_z})
variable           module        equal     sqrt(-0.084527733177437*-0.084527733177437+-0.117335543074938*${new_y}+${new_z}*${new_z})
variable           module        equal     sqrt(-0.084527733177437*-0.084527733177437+-0.117335543074938*-0.117335543074938+${new_z}*${new_z})
variable           module        equal     sqrt(-0.084527733177437*-0.084527733177437+-0.117335543074938*-0.117335543074938+0.00690440848049967*${new_z})
variable           module        equal     sqrt(-0.084527733177437*-0.084527733177437+-0.117335543074938*-0.117335543074938+0.00690440848049967*0.00690440848049967)
variable           unitx         equal     ${new_x}/${module}
variable           unitx         equal     -0.084527733177437/${module}
variable           unitx         equal     -0.084527733177437/0.14477651122082
variable           unity         equal     ${new_y}/${module}
variable           unity         equal     -0.117335543074938/${module}
variable           unity         equal     -0.117335543074938/0.14477651122082
variable           unitz         equal     ${new_z}/${module}
variable           unitz         equal     0.00690440848049967/${module}
variable           unitz         equal     0.00690440848049967/0.14477651122082

variable           dot      equal     ${fx}*${unitx}+${fy}*${unity}+${fz}*${unitz}
variable           dot      equal     -6.48564887269282e-06*${unitx}+${fy}*${unity}+${fz}*${unitz}
variable           dot      equal     -6.48564887269282e-06*-0.583849772761213+${fy}*${unity}+${fz}*${unitz}
variable           dot      equal     -6.48564887269282e-06*-0.583849772761213+2.69443745692883e-06*${unity}+${fz}*${unitz}
variable           dot      equal     -6.48564887269282e-06*-0.583849772761213+2.69443745692883e-06*-0.810459805154251+${fz}*${unitz}
variable           dot      equal     -6.48564887269282e-06*-0.583849772761213+2.69443745692883e-06*-0.810459805154251+-1.51602789963345e-05*${unitz}
variable           dot      equal     -6.48564887269282e-06*-0.583849772761213+2.69443745692883e-06*-0.810459805154251+-1.51602789963345e-05*0.0476901150765316
print              "The dot product: ${dot}"
The dot product: 8.79915914260348e-07

if "(${dot} >= 0.0) && (${dot} < 1.0e-9)" then "jump TaR.in relaxation" elif "(${dot} >= 0.0) && (${dot} > 1.0e-4)" "jump TaR.in relaxation" elif "(${dot} < 0.0) && (${dot} > -1.0e-9)" "jump TaR.in relaxation" elif "(${iteration} == ${iter_tot}) && (${seed} < 319)" "print 'The iteration number is maximum!'" "next seed" "variable iteration delete" "jump TaR.in loop" elif "(${iteration} == ${iter_tot}) && (${seed} == 319)" "quit" else    "next iteration"    "jump TaR.in iteration"
next iteration
jump TaR.in iteration
variable           norm          equal     sqrt(${new_x}^2+${new_y}^2+${new_z}^2)
variable           norm          equal     sqrt(-0.084527733177437^2+${new_y}^2+${new_z}^2)
variable           norm          equal     sqrt(-0.084527733177437^2+-0.117335543074938^2+${new_z}^2)
variable           norm          equal     sqrt(-0.084527733177437^2+-0.117335543074938^2+0.00690440848049967^2)
variable           unit_x        equal     ${new_x}/${norm}
variable           unit_x        equal     -0.084527733177437/${norm}
variable           unit_x        equal     -0.084527733177437/0.14477651122082
variable           unit_y        equal     ${new_y}/${norm}
variable           unit_y        equal     -0.117335543074938/${norm}
variable           unit_y        equal     -0.117335543074938/0.14477651122082
variable           unit_z        equal     ${new_z}/${norm}
variable           unit_z        equal     0.00690440848049967/${norm}
variable           unit_z        equal     0.00690440848049967/0.14477651122082
variable           x_new         equal     ${x0}+${delta}*${unit_x}
variable           x_new         equal     -0.66727436200591+${delta}*${unit_x}
variable           x_new         equal     -0.66727436200591+0.04*${unit_x}
variable           x_new         equal     -0.66727436200591+0.04*-0.583849772761213
variable           y_new         equal     ${y0}+${delta}*${unit_y}
variable           y_new         equal     0.905544280462632+${delta}*${unit_y}
variable           y_new         equal     0.905544280462632+0.04*${unit_y}
variable           y_new         equal     0.905544280462632+0.04*-0.810459805154251
variable           z_new         equal     ${z0}+${delta}*${unit_z}
variable           z_new         equal     4.71310393612629+${delta}*${unit_z}
variable           z_new         equal     4.71310393612629+0.04*${unit_z}
variable           z_new         equal     4.71310393612629+0.04*0.0476901150765316

set                atom          $i    x  ${x_new}  y  ${y_new}  z   ${z_new}
set                atom          288751    x  ${x_new}  y  ${y_new}  z   ${z_new}
set                atom          288751    x  -0.690628352916358  y  ${y_new}  z   ${z_new}
set                atom          288751    x  -0.690628352916358  y  0.873125888256462  z   ${z_new}
set                atom          288751    x  -0.690628352916358  y  0.873125888256462  z   4.71501154072935
Setting atom values ...
  1 settings made for x
  1 settings made for y
  1 settings made for z

fix                hold    carbon   planeforce   ${new_x}  ${new_y}  ${new_z}
fix                hold    carbon   planeforce   -0.084527733177437  ${new_y}  ${new_z}
fix                hold    carbon   planeforce   -0.084527733177437  -0.117335543074938  ${new_z}
fix                hold    carbon   planeforce   -0.084527733177437  -0.117335543074938  0.00690440848049967
min_style          cg
minimize           1.0e-30 1.0e-30 10000 10000
Per MPI rank memory allocation (min/avg/max) = 5.441 | 5.816 | 6.074 Mbytes
Step PotEng KinEng TotEng v_fx v_fy v_fz 
     920   -1152449.4            0   -1152449.4 -0.026773964  0.014392149  -0.08319784 
    1000   -1152449.4            0   -1152449.4 -9.9187495e-05 7.8838206e-05 0.00012548933 
    1211   -1152449.4            0   -1152449.4 -2.3001158e-07 1.5365376e-07 -2.0469685e-07 
Loop time of 3.36339 on 104 procs for 291 steps with 288751 atoms

99.9% CPU use with 104 MPI tasks x 1 OpenMP threads

Minimization stats:
  Stopping criterion = energy tolerance
  Energy initial, next-to-last, final = 
     -1152449.38150906  -1152449.38658689  -1152449.38658689
  Force two-norm initial, final = 0.32532125 2.5832942e-06
  Force max component initial, final = 0.21440947 6.1315806e-07
  Final line search alpha, max atom move = 1.0000000 6.1315806e-07
  Iterations, force evaluations = 291 582

MPI task timing breakdown:
Section |  min time  |  avg time  |  max time  |%varavg| %total
---------------------------------------------------------------
Pair    | 0.88933    | 2.4497     | 3.1625     |  42.0 | 72.83
Neigh   | 0          | 0          | 0          |   0.0 |  0.00
Comm    | 0.062507   | 0.54653    | 1.6483     |  62.8 | 16.25
Output  | 0.00016152 | 0.00017232 | 0.00031604 |   0.0 |  0.01
Modify  | 3.5956e-05 | 0.0047966  | 0.010224   |   3.3 |  0.14
Other   |            | 0.3622     |            |       | 10.77

Nlocal:        2776.45 ave        3951 max           0 min
Histogram: 8 4 4 0 4 12 8 2 28 34
Nghost:        3879.07 ave        5424 max         232 min
Histogram: 8 0 8 0 16 0 8 8 16 40
Neighs:        79213.4 ave      115137 max           0 min
Histogram: 8 4 4 0 10 6 8 8 24 32

Total # of neighbors = 8238198
Ave neighs/atom = 28.530457
Neighbor list builds = 0
Dangerous builds = 0
unfix              hold

variable           new_x         delete
variable           new_y         delete
variable           new_z         delete
variable           dot           delete
variable           new_x         equal     ${x0}-${x_0}
variable           new_x         equal     -0.689828714534155-${x_0}
variable           new_x         equal     -0.689828714534155--0.582746628828473
variable           new_y         equal     ${y0}-${y_0}
variable           new_y         equal     0.871988504753743-${y_0}
variable           new_y         equal     0.871988504753743-1.02287982353757
variable           new_z         equal     ${z0}-${z_0}
variable           new_z         equal     4.70547214407408-${z_0}
variable           new_z         equal     4.70547214407408-4.70619952764579
variable           module        equal     sqrt(${new_x}*${new_x}+${new_y}*${new_y}+${new_z}*${new_z})
variable           module        equal     sqrt(-0.107082085705682*${new_x}+${new_y}*${new_y}+${new_z}*${new_z})
variable           module        equal     sqrt(-0.107082085705682*-0.107082085705682+${new_y}*${new_y}+${new_z}*${new_z})
variable           module        equal     sqrt(-0.107082085705682*-0.107082085705682+-0.150891318783827*${new_y}+${new_z}*${new_z})
variable           module        equal     sqrt(-0.107082085705682*-0.107082085705682+-0.150891318783827*-0.150891318783827+${new_z}*${new_z})
variable           module        equal     sqrt(-0.107082085705682*-0.107082085705682+-0.150891318783827*-0.150891318783827+-0.000727383571709872*${new_z})
variable           module        equal     sqrt(-0.107082085705682*-0.107082085705682+-0.150891318783827*-0.150891318783827+-0.000727383571709872*-0.000727383571709872)
variable           unitx         equal     ${new_x}/${module}
variable           unitx         equal     -0.107082085705682/${module}
variable           unitx         equal     -0.107082085705682/0.185027814801618
variable           unity         equal     ${new_y}/${module}
variable           unity         equal     -0.150891318783827/${module}
variable           unity         equal     -0.150891318783827/0.185027814801618
variable           unitz         equal     ${new_z}/${module}
variable           unitz         equal     -0.000727383571709872/${module}
variable           unitz         equal     -0.000727383571709872/0.185027814801618

variable           dot      equal     ${fx}*${unitx}+${fy}*${unity}+${fz}*${unitz}
variable           dot      equal     -2.30011582803783e-07*${unitx}+${fy}*${unity}+${fz}*${unitz}
variable           dot      equal     -2.30011582803783e-07*-0.578735071916039+${fy}*${unity}+${fz}*${unitz}
variable           dot      equal     -2.30011582803783e-07*-0.578735071916039+1.53653757156739e-07*${unity}+${fz}*${unitz}
variable           dot      equal     -2.30011582803783e-07*-0.578735071916039+1.53653757156739e-07*-0.81550613860737+${fz}*${unitz}
variable           dot      equal     -2.30011582803783e-07*-0.578735071916039+1.53653757156739e-07*-0.81550613860737+-2.04696848057394e-07*${unitz}
variable           dot      equal     -2.30011582803783e-07*-0.578735071916039+1.53653757156739e-07*-0.81550613860737+-2.04696848057394e-07*-0.00393121203149783
print              "The dot product: ${dot}"
The dot product: 8.61489444595546e-09

if "(${dot} >= 0.0) && (${dot} < 1.0e-9)" then "jump TaR.in relaxation" elif "(${dot} >= 0.0) && (${dot} > 1.0e-4)" "jump TaR.in relaxation" elif "(${dot} < 0.0) && (${dot} > -1.0e-9)" "jump TaR.in relaxation" elif "(${iteration} == ${iter_tot}) && (${seed} < 319)" "print 'The iteration number is maximum!'" "next seed" "variable iteration delete" "jump TaR.in loop" elif "(${iteration} == ${iter_tot}) && (${seed} == 319)" "quit" else    "next iteration"    "jump TaR.in iteration"
next iteration
jump TaR.in iteration
variable           norm          equal     sqrt(${new_x}^2+${new_y}^2+${new_z}^2)
variable           norm          equal     sqrt(-0.107082085705682^2+${new_y}^2+${new_z}^2)
variable           norm          equal     sqrt(-0.107082085705682^2+-0.150891318783827^2+${new_z}^2)
variable           norm          equal     sqrt(-0.107082085705682^2+-0.150891318783827^2+-0.000727383571709872^2)
variable           unit_x        equal     ${new_x}/${norm}
variable           unit_x        equal     -0.107082085705682/${norm}
variable           unit_x        equal     -0.107082085705682/0.185027814801618
variable           unit_y        equal     ${new_y}/${norm}
variable           unit_y        equal     -0.150891318783827/${norm}
variable           unit_y        equal     -0.150891318783827/0.185027814801618
variable           unit_z        equal     ${new_z}/${norm}
variable           unit_z        equal     -0.000727383571709872/${norm}
variable           unit_z        equal     -0.000727383571709872/0.185027814801618
variable           x_new         equal     ${x0}+${delta}*${unit_x}
variable           x_new         equal     -0.689828714534155+${delta}*${unit_x}
variable           x_new         equal     -0.689828714534155+0.04*${unit_x}
variable           x_new         equal     -0.689828714534155+0.04*-0.578735071916039
variable           y_new         equal     ${y0}+${delta}*${unit_y}
variable           y_new         equal     0.871988504753743+${delta}*${unit_y}
variable           y_new         equal     0.871988504753743+0.04*${unit_y}
variable           y_new         equal     0.871988504753743+0.04*-0.81550613860737
variable           z_new         equal     ${z0}+${delta}*${unit_z}
variable           z_new         equal     4.70547214407408+${delta}*${unit_z}
variable           z_new         equal     4.70547214407408+0.04*${unit_z}
variable           z_new         equal     4.70547214407408+0.04*-0.00393121203149783

set                atom          $i    x  ${x_new}  y  ${y_new}  z   ${z_new}
set                atom          288751    x  ${x_new}  y  ${y_new}  z   ${z_new}
set                atom          288751    x  -0.712978117410797  y  ${y_new}  z   ${z_new}
set                atom          288751    x  -0.712978117410797  y  0.839368259209448  z   ${z_new}
set                atom          288751    x  -0.712978117410797  y  0.839368259209448  z   4.70531489559282
Setting atom values ...
  1 settings made for x
  1 settings made for y
  1 settings made for z

fix                hold    carbon   planeforce   ${new_x}  ${new_y}  ${new_z}
fix                hold    carbon   planeforce   -0.107082085705682  ${new_y}  ${new_z}
fix                hold    carbon   planeforce   -0.107082085705682  -0.150891318783827  ${new_z}
fix                hold    carbon   planeforce   -0.107082085705682  -0.150891318783827  -0.000727383571709872
min_style          cg
minimize           1.0e-30 1.0e-30 10000 10000
Per MPI rank memory allocation (min/avg/max) = 5.441 | 5.816 | 6.074 Mbytes
Step PotEng KinEng TotEng v_fx v_fy v_fz 
    1211   -1152449.4            0   -1152449.4 -0.028236004  0.020397231   -0.0745066 
    1396   -1152449.4            0   -1152449.4 6.4061114e-06 -4.5584408e-06 2.5425091e-06 
Loop time of 2.12752 on 104 procs for 185 steps with 288751 atoms

99.9% CPU use with 104 MPI tasks x 1 OpenMP threads

Minimization stats:
  Stopping criterion = energy tolerance
  Energy initial, next-to-last, final = 
     -1152449.35238245   -1152449.3573481   -1152449.3573481
  Force two-norm initial, final = 0.3232761 0.00014292181
  Force max component initial, final = 0.22164218 1.9363667e-05
  Final line search alpha, max atom move = 1.0000000 1.9363667e-05
  Iterations, force evaluations = 185 370

MPI task timing breakdown:
Section |  min time  |  avg time  |  max time  |%varavg| %total
---------------------------------------------------------------
Pair    | 0.56259    | 1.5494     | 2.0066     |  33.5 | 72.83
Neigh   | 0          | 0          | 0          |   0.0 |  0.00
Comm    | 0.036374   | 0.34602    | 1.0557     |  50.0 | 16.26
Output  | 0          | 0          | 0          |   0.0 |  0.00
Modify  | 2.3423e-05 | 0.0030514  | 0.0065255  |   2.6 |  0.14
Other   |            | 0.229      |            |       | 10.77

Nlocal:        2776.45 ave        3945 max           0 min
Histogram: 8 4 4 0 4 12 8 2 26 36
Nghost:        3879.07 ave        5424 max         232 min
Histogram: 8 0 8 0 16 0 8 8 16 40
Neighs:        79213.4 ave      114942 max           0 min
Histogram: 8 4 4 0 10 6 8 8 23 33

Total # of neighbors = 8238194
Ave neighs/atom = 28.530443
Neighbor list builds = 0
Dangerous builds = 0
unfix              hold

variable           new_x         delete
variable           new_y         delete
variable           new_z         delete
variable           dot           delete
variable           new_x         equal     ${x0}-${x_0}
variable           new_x         equal     -0.713412176906817-${x_0}
variable           new_x         equal     -0.713412176906817--0.582746628828473
variable           new_y         equal     ${y0}-${y_0}
variable           new_y         equal     0.839718506003196-${y_0}
variable           new_y         equal     0.839718506003196-1.02287982353757
variable           new_z         equal     ${z0}-${z_0}
variable           new_z         equal     4.69655857405235-${z_0}
variable           new_z         equal     4.69655857405235-4.70619952764579
variable           module        equal     sqrt(${new_x}*${new_x}+${new_y}*${new_y}+${new_z}*${new_z})
variable           module        equal     sqrt(-0.130665548078344*${new_x}+${new_y}*${new_y}+${new_z}*${new_z})
variable           module        equal     sqrt(-0.130665548078344*-0.130665548078344+${new_y}*${new_y}+${new_z}*${new_z})
variable           module        equal     sqrt(-0.130665548078344*-0.130665548078344+-0.183161317534374*${new_y}+${new_z}*${new_z})
variable           module        equal     sqrt(-0.130665548078344*-0.130665548078344+-0.183161317534374*-0.183161317534374+${new_z}*${new_z})
variable           module        equal     sqrt(-0.130665548078344*-0.130665548078344+-0.183161317534374*-0.183161317534374+-0.00964095359343986*${new_z})
variable           module        equal     sqrt(-0.130665548078344*-0.130665548078344+-0.183161317534374*-0.183161317534374+-0.00964095359343986*-0.00964095359343986)
variable           unitx         equal     ${new_x}/${module}
variable           unitx         equal     -0.130665548078344/${module}
variable           unitx         equal     -0.130665548078344/0.225198804796412
variable           unity         equal     ${new_y}/${module}
variable           unity         equal     -0.183161317534374/${module}
variable           unity         equal     -0.183161317534374/0.225198804796412
variable           unitz         equal     ${new_z}/${module}
variable           unitz         equal     -0.00964095359343986/${module}
variable           unitz         equal     -0.00964095359343986/0.225198804796412

variable           dot      equal     ${fx}*${unitx}+${fy}*${unity}+${fz}*${unitz}
variable           dot      equal     6.40611135378427e-06*${unitx}+${fy}*${unity}+${fz}*${unitz}
variable           dot      equal     6.40611135378427e-06*-0.580223097526963+${fy}*${unity}+${fz}*${unitz}
variable           dot      equal     6.40611135378427e-06*-0.580223097526963+-4.55844080305955e-06*${unity}+${fz}*${unitz}
variable           dot      equal     6.40611135378427e-06*-0.580223097526963+-4.55844080305955e-06*-0.813331659108753+${fz}*${unitz}
variable           dot      equal     6.40611135378427e-06*-0.580223097526963+-4.55844080305955e-06*-0.813331659108753+2.54250911851455e-06*${unitz}
variable           dot      equal     6.40611135378427e-06*-0.580223097526963+-4.55844080305955e-06*-0.813331659108753+2.54250911851455e-06*-0.0428108559552775
print              "The dot product: ${dot}"
The dot product: -1.18296543131601e-07

if "(${dot} >= 0.0) && (${dot} < 1.0e-9)" then "jump TaR.in relaxation" elif "(${dot} >= 0.0) && (${dot} > 1.0e-4)" "jump TaR.in relaxation" elif "(${dot} < 0.0) && (${dot} > -1.0e-9)" "jump TaR.in relaxation" elif "(${iteration} == ${iter_tot}) && (${seed} < 319)" "print 'The iteration number is maximum!'" "next seed" "variable iteration delete" "jump TaR.in loop" elif "(${iteration} == ${iter_tot}) && (${seed} == 319)" "quit" else    "next iteration"    "jump TaR.in iteration"
next iteration
jump TaR.in iteration
variable           norm          equal     sqrt(${new_x}^2+${new_y}^2+${new_z}^2)
variable           norm          equal     sqrt(-0.130665548078344^2+${new_y}^2+${new_z}^2)
variable           norm          equal     sqrt(-0.130665548078344^2+-0.183161317534374^2+${new_z}^2)
variable           norm          equal     sqrt(-0.130665548078344^2+-0.183161317534374^2+-0.00964095359343986^2)
variable           unit_x        equal     ${new_x}/${norm}
variable           unit_x        equal     -0.130665548078344/${norm}
variable           unit_x        equal     -0.130665548078344/0.225198804796412
variable           unit_y        equal     ${new_y}/${norm}
variable           unit_y        equal     -0.183161317534374/${norm}
variable           unit_y        equal     -0.183161317534374/0.225198804796412
variable           unit_z        equal     ${new_z}/${norm}
variable           unit_z        equal     -0.00964095359343986/${norm}
variable           unit_z        equal     -0.00964095359343986/0.225198804796412
variable           x_new         equal     ${x0}+${delta}*${unit_x}
variable           x_new         equal     -0.713412176906817+${delta}*${unit_x}
variable           x_new         equal     -0.713412176906817+0.04*${unit_x}
variable           x_new         equal     -0.713412176906817+0.04*-0.580223097526963
variable           y_new         equal     ${y0}+${delta}*${unit_y}
variable           y_new         equal     0.839718506003196+${delta}*${unit_y}
variable           y_new         equal     0.839718506003196+0.04*${unit_y}
variable           y_new         equal     0.839718506003196+0.04*-0.813331659108753
variable           z_new         equal     ${z0}+${delta}*${unit_z}
variable           z_new         equal     4.69655857405235+${delta}*${unit_z}
variable           z_new         equal     4.69655857405235+0.04*${unit_z}
variable           z_new         equal     4.69655857405235+0.04*-0.0428108559552775

set                atom          $i    x  ${x_new}  y  ${y_new}  z   ${z_new}
set                atom          288751    x  ${x_new}  y  ${y_new}  z   ${z_new}
set                atom          288751    x  -0.736621100807896  y  ${y_new}  z   ${z_new}
set                atom          288751    x  -0.736621100807896  y  0.807185239638846  z   ${z_new}
set                atom          288751    x  -0.736621100807896  y  0.807185239638846  z   4.69484613981414
Setting atom values ...
  1 settings made for x
  1 settings made for y
  1 settings made for z

fix                hold    carbon   planeforce   ${new_x}  ${new_y}  ${new_z}
fix                hold    carbon   planeforce   -0.130665548078344  ${new_y}  ${new_z}
fix                hold    carbon   planeforce   -0.130665548078344  -0.183161317534374  ${new_z}
fix                hold    carbon   planeforce   -0.130665548078344  -0.183161317534374  -0.00964095359343986
min_style          cg
minimize           1.0e-30 1.0e-30 10000 10000
Per MPI rank memory allocation (min/avg/max) = 5.441 | 5.816 | 6.074 Mbytes
Step PotEng KinEng TotEng v_fx v_fy v_fz 
    1396   -1152449.3            0   -1152449.3 -0.031760863   0.02603583 -0.064174809 
    1567   -1152449.3            0   -1152449.3 -2.2488072e-05 1.8903727e-05 -5.4353065e-05 
Loop time of 1.99373 on 104 procs for 171 steps with 288751 atoms

99.9% CPU use with 104 MPI tasks x 1 OpenMP threads

Minimization stats:
  Stopping criterion = energy tolerance
  Energy initial, next-to-last, final = 
     -1152449.31753888  -1152449.32241215  -1152449.32241215
  Force two-norm initial, final = 0.32331194 0.0002969483
  Force max component initial, final = 0.22925795 5.4353065e-05
  Final line search alpha, max atom move = 1.0000000 5.4353065e-05
  Iterations, force evaluations = 171 342

MPI task timing breakdown:
Section |  min time  |  avg time  |  max time  |%varavg| %total
---------------------------------------------------------------
Pair    | 0.52135    | 1.4417     | 1.8632     |  32.2 | 72.31
Neigh   | 0          | 0          | 0          |   0.0 |  0.00
Comm    | 0.03717    | 0.32348    | 0.9796     |  48.0 | 16.22
Output  | 0          | 0          | 0          |   0.0 |  0.00
Modify  | 2.0797e-05 | 0.0028276  | 0.0060232  |   2.5 |  0.14
Other   |            | 0.2257     |            |       | 11.32

Nlocal:        2776.45 ave        3932 max           0 min
Histogram: 8 4 4 0 4 12 8 0 26 38
Nghost:        3879.07 ave        5424 max         232 min
Histogram: 8 0 8 0 16 0 8 8 16 40
Neighs:        79213.4 ave      114544 max           0 min
Histogram: 8 4 4 0 8 8 8 8 20 36

Total # of neighbors = 8238195
Ave neighs/atom = 28.530447
Neighbor list builds = 0
Dangerous builds = 0
unfix              hold

variable           new_x         delete
variable           new_y         delete
variable           new_z         delete
variable           dot           delete
variable           new_x         equal     ${x0}-${x_0}
variable           new_x         equal     -0.738634906159752-${x_0}
variable           new_x         equal     -0.738634906159752--0.582746628828473
variable           new_y         equal     ${y0}-${y_0}
variable           new_y         equal     0.809031982038003-${y_0}
variable           new_y         equal     0.809031982038003-1.02287982353757
variable           new_z         equal     ${z0}-${z_0}
variable           new_z         equal     4.68705471231686-${z_0}
variable           new_z         equal     4.68705471231686-4.70619952764579
variable           module        equal     sqrt(${new_x}*${new_x}+${new_y}*${new_y}+${new_z}*${new_z})
variable           module        equal     sqrt(-0.155888277331279*${new_x}+${new_y}*${new_y}+${new_z}*${new_z})
variable           module        equal     sqrt(-0.155888277331279*-0.155888277331279+${new_y}*${new_y}+${new_z}*${new_z})
variable           module        equal     sqrt(-0.155888277331279*-0.155888277331279+-0.213847841499567*${new_y}+${new_z}*${new_z})
variable           module        equal     sqrt(-0.155888277331279*-0.155888277331279+-0.213847841499567*-0.213847841499567+${new_z}*${new_z})
variable           module        equal     sqrt(-0.155888277331279*-0.155888277331279+-0.213847841499567*-0.213847841499567+-0.0191448153289295*${new_z})
variable           module        equal     sqrt(-0.155888277331279*-0.155888277331279+-0.213847841499567*-0.213847841499567+-0.0191448153289295*-0.0191448153289295)
variable           unitx         equal     ${new_x}/${module}
variable           unitx         equal     -0.155888277331279/${module}
variable           unitx         equal     -0.155888277331279/0.265327304055418
variable           unity         equal     ${new_y}/${module}
variable           unity         equal     -0.213847841499567/${module}
variable           unity         equal     -0.213847841499567/0.265327304055418
variable           unitz         equal     ${new_z}/${module}
variable           unitz         equal     -0.0191448153289295/${module}
variable           unitz         equal     -0.0191448153289295/0.265327304055418

variable           dot      equal     ${fx}*${unitx}+${fy}*${unity}+${fz}*${unitz}
variable           dot      equal     -2.24880717878468e-05*${unitx}+${fy}*${unity}+${fz}*${unitz}
variable           dot      equal     -2.24880717878468e-05*-0.587531983887791+${fy}*${unity}+${fz}*${unitz}
variable           dot      equal     -2.24880717878468e-05*-0.587531983887791+1.8903727314762e-05*${unity}+${fz}*${unitz}
variable           dot      equal     -2.24880717878468e-05*-0.587531983887791+1.8903727314762e-05*-0.805977516188463+${fz}*${unitz}
variable           dot      equal     -2.24880717878468e-05*-0.587531983887791+1.8903727314762e-05*-0.805977516188463+-5.43530648455098e-05*${unitz}
variable           dot      equal     -2.24880717878468e-05*-0.587531983887791+1.8903727314762e-05*-0.805977516188463+-5.43530648455098e-05*-0.0721554662347558
print              "The dot product: ${dot}"
The dot product: 1.89835297868449e-06

if "(${dot} >= 0.0) && (${dot} < 1.0e-9)" then "jump TaR.in relaxation" elif "(${dot} >= 0.0) && (${dot} > 1.0e-4)" "jump TaR.in relaxation" elif "(${dot} < 0.0) && (${dot} > -1.0e-9)" "jump TaR.in relaxation" elif "(${iteration} == ${iter_tot}) && (${seed} < 319)" "print 'The iteration number is maximum!'" "next seed" "variable iteration delete" "jump TaR.in loop" elif "(${iteration} == ${iter_tot}) && (${seed} == 319)" "quit" else    "next iteration"    "jump TaR.in iteration"
next iteration
jump TaR.in iteration
variable           norm          equal     sqrt(${new_x}^2+${new_y}^2+${new_z}^2)
variable           norm          equal     sqrt(-0.155888277331279^2+${new_y}^2+${new_z}^2)
variable           norm          equal     sqrt(-0.155888277331279^2+-0.213847841499567^2+${new_z}^2)
variable           norm          equal     sqrt(-0.155888277331279^2+-0.213847841499567^2+-0.0191448153289295^2)
variable           unit_x        equal     ${new_x}/${norm}
variable           unit_x        equal     -0.155888277331279/${norm}
variable           unit_x        equal     -0.155888277331279/0.265327304055418
variable           unit_y        equal     ${new_y}/${norm}
variable           unit_y        equal     -0.213847841499567/${norm}
variable           unit_y        equal     -0.213847841499567/0.265327304055418
variable           unit_z        equal     ${new_z}/${norm}
variable           unit_z        equal     -0.0191448153289295/${norm}
variable           unit_z        equal     -0.0191448153289295/0.265327304055418
variable           x_new         equal     ${x0}+${delta}*${unit_x}
variable           x_new         equal     -0.738634906159752+${delta}*${unit_x}
variable           x_new         equal     -0.738634906159752+0.04*${unit_x}
variable           x_new         equal     -0.738634906159752+0.04*-0.587531983887791
variable           y_new         equal     ${y0}+${delta}*${unit_y}
variable           y_new         equal     0.809031982038003+${delta}*${unit_y}
variable           y_new         equal     0.809031982038003+0.04*${unit_y}
variable           y_new         equal     0.809031982038003+0.04*-0.805977516188463
variable           z_new         equal     ${z0}+${delta}*${unit_z}
variable           z_new         equal     4.68705471231686+${delta}*${unit_z}
variable           z_new         equal     4.68705471231686+0.04*${unit_z}
variable           z_new         equal     4.68705471231686+0.04*-0.0721554662347558

set                atom          $i    x  ${x_new}  y  ${y_new}  z   ${z_new}
set                atom          288751    x  ${x_new}  y  ${y_new}  z   ${z_new}
set                atom          288751    x  -0.762136185515264  y  ${y_new}  z   ${z_new}
set                atom          288751    x  -0.762136185515264  y  0.776792881390464  z   ${z_new}
set                atom          288751    x  -0.762136185515264  y  0.776792881390464  z   4.68416849366747
Setting atom values ...
  1 settings made for x
  1 settings made for y
  1 settings made for z

fix                hold    carbon   planeforce   ${new_x}  ${new_y}  ${new_z}
fix                hold    carbon   planeforce   -0.155888277331279  ${new_y}  ${new_z}
fix                hold    carbon   planeforce   -0.155888277331279  -0.213847841499567  ${new_z}
fix                hold    carbon   planeforce   -0.155888277331279  -0.213847841499567  -0.0191448153289295
min_style          cg
minimize           1.0e-30 1.0e-30 10000 10000
Per MPI rank memory allocation (min/avg/max) = 5.441 | 5.816 | 6.074 Mbytes
Step PotEng KinEng TotEng v_fx v_fy v_fz 
    1567   -1152449.3            0   -1152449.3  -0.03680462  0.031723747 -0.054669944 
    1759   -1152449.3            0   -1152449.3 3.750279e-06 -3.1087076e-07 -2.7064533e-05 
Loop time of 2.20564 on 104 procs for 192 steps with 288751 atoms

99.9% CPU use with 104 MPI tasks x 1 OpenMP threads

Minimization stats:
  Stopping criterion = energy tolerance
  Energy initial, next-to-last, final = 
     -1152449.27676888  -1152449.28164655  -1152449.28164655
  Force two-norm initial, final = 0.32635855 0.00013808126
  Force max component initial, final = 0.23761225 2.7064533e-05
  Final line search alpha, max atom move = 1.0000000 2.7064533e-05
  Iterations, force evaluations = 192 384

MPI task timing breakdown:
Section |  min time  |  avg time  |  max time  |%varavg| %total
---------------------------------------------------------------
Pair    | 0.58625    | 1.6102     | 2.0803     |  34.1 | 73.00
Neigh   | 0          | 0          | 0          |   0.0 |  0.00
Comm    | 0.040529   | 0.35738    | 1.0872     |  51.2 | 16.20
Output  | 0          | 0          | 0          |   0.0 |  0.00
Modify  | 2.5603e-05 | 0.0031734  | 0.0067412  |   2.7 |  0.14
Other   |            | 0.2349     |            |       | 10.65

Nlocal:        2776.45 ave        3930 max           0 min
Histogram: 8 4 4 0 4 12 8 0 26 38
Nghost:        3879.07 ave        5424 max         232 min
Histogram: 8 0 8 0 16 0 8 8 16 40
Neighs:        79213.4 ave      114463 max           0 min
Histogram: 8 4 4 0 8 8 8 8 20 36

Total # of neighbors = 8238195
Ave neighs/atom = 28.530447
Neighbor list builds = 0
Dangerous builds = 0
unfix              hold

variable           new_x         delete
variable           new_y         delete
variable           new_z         delete
variable           dot           delete
variable           new_x         equal     ${x0}-${x_0}
variable           new_x         equal     -0.76603933037936-${x_0}
variable           new_x         equal     -0.76603933037936--0.582746628828473
variable           new_y         equal     ${y0}-${y_0}
variable           new_y         equal     0.780249349385855-${y_0}
variable           new_y         equal     0.780249349385855-1.02287982353757
variable           new_z         equal     ${z0}-${z_0}
variable           new_z         equal     4.67734138728036-${z_0}
variable           new_z         equal     4.67734138728036-4.70619952764579
variable           module        equal     sqrt(${new_x}*${new_x}+${new_y}*${new_y}+${new_z}*${new_z})
variable           module        equal     sqrt(-0.183292701550887*${new_x}+${new_y}*${new_y}+${new_z}*${new_z})
variable           module        equal     sqrt(-0.183292701550887*-0.183292701550887+${new_y}*${new_y}+${new_z}*${new_z})
variable           module        equal     sqrt(-0.183292701550887*-0.183292701550887+-0.242630474151715*${new_y}+${new_z}*${new_z})
variable           module        equal     sqrt(-0.183292701550887*-0.183292701550887+-0.242630474151715*-0.242630474151715+${new_z}*${new_z})
variable           module        equal     sqrt(-0.183292701550887*-0.183292701550887+-0.242630474151715*-0.242630474151715+-0.02885814036543*${new_z})
variable           module        equal     sqrt(-0.183292701550887*-0.183292701550887+-0.242630474151715*-0.242630474151715+-0.02885814036543*-0.02885814036543)
variable           unitx         equal     ${new_x}/${module}
variable           unitx         equal     -0.183292701550887/${module}
variable           unitx         equal     -0.183292701550887/0.30544811948064
variable           unity         equal     ${new_y}/${module}
variable           unity         equal     -0.242630474151715/${module}
variable           unity         equal     -0.242630474151715/0.30544811948064
variable           unitz         equal     ${new_z}/${module}
variable           unitz         equal     -0.02885814036543/${module}
variable           unitz         equal     -0.02885814036543/0.30544811948064

variable           dot      equal     ${fx}*${unitx}+${fy}*${unity}+${fz}*${unitz}
variable           dot      equal     3.75027896910081e-06*${unitx}+${fy}*${unity}+${fz}*${unitz}
variable           dot      equal     3.75027896910081e-06*-0.60007801607207+${fy}*${unity}+${fz}*${unitz}
variable           dot      equal     3.75027896910081e-06*-0.60007801607207+-3.10870764621179e-07*${unity}+${fz}*${unitz}
variable           dot      equal     3.75027896910081e-06*-0.60007801607207+-3.10870764621179e-07*-0.794342667960323+${fz}*${unitz}
variable           dot      equal     3.75027896910081e-06*-0.60007801607207+-3.10870764621179e-07*-0.794342667960323+-2.70645329888555e-05*${unitz}
variable           dot      equal     3.75027896910081e-06*-0.60007801607207+-3.10870764621179e-07*-0.794342667960323+-2.70645329888555e-05*-0.0944780423415214
print              "The dot product: ${dot}"
The dot product: 5.53482042739824e-07

if "(${dot} >= 0.0) && (${dot} < 1.0e-9)" then "jump TaR.in relaxation" elif "(${dot} >= 0.0) && (${dot} > 1.0e-4)" "jump TaR.in relaxation" elif "(${dot} < 0.0) && (${dot} > -1.0e-9)" "jump TaR.in relaxation" elif "(${iteration} == ${iter_tot}) && (${seed} < 319)" "print 'The iteration number is maximum!'" "next seed" "variable iteration delete" "jump TaR.in loop" elif "(${iteration} == ${iter_tot}) && (${seed} == 319)" "quit" else    "next iteration"    "jump TaR.in iteration"
next iteration
jump TaR.in iteration
variable           norm          equal     sqrt(${new_x}^2+${new_y}^2+${new_z}^2)
variable           norm          equal     sqrt(-0.183292701550887^2+${new_y}^2+${new_z}^2)
variable           norm          equal     sqrt(-0.183292701550887^2+-0.242630474151715^2+${new_z}^2)
variable           norm          equal     sqrt(-0.183292701550887^2+-0.242630474151715^2+-0.02885814036543^2)
variable           unit_x        equal     ${new_x}/${norm}
variable           unit_x        equal     -0.183292701550887/${norm}
variable           unit_x        equal     -0.183292701550887/0.30544811948064
variable           unit_y        equal     ${new_y}/${norm}
variable           unit_y        equal     -0.242630474151715/${norm}
variable           unit_y        equal     -0.242630474151715/0.30544811948064
variable           unit_z        equal     ${new_z}/${norm}
variable           unit_z        equal     -0.02885814036543/${norm}
variable           unit_z        equal     -0.02885814036543/0.30544811948064
variable           x_new         equal     ${x0}+${delta}*${unit_x}
variable           x_new         equal     -0.76603933037936+${delta}*${unit_x}
variable           x_new         equal     -0.76603933037936+0.04*${unit_x}
variable           x_new         equal     -0.76603933037936+0.04*-0.60007801607207
variable           y_new         equal     ${y0}+${delta}*${unit_y}
variable           y_new         equal     0.780249349385855+${delta}*${unit_y}
variable           y_new         equal     0.780249349385855+0.04*${unit_y}
variable           y_new         equal     0.780249349385855+0.04*-0.794342667960323
variable           z_new         equal     ${z0}+${delta}*${unit_z}
variable           z_new         equal     4.67734138728036+${delta}*${unit_z}
variable           z_new         equal     4.67734138728036+0.04*${unit_z}
variable           z_new         equal     4.67734138728036+0.04*-0.0944780423415214

set                atom          $i    x  ${x_new}  y  ${y_new}  z   ${z_new}
set                atom          288751    x  ${x_new}  y  ${y_new}  z   ${z_new}
set                atom          288751    x  -0.790042451022243  y  ${y_new}  z   ${z_new}
set                atom          288751    x  -0.790042451022243  y  0.748475642667442  z   ${z_new}
set                atom          288751    x  -0.790042451022243  y  0.748475642667442  z   4.6735622655867
Setting atom values ...
  1 settings made for x
  1 settings made for y
  1 settings made for z

fix                hold    carbon   planeforce   ${new_x}  ${new_y}  ${new_z}
fix                hold    carbon   planeforce   -0.183292701550887  ${new_y}  ${new_z}
fix                hold    carbon   planeforce   -0.183292701550887  -0.242630474151715  ${new_z}
fix                hold    carbon   planeforce   -0.183292701550887  -0.242630474151715  -0.02885814036543
min_style          cg
minimize           1.0e-30 1.0e-30 10000 10000
Per MPI rank memory allocation (min/avg/max) = 5.441 | 5.816 | 6.074 Mbytes
Step PotEng KinEng TotEng v_fx v_fy v_fz 
    1759   -1152449.2            0   -1152449.2 -0.043333842  0.038246577  -0.04633037 
    1947   -1152449.2            0   -1152449.2 -5.455182e-06 6.1540768e-06 -1.7092977e-05 
Loop time of 2.17356 on 104 procs for 188 steps with 288751 atoms

99.9% CPU use with 104 MPI tasks x 1 OpenMP threads

Minimization stats:
  Stopping criterion = energy tolerance
  Energy initial, next-to-last, final = 
     -1152449.22996902  -1152449.23498305  -1152449.23498305
  Force two-norm initial, final = 0.3332269 0.00014059799
  Force max component initial, final = 0.246972 2.1814366e-05
  Final line search alpha, max atom move = 1.0000000 2.1814366e-05
  Iterations, force evaluations = 188 376

MPI task timing breakdown:
Section |  min time  |  avg time  |  max time  |%varavg| %total
---------------------------------------------------------------
Pair    | 0.57484    | 1.5871     | 2.0426     |  33.8 | 73.02
Neigh   | 0          | 0          | 0          |   0.0 |  0.00
Comm    | 0.034021   | 0.35548    | 1.0914     |  50.7 | 16.35
Output  | 0          | 0          | 0          |   0.0 |  0.00
Modify  | 2.3326e-05 | 0.0031013  | 0.0065866  |   2.6 |  0.14
Other   |            | 0.2279     |            |       | 10.48

Nlocal:        2776.45 ave        3930 max           0 min
Histogram: 8 4 4 0 4 12 8 0 26 38
Nghost:        3879.14 ave        5424 max         232 min
Histogram: 8 0 8 0 16 0 8 8 16 40
Neighs:        79213.4 ave      114463 max           0 min
Histogram: 8 4 4 0 8 8 8 8 20 36

Total # of neighbors = 8238193
Ave neighs/atom = 28.530440
Neighbor list builds = 0
Dangerous builds = 0
unfix              hold

variable           new_x         delete
variable           new_y         delete
variable           new_z         delete
variable           dot           delete
variable           new_x         equal     ${x0}-${x_0}
variable           new_x         equal     -0.796129428228789-${x_0}
variable           new_x         equal     -0.796129428228789--0.582746628828473
variable           new_y         equal     ${y0}-${y_0}
variable           new_y         equal     0.753770707069105-${y_0}
variable           new_y         equal     0.753770707069105-1.02287982353757
variable           new_z         equal     ${z0}-${z_0}
variable           new_z         equal     4.66770445604492-${z_0}
variable           new_z         equal     4.66770445604492-4.70619952764579
variable           module        equal     sqrt(${new_x}*${new_x}+${new_y}*${new_y}+${new_z}*${new_z})
variable           module        equal     sqrt(-0.213382799400316*${new_x}+${new_y}*${new_y}+${new_z}*${new_z})
variable           module        equal     sqrt(-0.213382799400316*-0.213382799400316+${new_y}*${new_y}+${new_z}*${new_z})
variable           module        equal     sqrt(-0.213382799400316*-0.213382799400316+-0.269109116468465*${new_y}+${new_z}*${new_z})
variable           module        equal     sqrt(-0.213382799400316*-0.213382799400316+-0.269109116468465*-0.269109116468465+${new_z}*${new_z})
variable           module        equal     sqrt(-0.213382799400316*-0.213382799400316+-0.269109116468465*-0.269109116468465+-0.0384950716008703*${new_z})
variable           module        equal     sqrt(-0.213382799400316*-0.213382799400316+-0.269109116468465*-0.269109116468465+-0.0384950716008703*-0.0384950716008703)
variable           unitx         equal     ${new_x}/${module}
variable           unitx         equal     -0.213382799400316/${module}
variable           unitx         equal     -0.213382799400316/0.345591964871739
variable           unity         equal     ${new_y}/${module}
variable           unity         equal     -0.269109116468465/${module}
variable           unity         equal     -0.269109116468465/0.345591964871739
variable           unitz         equal     ${new_z}/${module}
variable           unitz         equal     -0.0384950716008703/${module}
variable           unitz         equal     -0.0384950716008703/0.345591964871739

variable           dot      equal     ${fx}*${unitx}+${fy}*${unity}+${fz}*${unitz}
variable           dot      equal     -5.45518200517466e-06*${unitx}+${fy}*${unity}+${fz}*${unitz}
variable           dot      equal     -5.45518200517466e-06*-0.617441436983379+${fy}*${unity}+${fz}*${unitz}
variable           dot      equal     -5.45518200517466e-06*-0.617441436983379+6.1540768387913e-06*${unity}+${fz}*${unitz}
variable           dot      equal     -5.45518200517466e-06*-0.617441436983379+6.1540768387913e-06*-0.778690316391877+${fz}*${unitz}
variable           dot      equal     -5.45518200517466e-06*-0.617441436983379+6.1540768387913e-06*-0.778690316391877+-1.7092977162392e-05*${unitz}
variable           dot      equal     -5.45518200517466e-06*-0.617441436983379+6.1540768387913e-06*-0.778690316391877+-1.7092977162392e-05*-0.111388792315114
print              "The dot product: ${dot}"
The dot product: 4.80101458771263e-07

if "(${dot} >= 0.0) && (${dot} < 1.0e-9)" then "jump TaR.in relaxation" elif "(${dot} >= 0.0) && (${dot} > 1.0e-4)" "jump TaR.in relaxation" elif "(${dot} < 0.0) && (${dot} > -1.0e-9)" "jump TaR.in relaxation" elif "(${iteration} == ${iter_tot}) && (${seed} < 319)" "print 'The iteration number is maximum!'" "next seed" "variable iteration delete" "jump TaR.in loop" elif "(${iteration} == ${iter_tot}) && (${seed} == 319)" "quit" else    "next iteration"    "jump TaR.in iteration"
next iteration
jump TaR.in iteration
variable           norm          equal     sqrt(${new_x}^2+${new_y}^2+${new_z}^2)
variable           norm          equal     sqrt(-0.213382799400316^2+${new_y}^2+${new_z}^2)
variable           norm          equal     sqrt(-0.213382799400316^2+-0.269109116468465^2+${new_z}^2)
variable           norm          equal     sqrt(-0.213382799400316^2+-0.269109116468465^2+-0.0384950716008703^2)
variable           unit_x        equal     ${new_x}/${norm}
variable           unit_x        equal     -0.213382799400316/${norm}
variable           unit_x        equal     -0.213382799400316/0.345591964871739
variable           unit_y        equal     ${new_y}/${norm}
variable           unit_y        equal     -0.269109116468465/${norm}
variable           unit_y        equal     -0.269109116468465/0.345591964871739
variable           unit_z        equal     ${new_z}/${norm}
variable           unit_z        equal     -0.0384950716008703/${norm}
variable           unit_z        equal     -0.0384950716008703/0.345591964871739
variable           x_new         equal     ${x0}+${delta}*${unit_x}
variable           x_new         equal     -0.796129428228789+${delta}*${unit_x}
variable           x_new         equal     -0.796129428228789+0.04*${unit_x}
variable           x_new         equal     -0.796129428228789+0.04*-0.617441436983379
[...]
variable           y_new         equal     1.00683338940622+0.04*-0.00666927844065312
variable           z_new         equal     ${z0}+${delta}*${unit_z}
variable           z_new         equal     6.08120444785668+${delta}*${unit_z}
variable           z_new         equal     6.08120444785668+0.04*${unit_z}
variable           z_new         equal     6.08120444785668+0.04*0.571484642325513

set                atom          $i    x  ${x_new}  y  ${y_new}  z   ${z_new}
set                atom          288751    x  ${x_new}  y  ${y_new}  z   ${z_new}
set                atom          288751    x  -2.58991763251021  y  ${y_new}  z   ${z_new}
set                atom          288751    x  -2.58991763251021  y  1.00656661826859  z   ${z_new}
set                atom          288751    x  -2.58991763251021  y  1.00656661826859  z   6.1040638335497
Setting atom values ...
  1 settings made for x
  1 settings made for y
  1 settings made for z

fix                hold    carbon   planeforce   ${new_x}  ${new_y}  ${new_z}
fix                hold    carbon   planeforce   -1.97434757730822  ${new_y}  ${new_z}
fix                hold    carbon   planeforce   -1.97434757730822  -0.01604643413135  ${new_z}
fix                hold    carbon   planeforce   -1.97434757730822  -0.01604643413135  1.37500492021089
min_style          cg
minimize           1.0e-30 1.0e-30 10000 10000
Per MPI rank memory allocation (min/avg/max) = 5.441 | 5.816 | 6.074 Mbytes
Step PotEng KinEng TotEng v_fx v_fy v_fz 
   12040   -1152448.9            0   -1152448.9   0.15320155   0.10631035   0.22122031 
   12247   -1152448.9            0   -1152448.9 -4.5101994e-05 6.2459848e-05 -6.4032319e-05 
Loop time of 2.45626 on 104 procs for 207 steps with 288751 atoms

99.9% CPU use with 104 MPI tasks x 1 OpenMP threads

Minimization stats:
  Stopping criterion = energy tolerance
  Energy initial, next-to-last, final = 
      -1152448.9193692  -1152448.93766712  -1152448.93766712
  Force two-norm initial, final = 0.44000344 0.00026817963
  Force max component initial, final = 0.22122031 6.4032319e-05
  Final line search alpha, max atom move = 1.0000000 6.4032319e-05
  Iterations, force evaluations = 207 414

MPI task timing breakdown:
Section |  min time  |  avg time  |  max time  |%varavg| %total
---------------------------------------------------------------
Pair    | 0.64562    | 1.7424     | 2.262      |  35.3 | 70.94
Neigh   | 1.0186e-05 | 0.0029092  | 0.0042696  |   2.3 |  0.12
Comm    | 0.037725   | 0.39307    | 1.1827     |  52.3 | 16.00
Output  | 0          | 0          | 0          |   0.0 |  0.00
Modify  | 2.6294e-05 | 0.0034224  | 0.0072823  |   2.8 |  0.14
Other   |            | 0.3145     |            |       | 12.80

Nlocal:        2776.45 ave        3958 max           0 min
Histogram: 8 4 4 0 4 12 8 6 24 34
Nghost:        3879.03 ave        5425 max         232 min
Histogram: 8 0 8 0 16 0 8 8 16 40
Neighs:        79213.3 ave      115322 max           0 min
Histogram: 8 4 4 0 10 6 8 8 24 32

Total # of neighbors = 8238185
Ave neighs/atom = 28.530412
Neighbor list builds = 1
Dangerous builds = 0
unfix              hold

variable           new_x         delete
variable           new_y         delete
variable           new_z         delete
variable           dot           delete
variable           new_x         equal     ${x0}-${x_0}
variable           new_x         equal     -2.54629292859845-${x_0}
variable           new_x         equal     -2.54629292859845--0.582746628828473
variable           new_y         equal     ${y0}-${y_0}
variable           new_y         equal     1.03963268531466-${y_0}
variable           new_y         equal     1.03963268531466-1.02287982353757
variable           new_z         equal     ${z0}-${z_0}
variable           new_z         equal     6.1670897323465-${z_0}
variable           new_z         equal     6.1670897323465-4.70619952764579
variable           module        equal     sqrt(${new_x}*${new_x}+${new_y}*${new_y}+${new_z}*${new_z})
variable           module        equal     sqrt(-1.96354629976998*${new_x}+${new_y}*${new_y}+${new_z}*${new_z})
variable           module        equal     sqrt(-1.96354629976998*-1.96354629976998+${new_y}*${new_y}+${new_z}*${new_z})
variable           module        equal     sqrt(-1.96354629976998*-1.96354629976998+0.01675286177709*${new_y}+${new_z}*${new_z})
variable           module        equal     sqrt(-1.96354629976998*-1.96354629976998+0.01675286177709*0.01675286177709+${new_z}*${new_z})
variable           module        equal     sqrt(-1.96354629976998*-1.96354629976998+0.01675286177709*0.01675286177709+1.46089020470071*${new_z})
variable           module        equal     sqrt(-1.96354629976998*-1.96354629976998+0.01675286177709*0.01675286177709+1.46089020470071*1.46089020470071)
variable           unitx         equal     ${new_x}/${module}
variable           unitx         equal     -1.96354629976998/${module}
variable           unitx         equal     -1.96354629976998/2.44744661226932
variable           unity         equal     ${new_y}/${module}
variable           unity         equal     0.01675286177709/${module}
variable           unity         equal     0.01675286177709/2.44744661226932
variable           unitz         equal     ${new_z}/${module}
variable           unitz         equal     1.46089020470071/${module}
variable           unitz         equal     1.46089020470071/2.44744661226932

variable           dot      equal     ${fx}*${unitx}+${fy}*${unity}+${fz}*${unitz}
variable           dot      equal     -4.5101993760723e-05*${unitx}+${fy}*${unity}+${fz}*${unitz}
variable           dot      equal     -4.5101993760723e-05*-0.802283608527559+${fy}*${unity}+${fz}*${unitz}
variable           dot      equal     -4.5101993760723e-05*-0.802283608527559+6.24598484164904e-05*${unity}+${fz}*${unitz}
variable           dot      equal     -4.5101993760723e-05*-0.802283608527559+6.24598484164904e-05*0.0068450366570229+${fz}*${unitz}
variable           dot      equal     -4.5101993760723e-05*-0.802283608527559+6.24598484164904e-05*0.0068450366570229+-6.40323194303262e-05*${unitz}
variable           dot      equal     -4.5101993760723e-05*-0.802283608527559+6.24598484164904e-05*0.0068450366570229+-6.40323194303262e-05*0.59690380880102
print              "The dot product: ${dot}"
The dot product: -1.609005096182e-06

if "(${dot} >= 0.0) && (${dot} < 1.0e-9)" then "jump TaR.in relaxation" elif "(${dot} >= 0.0) && (${dot} > 1.0e-4)" "jump TaR.in relaxation" elif "(${dot} < 0.0) && (${dot} > -1.0e-9)" "jump TaR.in relaxation" elif "(${iteration} == ${iter_tot}) && (${seed} < 319)" "print 'The iteration number is maximum!'" "next seed" "variable iteration delete" "jump TaR.in loop" elif "(${iteration} == ${iter_tot}) && (${seed} == 319)" "quit" else    "next iteration"    "jump TaR.in iteration"
next iteration
jump TaR.in iteration
variable           norm          equal     sqrt(${new_x}^2+${new_y}^2+${new_z}^2)
variable           norm          equal     sqrt(-1.96354629976998^2+${new_y}^2+${new_z}^2)
variable           norm          equal     sqrt(-1.96354629976998^2+0.01675286177709^2+${new_z}^2)
variable           norm          equal     sqrt(-1.96354629976998^2+0.01675286177709^2+1.46089020470071^2)
variable           unit_x        equal     ${new_x}/${norm}
variable           unit_x        equal     -1.96354629976998/${norm}
variable           unit_x        equal     -1.96354629976998/2.44744661226932
variable           unit_y        equal     ${new_y}/${norm}
variable           unit_y        equal     0.01675286177709/${norm}
variable           unit_y        equal     0.01675286177709/2.44744661226932
variable           unit_z        equal     ${new_z}/${norm}
variable           unit_z        equal     1.46089020470071/${norm}
variable           unit_z        equal     1.46089020470071/2.44744661226932
variable           x_new         equal     ${x0}+${delta}*${unit_x}
variable           x_new         equal     -2.54629292859845+${delta}*${unit_x}
variable           x_new         equal     -2.54629292859845+0.04*${unit_x}
variable           x_new         equal     -2.54629292859845+0.04*-0.802283608527559
variable           y_new         equal     ${y0}+${delta}*${unit_y}
variable           y_new         equal     1.03963268531466+${delta}*${unit_y}
variable           y_new         equal     1.03963268531466+0.04*${unit_y}
variable           y_new         equal     1.03963268531466+0.04*0.0068450366570229
variable           z_new         equal     ${z0}+${delta}*${unit_z}
variable           z_new         equal     6.1670897323465+${delta}*${unit_z}
variable           z_new         equal     6.1670897323465+0.04*${unit_z}
variable           z_new         equal     6.1670897323465+0.04*0.59690380880102

set                atom          $i    x  ${x_new}  y  ${y_new}  z   ${z_new}
set                atom          288751    x  ${x_new}  y  ${y_new}  z   ${z_new}
set                atom          288751    x  -2.57838427293955  y  ${y_new}  z   ${z_new}
set                atom          288751    x  -2.57838427293955  y  1.03990648678094  z   ${z_new}
set                atom          288751    x  -2.57838427293955  y  1.03990648678094  z   6.19096588469854
Setting atom values ...
  1 settings made for x
  1 settings made for y
  1 settings made for z

fix                hold    carbon   planeforce   ${new_x}  ${new_y}  ${new_z}
fix                hold    carbon   planeforce   -1.96354629976998  ${new_y}  ${new_z}
fix                hold    carbon   planeforce   -1.96354629976998  0.01675286177709  ${new_z}
fix                hold    carbon   planeforce   -1.96354629976998  0.01675286177709  1.46089020470071
min_style          cg
minimize           1.0e-30 1.0e-30 10000 10000
Per MPI rank memory allocation (min/avg/max) = 5.441 | 5.816 | 6.074 Mbytes
Step PotEng KinEng TotEng v_fx v_fy v_fz 
   12247     -1152449            0     -1152449 -0.049880072 -0.017467438 -0.066842259 
   12443     -1152449            0     -1152449 1.4382718e-05 -8.7431172e-06 1.9431716e-05 
Loop time of 2.2859 on 104 procs for 196 steps with 288751 atoms

99.9% CPU use with 104 MPI tasks x 1 OpenMP threads

Minimization stats:
  Stopping criterion = energy tolerance
  Energy initial, next-to-last, final = 
     -1152448.99263557   -1152448.9984679   -1152448.9984679
  Force two-norm initial, final = 0.34519988 0.00017025485
  Force max component initial, final = 0.15683603 3.0817918e-05
  Final line search alpha, max atom move = 1.0000000 3.0817918e-05
  Iterations, force evaluations = 196 392

MPI task timing breakdown:
Section |  min time  |  avg time  |  max time  |%varavg| %total
---------------------------------------------------------------
Pair    | 0.60316    | 1.6559     | 2.1333     |  34.5 | 72.44
Neigh   | 0          | 0          | 0          |   0.0 |  0.00
Comm    | 0.038027   | 0.37021    | 1.1199     |  51.9 | 16.20
Output  | 0          | 0          | 0          |   0.0 |  0.00
Modify  | 2.4704e-05 | 0.0032402  | 0.0069023  |   2.7 |  0.14
Other   |            | 0.2565     |            |       | 11.22

Nlocal:        2776.45 ave        3960 max           0 min
Histogram: 8 4 4 0 4 12 8 6 24 34
Nghost:        3879.14 ave        5426 max         232 min
Histogram: 8 0 8 0 16 0 8 8 16 40
Neighs:        79213.3 ave      115396 max           0 min
Histogram: 8 4 4 0 10 6 8 8 24 32

Total # of neighbors = 8238185
Ave neighs/atom = 28.530412
Neighbor list builds = 0
Dangerous builds = 0
unfix              hold

variable           new_x         delete
variable           new_y         delete
variable           new_z         delete
variable           dot           delete
variable           new_x         equal     ${x0}-${x_0}
variable           new_x         equal     -2.5867825826402-${x_0}
variable           new_x         equal     -2.5867825826402--0.582746628828473
variable           new_y         equal     ${y0}-${y_0}
variable           new_y         equal     1.03269179679883-${y_0}
variable           new_y         equal     1.03269179679883-1.02287982353757
variable           new_z         equal     ${z0}-${z_0}
variable           new_z         equal     6.17976065984273-${z_0}
variable           new_z         equal     6.17976065984273-4.70619952764579
variable           module        equal     sqrt(${new_x}*${new_x}+${new_y}*${new_y}+${new_z}*${new_z})
variable           module        equal     sqrt(-2.00403595381173*${new_x}+${new_y}*${new_y}+${new_z}*${new_z})
variable           module        equal     sqrt(-2.00403595381173*-2.00403595381173+${new_y}*${new_y}+${new_z}*${new_z})
variable           module        equal     sqrt(-2.00403595381173*-2.00403595381173+0.00981197326126004*${new_y}+${new_z}*${new_z})
variable           module        equal     sqrt(-2.00403595381173*-2.00403595381173+0.00981197326126004*0.00981197326126004+${new_z}*${new_z})
variable           module        equal     sqrt(-2.00403595381173*-2.00403595381173+0.00981197326126004*0.00981197326126004+1.47356113219694*${new_z})
variable           module        equal     sqrt(-2.00403595381173*-2.00403595381173+0.00981197326126004*0.00981197326126004+1.47356113219694*1.47356113219694)
variable           unitx         equal     ${new_x}/${module}
variable           unitx         equal     -2.00403595381173/${module}
variable           unitx         equal     -2.00403595381173/2.48749649031127
variable           unity         equal     ${new_y}/${module}
variable           unity         equal     0.00981197326126004/${module}
variable           unity         equal     0.00981197326126004/2.48749649031127
variable           unitz         equal     ${new_z}/${module}
variable           unitz         equal     1.47356113219694/${module}
variable           unitz         equal     1.47356113219694/2.48749649031127

variable           dot      equal     ${fx}*${unitx}+${fy}*${unity}+${fz}*${unitz}
variable           dot      equal     1.43827176477777e-05*${unitx}+${fy}*${unity}+${fz}*${unitz}
variable           dot      equal     1.43827176477777e-05*-0.805643731204203+${fy}*${unity}+${fz}*${unitz}
variable           dot      equal     1.43827176477777e-05*-0.805643731204203+-8.74311721563142e-06*${unity}+${fz}*${unitz}
variable           dot      equal     1.43827176477777e-05*-0.805643731204203+-8.74311721563142e-06*0.00394451742926167+${fz}*${unitz}
variable           dot      equal     1.43827176477777e-05*-0.805643731204203+-8.74311721563142e-06*0.00394451742926167+1.94317164701931e-05*${unitz}
variable           dot      equal     1.43827176477777e-05*-0.805643731204203+-8.74311721563142e-06*0.00394451742926167+1.94317164701931e-05*0.592387220619776
print              "The dot product: ${dot}"
The dot product: -1.10733177206083e-07

if "(${dot} >= 0.0) && (${dot} < 1.0e-9)" then "jump TaR.in relaxation" elif "(${dot} >= 0.0) && (${dot} > 1.0e-4)" "jump TaR.in relaxation" elif "(${dot} < 0.0) && (${dot} > -1.0e-9)" "jump TaR.in relaxation" elif "(${iteration} == ${iter_tot}) && (${seed} < 319)" "print 'The iteration number is maximum!'" "next seed" "variable iteration delete" "jump TaR.in loop" elif "(${iteration} == ${iter_tot}) && (${seed} == 319)" "quit" else    "next iteration"    "jump TaR.in iteration"
next iteration
jump TaR.in iteration
variable           norm          equal     sqrt(${new_x}^2+${new_y}^2+${new_z}^2)
variable           norm          equal     sqrt(-2.00403595381173^2+${new_y}^2+${new_z}^2)
variable           norm          equal     sqrt(-2.00403595381173^2+0.00981197326126004^2+${new_z}^2)
variable           norm          equal     sqrt(-2.00403595381173^2+0.00981197326126004^2+1.47356113219694^2)
variable           unit_x        equal     ${new_x}/${norm}
variable           unit_x        equal     -2.00403595381173/${norm}
variable           unit_x        equal     -2.00403595381173/2.48749649031127
variable           unit_y        equal     ${new_y}/${norm}
variable           unit_y        equal     0.00981197326126004/${norm}
variable           unit_y        equal     0.00981197326126004/2.48749649031127
variable           unit_z        equal     ${new_z}/${norm}
variable           unit_z        equal     1.47356113219694/${norm}
variable           unit_z        equal     1.47356113219694/2.48749649031127
variable           x_new         equal     ${x0}+${delta}*${unit_x}
variable           x_new         equal     -2.5867825826402+${delta}*${unit_x}
variable           x_new         equal     -2.5867825826402+0.04*${unit_x}
variable           x_new         equal     -2.5867825826402+0.04*-0.805643731204203
variable           y_new         equal     ${y0}+${delta}*${unit_y}
variable           y_new         equal     1.03269179679883+${delta}*${unit_y}
variable           y_new         equal     1.03269179679883+0.04*${unit_y}
variable           y_new         equal     1.03269179679883+0.04*0.00394451742926167
variable           z_new         equal     ${z0}+${delta}*${unit_z}
variable           z_new         equal     6.17976065984273+${delta}*${unit_z}
variable           z_new         equal     6.17976065984273+0.04*${unit_z}
variable           z_new         equal     6.17976065984273+0.04*0.592387220619776

set                atom          $i    x  ${x_new}  y  ${y_new}  z   ${z_new}
set                atom          288751    x  ${x_new}  y  ${y_new}  z   ${z_new}
set                atom          288751    x  -2.61900833188837  y  ${y_new}  z   ${z_new}
set                atom          288751    x  -2.61900833188837  y  1.032849577496  z   ${z_new}
set                atom          288751    x  -2.61900833188837  y  1.032849577496  z   6.20345614866752
Setting atom values ...
  1 settings made for x
  1 settings made for y
  1 settings made for z

fix                hold    carbon   planeforce   ${new_x}  ${new_y}  ${new_z}
fix                hold    carbon   planeforce   -2.00403595381173  ${new_y}  ${new_z}
fix                hold    carbon   planeforce   -2.00403595381173  0.00981197326126004  ${new_z}
fix                hold    carbon   planeforce   -2.00403595381173  0.00981197326126004  1.47356113219694
min_style          cg
minimize           1.0e-30 1.0e-30 10000 10000
Per MPI rank memory allocation (min/avg/max) = 5.441 | 5.816 | 6.074 Mbytes
Step PotEng KinEng TotEng v_fx v_fy v_fz 
   12443     -1152449            0     -1152449 -0.019082826  0.010624809 -0.026023297 
   12647   -1152449.1            0   -1152449.1 -1.9819726e-05 3.9689096e-05 -2.7219007e-05 
Loop time of 2.39924 on 104 procs for 204 steps with 288751 atoms

99.9% CPU use with 104 MPI tasks x 1 OpenMP threads

Minimization stats:
  Stopping criterion = energy tolerance
  Energy initial, next-to-last, final = 
      -1152449.0470354  -1152449.05237847  -1152449.05237847
  Force two-norm initial, final = 0.33347408 0.00018825893
  Force max component initial, final = 0.15434512 4.2830728e-05
  Final line search alpha, max atom move = 1.0000000 4.2830728e-05
  Iterations, force evaluations = 204 408

MPI task timing breakdown:
Section |  min time  |  avg time  |  max time  |%varavg| %total
---------------------------------------------------------------
Pair    | 0.6313     | 1.7154     | 2.2306     |  35.1 | 71.50
Neigh   | 0          | 0          | 0          |   0.0 |  0.00
Comm    | 0.04221    | 0.38686    | 1.1614     |  52.2 | 16.12
Output  | 0          | 0          | 0          |   0.0 |  0.00
Modify  | 2.3891e-05 | 0.0033766  | 0.0071918  |   2.7 |  0.14
Other   |            | 0.2936     |            |       | 12.24

Nlocal:        2776.45 ave        3960 max           0 min
Histogram: 8 4 4 0 4 12 8 6 24 34
Nghost:        3879.16 ave        5426 max         232 min
Histogram: 8 0 8 0 16 0 8 8 16 40
Neighs:        79213.4 ave      115397 max           0 min
Histogram: 8 4 4 0 10 6 8 8 24 32

Total # of neighbors = 8238189
Ave neighs/atom = 28.530426
Neighbor list builds = 0
Dangerous builds = 0
