LAMMPS (29 Oct 2020)
OMP_NUM_THREADS environment is not set. Defaulting to 1 thread. (../comm.cpp:94)
  using 1 OpenMP thread(s) per MPI task
OMP_NUM_THREADS environment is not set. Defaulting to 1 thread. (../comm.cpp:94)
  using 1 OpenMP thread(s) per MPI task
Reading data file ...
  orthogonal box = (-122.39241 -121.13707 -37.090501) to (122.39241 121.13707 37.090501)
  13 by 4 by 2 MPI processor grid
  reading atoms ...
  288751 atoms
  read_data CPU = 0.371 seconds
199981 atoms in group inner
88770 atoms in group outer
1 atoms in group carbon
Neighbor list info ...
  update every 1 steps, delay 0 steps, check yes
  max neighbors/atom: 2000, page size: 100000
  master list distance cutoff = 5.6
  ghost atom cutoff = 5.6
  binsize = 2.8, bins = 88 87 27
  1 neighbor lists, perpetual/occasional/extra = 1 0 0
  (1) pair eam/alloy, perpetual
      attributes: half, newton on
      pair build: half/bin/atomonly/newton
      stencil: half/bin/3d/newton
      bin: standard
Setting up cg style minimization ...
  Unit style    : metal
  Current step  : 0
Per MPI rank memory allocation (min/avg/max) = 5.441 | 5.816 | 6.074 Mbytes
Step v_fx v_fy v_fz PotEng KinEng TotEng 
       0   -25.409511    15.059185      49.9568   -1152433.5            0   -1152433.5 
     171 -1.1351615e-05 1.9111511e-05 4.9456971e-06   -1152449.5            0   -1152449.5 
Loop time of 1.98648 on 104 procs for 171 steps with 288751 atoms

99.8% CPU use with 104 MPI tasks x 1 OpenMP threads

Minimization stats:
  Stopping criterion = energy tolerance
  Energy initial, next-to-last, final = 
     -1152433.47074207  -1152449.45035261  -1152449.45035261
  Force two-norm initial, final = 87.079027 9.3306139e-05
  Force max component initial, final = 57.190163 1.9111511e-05
  Final line search alpha, max atom move = 1.0000000 1.9111511e-05
  Iterations, force evaluations = 171 333

MPI task timing breakdown:
Section |  min time  |  avg time  |  max time  |%varavg| %total
---------------------------------------------------------------
Pair    | 0.52811    | 1.4067     | 1.8153     |  31.3 | 70.81
Neigh   | 5.1267e-05 | 0.014717   | 0.021503   |   5.0 |  0.74
Comm    | 0.039452   | 0.31971    | 0.9526     |  46.5 | 16.09
Output  | 0          | 0          | 0          |   0.0 |  0.00
Modify  | 2.0219e-05 | 0.0017991  | 0.004589   |   2.6 |  0.09
Other   |            | 0.2436     |            |       | 12.26

Nlocal:        2776.45 ave        3958 max           0 min
Histogram: 8 4 4 0 4 12 8 2 28 34
Nghost:        3879.03 ave        5424 max         232 min
Histogram: 8 0 8 0 16 0 8 8 16 40
Neighs:        79213.5 ave      115369 max           0 min
Histogram: 8 4 4 0 10 6 8 8 24 32

Total # of neighbors = 8238206
Ave neighs/atom = 28.530485
Neighbor list builds = 5
Dangerous builds = 0
Setting atom values ...
  1 settings made for x
  1 settings made for y
  1 settings made for z
Setting up cg style minimization ...
  Unit style    : metal
  Current step  : 171
Per MPI rank memory allocation (min/avg/max) = 5.441 | 5.816 | 6.074 Mbytes
Step PotEng KinEng TotEng v_fx v_fy v_fz 
     171   -1152449.4            0   -1152449.4 -0.026319113  0.010053026 -0.033525132 
     393   -1152449.4            0   -1152449.4 2.7198775e-06 -1.2881161e-06 2.6688867e-06 
Loop time of 2.58462 on 104 procs for 222 steps with 288751 atoms

99.9% CPU use with 104 MPI tasks x 1 OpenMP threads

Minimization stats:
  Stopping criterion = energy tolerance
  Energy initial, next-to-last, final = 
     -1152449.44724359  -1152449.44916263  -1152449.44916263
  Force two-norm initial, final = 0.19912478 3.5048236e-05
  Force max component initial, final = 0.10546002 2.9656232e-06
  Final line search alpha, max atom move = 1.0000000 2.9656232e-06
  Iterations, force evaluations = 222 444

MPI task timing breakdown:
Section |  min time  |  avg time  |  max time  |%varavg| %total
---------------------------------------------------------------
Pair    | 0.6817     | 1.875      | 2.4258     |  36.7 | 72.55
Neigh   | 0          | 0          | 0          |   0.0 |  0.00
Comm    | 0.049302   | 0.41982    | 1.2646     |  54.9 | 16.24
Output  | 0          | 0          | 0          |   0.0 |  0.00
Modify  | 2.8747e-05 | 0.0036631  | 0.0078422  |   2.9 |  0.14
Other   |            | 0.2861     |            |       | 11.07

Nlocal:        2776.45 ave        3960 max           0 min
Histogram: 8 4 4 0 4 12 8 2 28 34
Nghost:        3879.03 ave        5424 max         232 min
Histogram: 8 0 8 0 16 0 8 8 16 40
Neighs:        79213.4 ave      115431 max           0 min
Histogram: 8 4 4 0 10 6 8 8 24 32

Total # of neighbors = 8238197
Ave neighs/atom = 28.530454
Neighbor list builds = 0
Dangerous builds = 0
Setting atom values ...
  1 settings made for x
  1 settings made for y
  1 settings made for z
Setting up cg style minimization ...
  Unit style    : metal
  Current step  : 393
Per MPI rank memory allocation (min/avg/max) = 5.441 | 5.816 | 6.074 Mbytes
Step PotEng KinEng TotEng v_fx v_fy v_fz 
     393   -1152449.4            0   -1152449.4 -0.043622923  0.016335416 -0.061405555 
     627   -1152449.4            0   -1152449.4 4.0830893e-08 -1.0595833e-06 -3.653617e-06 
Loop time of 2.75795 on 104 procs for 234 steps with 288751 atoms

99.9% CPU use with 104 MPI tasks x 1 OpenMP threads

Minimization stats:
  Stopping criterion = energy tolerance
  Energy initial, next-to-last, final = 
      -1152449.4365224  -1152449.44176574  -1152449.44176574
  Force two-norm initial, final = 0.33048694 3.0825403e-05
  Force max component initial, final = 0.18623232 3.6536170e-06
  Final line search alpha, max atom move = 1.0000000 3.6536170e-06
  Iterations, force evaluations = 234 468

MPI task timing breakdown:
Section |  min time  |  avg time  |  max time  |%varavg| %total
---------------------------------------------------------------
Pair    | 0.70901    | 1.962      | 2.5598     |  37.9 | 71.14
Neigh   | 0          | 0          | 0          |   0.0 |  0.00
Comm    | 0.052271   | 0.44697    | 1.3287     |  55.1 | 16.21
Output  | 0          | 0          | 0          |   0.0 |  0.00
Modify  | 2.9311e-05 | 0.0038544  | 0.0081761  |   2.9 |  0.14
Other   |            | 0.3452     |            |       | 12.51

Nlocal:        2776.45 ave        3960 max           0 min
Histogram: 8 4 4 0 4 12 8 2 28 34
Nghost:        3879.03 ave        5424 max         232 min
Histogram: 8 0 8 0 16 0 8 8 16 40
Neighs:        79213.4 ave      115431 max           0 min
Histogram: 8 4 4 0 10 6 8 8 24 32

Total # of neighbors = 8238194
Ave neighs/atom = 28.530443
Neighbor list builds = 0
Dangerous builds = 0
The dot product: 1.35081642872422e-07
Setting atom values ...
  1 settings made for x
  1 settings made for y
  1 settings made for z
Setting up cg style minimization ...
  Unit style    : metal
  Current step  : 627
Per MPI rank memory allocation (min/avg/max) = 5.441 | 5.816 | 6.074 Mbytes
Step PotEng KinEng TotEng v_fx v_fy v_fz 
     627   -1152449.4            0   -1152449.4 -0.036056251 0.0092026772   -0.0801479 
     780   -1152449.4            0   -1152449.4 1.4808953e-05 -7.4734631e-06 1.7118343e-05 
Loop time of 1.76315 on 104 procs for 153 steps with 288751 atoms

99.9% CPU use with 104 MPI tasks x 1 OpenMP threads

Minimization stats:
  Stopping criterion = energy tolerance
  Energy initial, next-to-last, final = 
     -1152449.42337522  -1152449.42861213  -1152449.42861213
  Force two-norm initial, final = 0.33119437 0.00014819124
  Force max component initial, final = 0.19721305 1.7596355e-05
  Final line search alpha, max atom move = 1.0000000 1.7596355e-05
  Iterations, force evaluations = 153 306

MPI task timing breakdown:
Section |  min time  |  avg time  |  max time  |%varavg| %total
---------------------------------------------------------------
Pair    | 0.46836    | 1.2916     | 1.6632     |  30.5 | 73.26
Neigh   | 0          | 0          | 0          |   0.0 |  0.00
Comm    | 0.028097   | 0.28956    | 0.89161    |  45.8 | 16.42
Output  | 0          | 0          | 0          |   0.0 |  0.00
Modify  | 1.9157e-05 | 0.0025208  | 0.0053452  |   2.4 |  0.14
Other   |            | 0.1795     |            |       | 10.18

Nlocal:        2776.45 ave        3957 max           0 min
Histogram: 8 4 4 0 4 12 8 2 28 34
Nghost:        3879.03 ave        5424 max         232 min
Histogram: 8 0 8 0 16 0 8 8 16 40
Neighs:        79213.4 ave      115330 max           0 min
Histogram: 8 4 4 0 10 6 8 8 24 32

Total # of neighbors = 8238194
Ave neighs/atom = 28.530443
Neighbor list builds = 0
Dangerous builds = 0
The dot product: -9.16967108563408e-07
Setting atom values ...
  1 settings made for x
  1 settings made for y
  1 settings made for z
Setting up cg style minimization ...
  Unit style    : metal
  Current step  : 780
Per MPI rank memory allocation (min/avg/max) = 5.441 | 5.816 | 6.074 Mbytes
Step PotEng KinEng TotEng v_fx v_fy v_fz 
     780   -1152449.4            0   -1152449.4 -0.029076795 0.0094301805 -0.086720264 
     920   -1152449.4            0   -1152449.4 -6.4856489e-06 2.6944375e-06 -1.5160279e-05 
Loop time of 1.63475 on 104 procs for 140 steps with 288751 atoms

99.9% CPU use with 104 MPI tasks x 1 OpenMP threads

Minimization stats:
  Stopping criterion = energy tolerance
  Energy initial, next-to-last, final = 
     -1152449.40509468  -1152449.41028581  -1152449.41028581
  Force two-norm initial, final = 0.32846628 9.9256049e-05
  Force max component initial, final = 0.2066825 1.5160279e-05
  Final line search alpha, max atom move = 1.0000000 1.5160279e-05
  Iterations, force evaluations = 140 280

MPI task timing breakdown:
Section |  min time  |  avg time  |  max time  |%varavg| %total
---------------------------------------------------------------
Pair    | 0.42904    | 1.1755     | 1.5281     |  29.1 | 71.91
Neigh   | 0          | 0          | 0          |   0.0 |  0.00
Comm    | 0.02802    | 0.26439    | 0.79314    |  43.0 | 16.17
Output  | 0          | 0          | 0          |   0.0 |  0.00
Modify  | 1.7608e-05 | 0.0023165  | 0.0049398  |   2.3 |  0.14
Other   |            | 0.1926     |            |       | 11.78

Nlocal:        2776.45 ave        3956 max           0 min
Histogram: 8 4 4 0 4 12 8 2 28 34
Nghost:        3879.03 ave        5424 max         232 min
Histogram: 8 0 8 0 16 0 8 8 16 40
Neighs:        79213.4 ave      115292 max           0 min
Histogram: 8 4 4 0 10 6 8 8 24 32

Total # of neighbors = 8238198
Ave neighs/atom = 28.530457
Neighbor list builds = 0
Dangerous builds = 0
The dot product: 8.79915914260348e-07
Setting atom values ...
  1 settings made for x
  1 settings made for y
  1 settings made for z
Setting up cg style minimization ...
  Unit style    : metal
  Current step  : 920
Per MPI rank memory allocation (min/avg/max) = 5.441 | 5.816 | 6.074 Mbytes
Step PotEng KinEng TotEng v_fx v_fy v_fz 
     920   -1152449.4            0   -1152449.4 -0.026773964  0.014392149  -0.08319784 
    1000   -1152449.4            0   -1152449.4 -9.9187495e-05 7.8838206e-05 0.00012548933 
    1211   -1152449.4            0   -1152449.4 -2.3001158e-07 1.5365376e-07 -2.0469685e-07 
Loop time of 3.36339 on 104 procs for 291 steps with 288751 atoms

99.9% CPU use with 104 MPI tasks x 1 OpenMP threads

Minimization stats:
  Stopping criterion = energy tolerance
  Energy initial, next-to-last, final = 
     -1152449.38150906  -1152449.38658689  -1152449.38658689
  Force two-norm initial, final = 0.32532125 2.5832942e-06
  Force max component initial, final = 0.21440947 6.1315806e-07
  Final line search alpha, max atom move = 1.0000000 6.1315806e-07
  Iterations, force evaluations = 291 582

MPI task timing breakdown:
Section |  min time  |  avg time  |  max time  |%varavg| %total
---------------------------------------------------------------
Pair    | 0.88933    | 2.4497     | 3.1625     |  42.0 | 72.83
Neigh   | 0          | 0          | 0          |   0.0 |  0.00
Comm    | 0.062507   | 0.54653    | 1.6483     |  62.8 | 16.25
Output  | 0.00016152 | 0.00017232 | 0.00031604 |   0.0 |  0.01
Modify  | 3.5956e-05 | 0.0047966  | 0.010224   |   3.3 |  0.14
Other   |            | 0.3622     |            |       | 10.77

Nlocal:        2776.45 ave        3951 max           0 min
Histogram: 8 4 4 0 4 12 8 2 28 34
Nghost:        3879.07 ave        5424 max         232 min
Histogram: 8 0 8 0 16 0 8 8 16 40
Neighs:        79213.4 ave      115137 max           0 min
Histogram: 8 4 4 0 10 6 8 8 24 32

Total # of neighbors = 8238198
Ave neighs/atom = 28.530457
Neighbor list builds = 0
Dangerous builds = 0
The dot product: 8.61489444595546e-09
Setting atom values ...
  1 settings made for x
  1 settings made for y
  1 settings made for z
Setting up cg style minimization ...
  Unit style    : metal
  Current step  : 1211
Per MPI rank memory allocation (min/avg/max) = 5.441 | 5.816 | 6.074 Mbytes
Step PotEng KinEng TotEng v_fx v_fy v_fz 
    1211   -1152449.4            0   -1152449.4 -0.028236004  0.020397231   -0.0745066 
    1396   -1152449.4            0   -1152449.4 6.4061114e-06 -4.5584408e-06 2.5425091e-06 
Loop time of 2.12752 on 104 procs for 185 steps with 288751 atoms

99.9% CPU use with 104 MPI tasks x 1 OpenMP threads

Minimization stats:
  Stopping criterion = energy tolerance
  Energy initial, next-to-last, final = 
     -1152449.35238245   -1152449.3573481   -1152449.3573481
  Force two-norm initial, final = 0.3232761 0.00014292181
  Force max component initial, final = 0.22164218 1.9363667e-05
  Final line search alpha, max atom move = 1.0000000 1.9363667e-05
  Iterations, force evaluations = 185 370

MPI task timing breakdown:
Section |  min time  |  avg time  |  max time  |%varavg| %total
---------------------------------------------------------------
Pair    | 0.56259    | 1.5494     | 2.0066     |  33.5 | 72.83
Neigh   | 0          | 0          | 0          |   0.0 |  0.00
Comm    | 0.036374   | 0.34602    | 1.0557     |  50.0 | 16.26
Output  | 0          | 0          | 0          |   0.0 |  0.00
Modify  | 2.3423e-05 | 0.0030514  | 0.0065255  |   2.6 |  0.14
Other   |            | 0.229      |            |       | 10.77

Nlocal:        2776.45 ave        3945 max           0 min
Histogram: 8 4 4 0 4 12 8 2 26 36
Nghost:        3879.07 ave        5424 max         232 min
Histogram: 8 0 8 0 16 0 8 8 16 40
Neighs:        79213.4 ave      114942 max           0 min
Histogram: 8 4 4 0 10 6 8 8 23 33

Total # of neighbors = 8238194
Ave neighs/atom = 28.530443
Neighbor list builds = 0
Dangerous builds = 0
The dot product: -1.18296543131601e-07
Setting atom values ...
  1 settings made for x
  1 settings made for y
  1 settings made for z
Setting up cg style minimization ...
  Unit style    : metal
  Current step  : 1396
Per MPI rank memory allocation (min/avg/max) = 5.441 | 5.816 | 6.074 Mbytes
Step PotEng KinEng TotEng v_fx v_fy v_fz 
    1396   -1152449.3            0   -1152449.3 -0.031760863   0.02603583 -0.064174809 
    1567   -1152449.3            0   -1152449.3 -2.2488072e-05 1.8903727e-05 -5.4353065e-05 
Loop time of 1.99373 on 104 procs for 171 steps with 288751 atoms

99.9% CPU use with 104 MPI tasks x 1 OpenMP threads

Minimization stats:
  Stopping criterion = energy tolerance
  Energy initial, next-to-last, final = 
     -1152449.31753888  -1152449.32241215  -1152449.32241215
  Force two-norm initial, final = 0.32331194 0.0002969483
  Force max component initial, final = 0.22925795 5.4353065e-05
  Final line search alpha, max atom move = 1.0000000 5.4353065e-05
  Iterations, force evaluations = 171 342

MPI task timing breakdown:
Section |  min time  |  avg time  |  max time  |%varavg| %total
---------------------------------------------------------------
Pair    | 0.52135    | 1.4417     | 1.8632     |  32.2 | 72.31
Neigh   | 0          | 0          | 0          |   0.0 |  0.00
Comm    | 0.03717    | 0.32348    | 0.9796     |  48.0 | 16.22
Output  | 0          | 0          | 0          |   0.0 |  0.00
Modify  | 2.0797e-05 | 0.0028276  | 0.0060232  |   2.5 |  0.14
Other   |            | 0.2257     |            |       | 11.32

Nlocal:        2776.45 ave        3932 max           0 min
Histogram: 8 4 4 0 4 12 8 0 26 38
Nghost:        3879.07 ave        5424 max         232 min
Histogram: 8 0 8 0 16 0 8 8 16 40
Neighs:        79213.4 ave      114544 max           0 min
Histogram: 8 4 4 0 8 8 8 8 20 36

Total # of neighbors = 8238195
Ave neighs/atom = 28.530447
Neighbor list builds = 0
Dangerous builds = 0
The dot product: 1.89835297868449e-06
Setting atom values ...
  1 settings made for x
  1 settings made for y
  1 settings made for z
Setting up cg style minimization ...
  Unit style    : metal
  Current step  : 1567
Per MPI rank memory allocation (min/avg/max) = 5.441 | 5.816 | 6.074 Mbytes
Step PotEng KinEng TotEng v_fx v_fy v_fz 
    1567   -1152449.3            0   -1152449.3  -0.03680462  0.031723747 -0.054669944 
    1759   -1152449.3            0   -1152449.3 3.750279e-06 -3.1087076e-07 -2.7064533e-05 
Loop time of 2.20564 on 104 procs for 192 steps with 288751 atoms

99.9% CPU use with 104 MPI tasks x 1 OpenMP threads

Minimization stats:
  Stopping criterion = energy tolerance
  Energy initial, next-to-last, final = 
     -1152449.27676888  -1152449.28164655  -1152449.28164655
  Force two-norm initial, final = 0.32635855 0.00013808126
  Force max component initial, final = 0.23761225 2.7064533e-05
  Final line search alpha, max atom move = 1.0000000 2.7064533e-05
  Iterations, force evaluations = 192 384

MPI task timing breakdown:
Section |  min time  |  avg time  |  max time  |%varavg| %total
---------------------------------------------------------------
Pair    | 0.58625    | 1.6102     | 2.0803     |  34.1 | 73.00
Neigh   | 0          | 0          | 0          |   0.0 |  0.00
Comm    | 0.040529   | 0.35738    | 1.0872     |  51.2 | 16.20
Output  | 0          | 0          | 0          |   0.0 |  0.00
Modify  | 2.5603e-05 | 0.0031734  | 0.0067412  |   2.7 |  0.14
Other   |            | 0.2349     |            |       | 10.65

Nlocal:        2776.45 ave        3930 max           0 min
Histogram: 8 4 4 0 4 12 8 0 26 38
Nghost:        3879.07 ave        5424 max         232 min
Histogram: 8 0 8 0 16 0 8 8 16 40
Neighs:        79213.4 ave      114463 max           0 min
Histogram: 8 4 4 0 8 8 8 8 20 36

Total # of neighbors = 8238195
Ave neighs/atom = 28.530447
Neighbor list builds = 0
Dangerous builds = 0
The dot product: 5.53482042739824e-07
Setting atom values ...
  1 settings made for x
  1 settings made for y
  1 settings made for z
Setting up cg style minimization ...
  Unit style    : metal
  Current step  : 1759
Per MPI rank memory allocation (min/avg/max) = 5.441 | 5.816 | 6.074 Mbytes
Step PotEng KinEng TotEng v_fx v_fy v_fz 
    1759   -1152449.2            0   -1152449.2 -0.043333842  0.038246577  -0.04633037 
    1947   -1152449.2            0   -1152449.2 -5.455182e-06 6.1540768e-06 -1.7092977e-05 
Loop time of 2.17356 on 104 procs for 188 steps with 288751 atoms

99.9% CPU use with 104 MPI tasks x 1 OpenMP threads

Minimization stats:
  Stopping criterion = energy tolerance
  Energy initial, next-to-last, final = 
     -1152449.22996902  -1152449.23498305  -1152449.23498305
  Force two-norm initial, final = 0.3332269 0.00014059799
  Force max component initial, final = 0.246972 2.1814366e-05
  Final line search alpha, max atom move = 1.0000000 2.1814366e-05
  Iterations, force evaluations = 188 376

MPI task timing breakdown:
Section |  min time  |  avg time  |  max time  |%varavg| %total
---------------------------------------------------------------
Pair    | 0.57484    | 1.5871     | 2.0426     |  33.8 | 73.02
Neigh   | 0          | 0          | 0          |   0.0 |  0.00
Comm    | 0.034021   | 0.35548    | 1.0914     |  50.7 | 16.35
Output  | 0          | 0          | 0          |   0.0 |  0.00
Modify  | 2.3326e-05 | 0.0031013  | 0.0065866  |   2.6 |  0.14
Other   |            | 0.2279     |            |       | 10.48

Nlocal:        2776.45 ave        3930 max           0 min
Histogram: 8 4 4 0 4 12 8 0 26 38
Nghost:        3879.14 ave        5424 max         232 min
Histogram: 8 0 8 0 16 0 8 8 16 40
Neighs:        79213.4 ave      114463 max           0 min
Histogram: 8 4 4 0 8 8 8 8 20 36

Total # of neighbors = 8238193
Ave neighs/atom = 28.530440
Neighbor list builds = 0
Dangerous builds = 0
The dot product: 4.80101458771263e-07
Setting atom values ...
  1 settings made for x
  1 settings made for y
  1 settings made for z
Setting up cg style minimization ...
  Unit style    : metal
  Current step  : 1947
Per MPI rank memory allocation (min/avg/max) = 5.441 | 5.816 | 6.074 Mbytes
Step PotEng KinEng TotEng v_fx v_fy v_fz 
    1947   -1152449.2            0   -1152449.2 -0.049927067  0.045175935 -0.039061588 
    2000   -1152449.2            0   -1152449.2 5.2979596e-05 -6.0803306e-05 0.00013138797 
    2145   -1152449.2            0   -1152449.2 -2.187073e-06 5.4595179e-06 -2.6042874e-05 
Loop time of 2.29759 on 104 procs for 198 steps with 288751 atoms

99.9% CPU use with 104 MPI tasks x 1 OpenMP threads

Minimization stats:
  Stopping criterion = energy tolerance
  Energy initial, next-to-last, final = 
     -1152449.17716521  -1152449.18244979  -1152449.18244979
  Force two-norm initial, final = 0.34365785 0.00012194793
  Force max component initial, final = 0.25739641 2.6042874e-05
  Final line search alpha, max atom move = 1.0000000 2.6042874e-05
  Iterations, force evaluations = 198 396

MPI task timing breakdown:
Section |  min time  |  avg time  |  max time  |%varavg| %total
---------------------------------------------------------------
Pair    | 0.60396    | 1.6685     | 2.1565     |  34.7 | 72.62
Neigh   | 0          | 0          | 0          |   0.0 |  0.00
Comm    | 0.040124   | 0.37324    | 1.1377     |  52.1 | 16.25
Output  | 0.00014942 | 0.00015821 | 0.00028993 |   0.0 |  0.01
Modify  | 2.4281e-05 | 0.0032598  | 0.0069455  |   2.7 |  0.14
Other   |            | 0.2524     |            |       | 10.98

Nlocal:        2776.45 ave        3930 max           0 min
Histogram: 8 4 4 0 4 12 8 0 26 38
Nghost:        3879.14 ave        5424 max         232 min
Histogram: 8 0 8 0 16 0 8 8 16 40
Neighs:        79213.4 ave      114463 max           0 min
Histogram: 8 4 4 0 8 8 8 8 20 36

Total # of neighbors = 8238189
Ave neighs/atom = 28.530426
Neighbor list builds = 0
Dangerous builds = 0
The dot product: 4.83821355860799e-07
Setting atom values ...
  1 settings made for x
  1 settings made for y
  1 settings made for z
Setting up cg style minimization ...
  Unit style    : metal
  Current step  : 2145
Per MPI rank memory allocation (min/avg/max) = 5.441 | 5.816 | 6.074 Mbytes
Step PotEng KinEng TotEng v_fx v_fy v_fz 
    2145   -1152449.1            0   -1152449.1 -0.053425291  0.050017137  -0.03096448 
    2350   -1152449.1            0   -1152449.1 2.3294635e-06 -2.1590205e-06 1.216494e-06 
Loop time of 2.36489 on 104 procs for 205 steps with 288751 atoms

99.9% CPU use with 104 MPI tasks x 1 OpenMP threads

Minimization stats:
  Stopping criterion = energy tolerance
  Energy initial, next-to-last, final = 
     -1152449.11851228  -1152449.12415309  -1152449.12415309
  Force two-norm initial, final = 0.35541921 9.5302621e-05
  Force max component initial, final = 0.26887441 8.2441309e-06
  Final line search alpha, max atom move = 1.0000000 8.2441309e-06
  Iterations, force evaluations = 205 410

MPI task timing breakdown:
Section |  min time  |  avg time  |  max time  |%varavg| %total
---------------------------------------------------------------
Pair    | 0.62332    | 1.7256     | 2.2205     |  35.4 | 72.97
Neigh   | 0          | 0          | 0          |   0.0 |  0.00
Comm    | 0.044583   | 0.38635    | 1.1783     |  53.1 | 16.34
Output  | 0          | 0          | 0          |   0.0 |  0.00
Modify  | 2.5369e-05 | 0.0033799  | 0.007227   |   2.7 |  0.14
Other   |            | 0.2495     |            |       | 10.55

Nlocal:        2776.45 ave        3930 max           0 min
Histogram: 8 4 4 0 4 12 8 0 26 38
Nghost:        3879.12 ave        5424 max         232 min
Histogram: 8 0 8 0 16 0 8 8 16 40
Neighs:        79213.4 ave      114464 max           0 min
Histogram: 8 4 4 0 8 8 8 8 20 36

Total # of neighbors = 8238189
Ave neighs/atom = 28.530426
Neighbor list builds = 0
Dangerous builds = 0
The dot product: -1.15509652747756e-07
Setting atom values ...
  1 settings made for x
  1 settings made for y
  1 settings made for z
Setting up cg style minimization ...
  Unit style    : metal
  Current step  : 2350
Per MPI rank memory allocation (min/avg/max) = 5.441 | 5.816 | 6.074 Mbytes
Step PotEng KinEng TotEng v_fx v_fy v_fz 
    2350   -1152449.1            0   -1152449.1 -0.054346603  0.048603107 0.0019447555 
    2564   -1152449.1            0   -1152449.1 1.0930718e-06 1.8339684e-06 -1.5753153e-05 
Loop time of 2.49901 on 104 procs for 214 steps with 288751 atoms

99.9% CPU use with 104 MPI tasks x 1 OpenMP threads

Minimization stats:
  Stopping criterion = energy tolerance
  Energy initial, next-to-last, final = 
     -1152449.05337359  -1152449.05960568  -1152449.05960568
  Force two-norm initial, final = 0.36543559 7.8058884e-05
  Force max component initial, final = 0.28129146 1.5753153e-05
  Final line search alpha, max atom move = 1.0000000 1.5753153e-05
  Iterations, force evaluations = 214 428

MPI task timing breakdown:
Section |  min time  |  avg time  |  max time  |%varavg| %total
---------------------------------------------------------------
Pair    | 0.65065    | 1.7966     | 2.3207     |  35.9 | 71.89
Neigh   | 0          | 0          | 0          |   0.0 |  0.00
Comm    | 0.052152   | 0.40524    | 1.2245     |  53.6 | 16.22
Output  | 0          | 0          | 0          |   0.0 |  0.00
Modify  | 2.647e-05  | 0.0035217  | 0.0074913  |   2.8 |  0.14
Other   |            | 0.2937     |            |       | 11.75

Nlocal:        2776.45 ave        3930 max           0 min
Histogram: 8 4 4 0 4 12 8 0 26 38
Nghost:        3879.14 ave        5424 max         232 min
Histogram: 8 0 8 0 16 0 8 8 16 40
Neighs:        79213.3 ave      114464 max           0 min
Histogram: 8 4 4 0 8 8 8 8 20 36

Total # of neighbors = 8238187
Ave neighs/atom = 28.530419
Neighbor list builds = 0
Dangerous builds = 0
The dot product: -7.0669073502639e-08
Setting atom values ...
  1 settings made for x
  1 settings made for y
  1 settings made for z
Setting up cg style minimization ...
  Unit style    : metal
  Current step  : 2564
Per MPI rank memory allocation (min/avg/max) = 5.441 | 5.816 | 6.074 Mbytes
Step PotEng KinEng TotEng v_fx v_fy v_fz 
    2564     -1152449            0     -1152449 -0.070449483  0.062471562  0.037724438 
    2722     -1152449            0     -1152449 2.8667762e-06 -2.7089573e-06 -5.9911799e-07 
Loop time of 1.86133 on 104 procs for 158 steps with 288751 atoms

99.9% CPU use with 104 MPI tasks x 1 OpenMP threads

Minimization stats:
  Stopping criterion = energy tolerance
  Energy initial, next-to-last, final = 
     -1152448.98176968  -1152448.98918908  -1152448.98918908
  Force two-norm initial, final = 0.38392201 8.8596272e-05
  Force max component initial, final = 0.29609664 1.1870420e-05
  Final line search alpha, max atom move = 1.0000000 1.1870420e-05
  Iterations, force evaluations = 158 316

MPI task timing breakdown:
Section |  min time  |  avg time  |  max time  |%varavg| %total
---------------------------------------------------------------
Pair    | 0.48903    | 1.3331     | 1.7148     |  30.8 | 71.62
Neigh   | 0          | 0          | 0          |   0.0 |  0.00
Comm    | 0.035653   | 0.30102    | 0.90711    |  45.9 | 16.17
Output  | 0          | 0          | 0          |   0.0 |  0.00
Modify  | 1.9447e-05 | 0.0026175  | 0.0055585  |   2.4 |  0.14
Other   |            | 0.2246     |            |       | 12.07

Nlocal:        2776.45 ave        3930 max           0 min
Histogram: 8 4 4 0 4 12 8 0 26 38
Nghost:        3879.18 ave        5425 max         232 min
Histogram: 8 0 8 0 16 0 8 8 16 40
Neighs:        79213.3 ave      114464 max           0 min
Histogram: 8 4 4 0 8 8 8 8 20 36

Total # of neighbors = 8238183
Ave neighs/atom = 28.530405
Neighbor list builds = 0
Dangerous builds = 0
The dot product: -2.36865528069224e-07
Setting atom values ...
  1 settings made for x
  1 settings made for y
  1 settings made for z
Setting up cg style minimization ...
  Unit style    : metal
  Current step  : 2722
Per MPI rank memory allocation (min/avg/max) = 5.441 | 5.816 | 6.074 Mbytes
Step PotEng KinEng TotEng v_fx v_fy v_fz 
    2722   -1152448.9            0   -1152448.9 -0.092863527  0.087937722  0.093430312 
    2961     -1152449            0     -1152449 2.6653659e-08 -7.0695683e-06 4.6194552e-05 
Loop time of 2.75579 on 104 procs for 239 steps with 288751 atoms

99.9% CPU use with 104 MPI tasks x 1 OpenMP threads

Minimization stats:
  Stopping criterion = energy tolerance
  Energy initial, next-to-last, final = 
     -1152448.90577305  -1152448.95575965  -1152448.95575965
  Force two-norm initial, final = 0.4152947 0.0002144366
  Force max component initial, final = 0.31390627 5.4569686e-05
  Final line search alpha, max atom move = 1.0000000 5.4569686e-05
  Iterations, force evaluations = 239 478

MPI task timing breakdown:
Section |  min time  |  avg time  |  max time  |%varavg| %total
---------------------------------------------------------------
Pair    | 0.73126    | 2.002      | 2.5856     |  38.0 | 72.65
Neigh   | 2.0453e-05 | 0.0059049  | 0.0085155  |   3.2 |  0.21
Comm    | 0.050311   | 0.44683    | 1.3607     |  56.9 | 16.21
Output  | 0          | 0          | 0          |   0.0 |  0.00
Modify  | 2.9125e-05 | 0.0039352  | 0.0083846  |   3.0 |  0.14
Other   |            | 0.2972     |            |       | 10.78

Nlocal:        2776.45 ave        3930 max           0 min
Histogram: 8 4 4 0 4 12 8 0 26 38
Nghost:        3879.22 ave        5425 max         232 min
Histogram: 8 0 8 0 16 0 8 8 16 40
Neighs:        79213.3 ave      114471 max           0 min
Histogram: 8 4 4 0 8 8 8 8 20 36

Total # of neighbors = 8238187
Ave neighs/atom = 28.530419
Neighbor list builds = 2
Dangerous builds = 0
The dot product: 5.99522816669083e-06
Setting atom values ...
  1 settings made for x
  1 settings made for y
  1 settings made for z
Setting up cg style minimization ...
  Unit style    : metal
  Current step  : 2961
Per MPI rank memory allocation (min/avg/max) = 5.441 | 5.816 | 6.074 Mbytes
Step PotEng KinEng TotEng v_fx v_fy v_fz 
    2961   -1152448.9            0   -1152448.9 -0.090266195   0.14844858    0.2055258 
    3000   -1152448.9            0   -1152448.9 0.00024123666 -0.00036002005 -8.0784223e-05 
    3184   -1152448.9            0   -1152448.9 -1.1011201e-05 1.5250299e-05 -1.1406878e-05 
Loop time of 2.57406 on 104 procs for 223 steps with 288751 atoms

99.9% CPU use with 104 MPI tasks x 1 OpenMP threads

Minimization stats:
  Stopping criterion = energy tolerance
  Energy initial, next-to-last, final = 
     -1152448.90401385  -1152448.91936148  -1152448.91936148
  Force two-norm initial, final = 0.50852358 0.00011930936
  Force max component initial, final = 0.34629453 3.6369358e-05
  Final line search alpha, max atom move = 1.0000000 3.6369358e-05
  Iterations, force evaluations = 223 446

MPI task timing breakdown:
Section |  min time  |  avg time  |  max time  |%varavg| %total
---------------------------------------------------------------
Pair    | 0.683      | 1.8753     | 2.4125     |  36.6 | 72.85
Neigh   | 0          | 0          | 0          |   0.0 |  0.00
Comm    | 0.049495   | 0.41731    | 1.2771     |  55.3 | 16.21
Output  | 0.00017036 | 0.00017626 | 0.00028722 |   0.0 |  0.01
Modify  | 2.7766e-05 | 0.003676   | 0.0078065  |   2.9 |  0.14
Other   |            | 0.2776     |            |       | 10.79

Nlocal:        2776.45 ave        3930 max           0 min
Histogram: 8 4 4 0 4 12 8 0 26 38
Nghost:        3879.18 ave        5424 max         232 min
Histogram: 8 0 8 0 16 0 8 8 16 40
Neighs:        79213.3 ave      114467 max           0 min
Histogram: 8 4 4 0 8 8 8 8 20 36

Total # of neighbors = 8238185
Ave neighs/atom = 28.530412
Neighbor list builds = 0
Dangerous builds = 0
The dot product: 4.06811271051188e-07
Setting atom values ...
  1 settings made for x
  1 settings made for y
  1 settings made for z
Setting up cg style minimization ...
  Unit style    : metal
  Current step  : 3184
Per MPI rank memory allocation (min/avg/max) = 5.441 | 5.816 | 6.074 Mbytes
Step PotEng KinEng TotEng v_fx v_fy v_fz 
    3184   -1152448.9            0   -1152448.9 -0.028176676  0.071991536   0.10792969 
    3381   -1152448.9            0   -1152448.9 2.3777388e-05 -3.2434666e-05 3.4542904e-05 
Loop time of 2.27262 on 104 procs for 197 steps with 288751 atoms

99.9% CPU use with 104 MPI tasks x 1 OpenMP threads

Minimization stats:
  Stopping criterion = energy tolerance
  Energy initial, next-to-last, final = 
     -1152448.86932932  -1152448.87815631  -1152448.87815631
  Force two-norm initial, final = 0.46592856 0.00020166557
  Force max component initial, final = 0.35338672 4.5610703e-05
  Final line search alpha, max atom move = 1.0000000 4.5610703e-05
  Iterations, force evaluations = 197 394

MPI task timing breakdown:
Section |  min time  |  avg time  |  max time  |%varavg| %total
---------------------------------------------------------------
Pair    | 0.59642    | 1.6486     | 2.1396     |  34.6 | 72.54
Neigh   | 0          | 0          | 0          |   0.0 |  0.00
Comm    | 0.038717   | 0.37032    | 1.1229     |  51.3 | 16.30
Output  | 0          | 0          | 0          |   0.0 |  0.00
Modify  | 2.4626e-05 | 0.0032476  | 0.0069112  |   2.7 |  0.14
Other   |            | 0.2504     |            |       | 11.02

Nlocal:        2776.45 ave        3943 max           0 min
Histogram: 8 4 4 0 4 12 8 2 26 36
Nghost:        3879.11 ave        5424 max         232 min
Histogram: 8 0 8 0 16 0 8 8 16 40
Neighs:        79213.3 ave      114886 max           0 min
Histogram: 8 4 4 0 10 6 8 8 22 34

Total # of neighbors = 8238183
Ave neighs/atom = 28.530405
Neighbor list builds = 0
Dangerous builds = 0
The dot product: 2.61695419507168e-08
Setting atom values ...
  1 settings made for x
  1 settings made for y
  1 settings made for z
Setting up cg style minimization ...
  Unit style    : metal
  Current step  : 3381
Per MPI rank memory allocation (min/avg/max) = 5.441 | 5.816 | 6.074 Mbytes
Step PotEng KinEng TotEng v_fx v_fy v_fz 
    3381   -1152448.8            0   -1152448.8 -0.0091962086  0.030297224  0.048062149 
    3600   -1152448.8            0   -1152448.8 5.0390619e-06 -1.3973172e-05 -1.7253142e-05 
Loop time of 2.54691 on 104 procs for 219 steps with 288751 atoms

99.9% CPU use with 104 MPI tasks x 1 OpenMP threads

Minimization stats:
  Stopping criterion = energy tolerance
  Energy initial, next-to-last, final = 
     -1152448.82082221  -1152448.82896875  -1152448.82896875
  Force two-norm initial, final = 0.46264332 0.00011367444
  Force max component initial, final = 0.35968643 3.0865739e-05
  Final line search alpha, max atom move = 1.0000000 3.0865739e-05
  Iterations, force evaluations = 219 438

MPI task timing breakdown:
Section |  min time  |  avg time  |  max time  |%varavg| %total
---------------------------------------------------------------
Pair    | 0.67615    | 1.8487     | 2.385      |  36.4 | 72.59
Neigh   | 0          | 0          | 0          |   0.0 |  0.00
Comm    | 0.041422   | 0.41514    | 1.2729     |  54.6 | 16.30
Output  | 0          | 0          | 0          |   0.0 |  0.00
Modify  | 2.7106e-05 | 0.0036223  | 0.0077465  |   2.8 |  0.14
Other   |            | 0.2794     |            |       | 10.97

Nlocal:        2776.45 ave        3943 max           0 min
Histogram: 8 4 4 0 4 12 8 2 26 36
Nghost:        3879.11 ave        5424 max         232 min
Histogram: 8 0 8 0 16 0 8 8 16 40
Neighs:        79213.2 ave      114886 max           0 min
Histogram: 8 4 4 0 10 6 8 8 22 34

Total # of neighbors = 8238178
Ave neighs/atom = 28.530388
Neighbor list builds = 0
Dangerous builds = 0
The dot product: -2.1863244523911e-07
Setting atom values ...
  1 settings made for x
  1 settings made for y
  1 settings made for z
Setting up cg style minimization ...
  Unit style    : metal
  Current step  : 3600
Per MPI rank memory allocation (min/avg/max) = 5.441 | 5.816 | 6.074 Mbytes
Step PotEng KinEng TotEng v_fx v_fy v_fz 
    3600   -1152448.8            0   -1152448.8 -0.004040719  0.015063067  0.025146217 
    3814   -1152448.8            0   -1152448.8 8.0353681e-07 1.0435506e-06 8.0815555e-06 
Loop time of 2.47786 on 104 procs for 214 steps with 288751 atoms

99.9% CPU use with 104 MPI tasks x 1 OpenMP threads

Minimization stats:
  Stopping criterion = energy tolerance
  Energy initial, next-to-last, final = 
     -1152448.76187034  -1152448.77066765  -1152448.77066765
  Force two-norm initial, final = 0.47770656 0.00013911194
  Force max component initial, final = 0.36784088 4.0402242e-05
  Final line search alpha, max atom move = 1.0000000 4.0402242e-05
  Iterations, force evaluations = 214 428

MPI task timing breakdown:
Section |  min time  |  avg time  |  max time  |%varavg| %total
---------------------------------------------------------------
Pair    | 0.65327    | 1.7956     | 2.3304     |  36.1 | 72.47
Neigh   | 0          | 0          | 0          |   0.0 |  0.00
Comm    | 0.041243   | 0.40352    | 1.2304     |  53.8 | 16.28
Output  | 0          | 0          | 0          |   0.0 |  0.00
Modify  | 2.6568e-05 | 0.003523   | 0.0075481  |   2.8 |  0.14
Other   |            | 0.2752     |            |       | 11.11

Nlocal:        2776.45 ave        3938 max           0 min
Histogram: 8 4 4 0 4 12 8 2 26 36
Nghost:        3879.14 ave        5424 max         232 min
Histogram: 8 0 8 0 16 0 8 8 16 40
Neighs:        79213.2 ave      114731 max           0 min
Histogram: 8 4 4 0 9 7 8 8 22 34

Total # of neighbors = 8238176
Ave neighs/atom = 28.530381
Neighbor list builds = 0
Dangerous builds = 0
The dot product: 1.25882944373151e-08
Setting atom values ...
  1 settings made for x
  1 settings made for y
  1 settings made for z
Setting up cg style minimization ...
  Unit style    : metal
  Current step  : 3814
Per MPI rank memory allocation (min/avg/max) = 5.441 | 5.816 | 6.074 Mbytes
Step PotEng KinEng TotEng v_fx v_fy v_fz 
    3814   -1152448.7            0   -1152448.7 -0.0031371826  0.011163157  0.017583986 
    4000   -1152448.7            0   -1152448.7 6.3751708e-06 -6.2093746e-06 1.7040336e-05 
    4037   -1152448.7            0   -1152448.7 2.8442314e-07 5.5289522e-08 1.8246858e-06 
Loop time of 2.58534 on 104 procs for 223 steps with 288751 atoms

99.9% CPU use with 104 MPI tasks x 1 OpenMP threads

Minimization stats:
  Stopping criterion = energy tolerance
  Energy initial, next-to-last, final = 
     -1152448.69363365  -1152448.70280563  -1152448.70280563
  Force two-norm initial, final = 0.48909141 0.00010599214
  Force max component initial, final = 0.37716069 3.4593451e-05
  Final line search alpha, max atom move = 1.0000000 3.4593451e-05
  Iterations, force evaluations = 223 446

MPI task timing breakdown:
Section |  min time  |  avg time  |  max time  |%varavg| %total
---------------------------------------------------------------
Pair    | 0.68657    | 1.8822     | 2.4154     |  36.8 | 72.80
Neigh   | 0          | 0          | 0          |   0.0 |  0.00
Comm    | 0.044991   | 0.42327    | 1.3028     |  55.4 | 16.37
Output  | 0.00015454 | 0.00016135 | 0.00032607 |   0.0 |  0.01
Modify  | 2.7645e-05 | 0.0036832  | 0.007839   |   2.9 |  0.14
Other   |            | 0.276      |            |       | 10.67

Nlocal:        2776.45 ave        3930 max           0 min
Histogram: 8 4 4 0 4 12 8 0 26 38
Nghost:        3879.11 ave        5424 max         232 min
Histogram: 8 0 8 0 16 0 8 8 16 40
Neighs:        79213.1 ave      114480 max           0 min
Histogram: 8 4 4 0 8 8 8 8 20 36

Total # of neighbors = 8238167
Ave neighs/atom = 28.530350
Neighbor list builds = 0
Dangerous builds = 0
The dot product: -1.15484170631062e-09
Setting atom values ...
  1 settings made for x
  1 settings made for y
  1 settings made for z
Setting up cg style minimization ...
  Unit style    : metal
  Current step  : 4037
Per MPI rank memory allocation (min/avg/max) = 5.441 | 5.816 | 6.074 Mbytes
Step PotEng KinEng TotEng v_fx v_fy v_fz 
    4037   -1152448.6            0   -1152448.6 -0.0036193312  0.011868168  0.017204498 
    4242   -1152448.6            0   -1152448.6 -2.02343e-06 3.3901465e-06 -8.4095467e-07 
Loop time of 2.35714 on 104 procs for 205 steps with 288751 atoms

99.9% CPU use with 104 MPI tasks x 1 OpenMP threads

Minimization stats:
  Stopping criterion = energy tolerance
  Energy initial, next-to-last, final = 
     -1152448.61601879   -1152448.6252758   -1152448.6252758
  Force two-norm initial, final = 0.49652062 0.00016829344
  Force max component initial, final = 0.38687011 5.8432399e-05
  Final line search alpha, max atom move = 1.0000000 5.8432399e-05
  Iterations, force evaluations = 205 410

MPI task timing breakdown:
Section |  min time  |  avg time  |  max time  |%varavg| %total
---------------------------------------------------------------
Pair    | 0.62406    | 1.7229     | 2.2197     |  35.4 | 73.09
Neigh   | 0          | 0          | 0          |   0.0 |  0.00
Comm    | 0.04584    | 0.38337    | 1.1722     |  53.2 | 16.26
Output  | 0          | 0          | 0          |   0.0 |  0.00
Modify  | 2.5615e-05 | 0.0033806  | 0.0071813  |   2.7 |  0.14
Other   |            | 0.2475     |            |       | 10.50

Nlocal:        2776.45 ave        3930 max           0 min
Histogram: 8 4 4 0 4 12 8 0 26 38
Nghost:        3879.09 ave        5424 max         232 min
Histogram: 8 0 8 0 16 0 8 8 16 40
Neighs:        79213.1 ave      114478 max           0 min
Histogram: 8 4 4 0 8 8 8 8 20 36

Total # of neighbors = 8238163
Ave neighs/atom = 28.530336
Neighbor list builds = 0
Dangerous builds = 0
The dot product: -2.86054890835712e-09
Setting atom values ...
  1 settings made for x
  1 settings made for y
  1 settings made for z
Setting up cg style minimization ...
  Unit style    : metal
  Current step  : 4242
Per MPI rank memory allocation (min/avg/max) = 5.441 | 5.816 | 6.074 Mbytes
Step PotEng KinEng TotEng v_fx v_fy v_fz 
    4242   -1152448.5            0   -1152448.5 -0.0047999439  0.015057538  0.020936729 
    4453   -1152448.5            0   -1152448.5 1.6622756e-06 -4.8169128e-06 -5.9533226e-06 
Loop time of 2.43689 on 104 procs for 211 steps with 288751 atoms

99.9% CPU use with 104 MPI tasks x 1 OpenMP threads

Minimization stats:
  Stopping criterion = energy tolerance
  Energy initial, next-to-last, final = 
     -1152448.52909186  -1152448.53825478  -1152448.53825478
  Force two-norm initial, final = 0.50279036 0.00014782808
  Force max component initial, final = 0.39694408 5.7824687e-05
  Final line search alpha, max atom move = 1.0000000 5.7824687e-05
  Iterations, force evaluations = 211 422

MPI task timing breakdown:
Section |  min time  |  avg time  |  max time  |%varavg| %total
---------------------------------------------------------------
Pair    | 0.64839    | 1.7731     | 2.2879     |  35.6 | 72.76
Neigh   | 0          | 0          | 0          |   0.0 |  0.00
Comm    | 0.037731   | 0.39496    | 1.2034     |  53.5 | 16.21
Output  | 0          | 0          | 0          |   0.0 |  0.00
Modify  | 2.6349e-05 | 0.0034835  | 0.0074529  |   2.8 |  0.14
Other   |            | 0.2653     |            |       | 10.89

Nlocal:        2776.45 ave        3930 max           0 min
Histogram: 8 4 4 0 4 12 8 0 27 37
Nghost:        3879.09 ave        5424 max         232 min
Histogram: 8 0 8 0 16 0 8 8 16 40
Neighs:        79213.1 ave      114477 max           0 min
Histogram: 8 4 4 0 8 8 8 8 20 36

Total # of neighbors = 8238161
Ave neighs/atom = 28.530329
Neighbor list builds = 0
Dangerous builds = 0
The dot product: 1.24905262242124e-08
Setting atom values ...
  1 settings made for x
  1 settings made for y
  1 settings made for z
Setting up cg style minimization ...
  Unit style    : metal
  Current step  : 4453
Per MPI rank memory allocation (min/avg/max) = 5.441 | 5.816 | 6.074 Mbytes
Step PotEng KinEng TotEng v_fx v_fy v_fz 
    4453   -1152448.4            0   -1152448.4 -0.0067571182  0.020766172  0.028464024 
    4659   -1152448.4            0   -1152448.4 -2.0829867e-06 -1.9941929e-07 -1.3025367e-05 
Loop time of 2.38702 on 104 procs for 206 steps with 288751 atoms

99.9% CPU use with 104 MPI tasks x 1 OpenMP threads

Minimization stats:
  Stopping criterion = energy tolerance
  Energy initial, next-to-last, final = 
     -1152448.43307939     -1152448.44212     -1152448.44212
  Force two-norm initial, final = 0.51440888 0.00016711344
  Force max component initial, final = 0.41132002 6.8199860e-05
  Final line search alpha, max atom move = 1.0000000 6.8199860e-05
  Iterations, force evaluations = 206 412

MPI task timing breakdown:
Section |  min time  |  avg time  |  max time  |%varavg| %total
---------------------------------------------------------------
Pair    | 0.63756    | 1.7297     | 2.2288     |  35.2 | 72.46
Neigh   | 0          | 0          | 0          |   0.0 |  0.00
Comm    | 0.042649   | 0.38789    | 1.1864     |  52.5 | 16.25
Output  | 0          | 0          | 0          |   0.0 |  0.00
Modify  | 2.5353e-05 | 0.0033995  | 0.0072358  |   2.7 |  0.14
Other   |            | 0.266      |            |       | 11.15

Nlocal:        2776.45 ave        3930 max           0 min
Histogram: 8 4 4 0 4 12 8 0 27 37
Nghost:        3879.11 ave        5424 max         232 min
Histogram: 8 0 8 0 16 0 8 8 16 40
Neighs:        79213.1 ave      114478 max           0 min
Histogram: 8 4 4 0 8 8 8 8 20 36

Total # of neighbors = 8238163
Ave neighs/atom = 28.530336
Neighbor list builds = 0
Dangerous builds = 0
The dot product: 1.96321793274165e-08
Setting atom values ...
  1 settings made for x
  1 settings made for y
  1 settings made for z
Setting up cg style minimization ...
  Unit style    : metal
  Current step  : 4659
Per MPI rank memory allocation (min/avg/max) = 5.441 | 5.816 | 6.074 Mbytes
Step PotEng KinEng TotEng v_fx v_fy v_fz 
    4659   -1152448.3            0   -1152448.3 -0.011356921  0.032693243  0.040799522 
    4864   -1152448.3            0   -1152448.3 -7.1899546e-06 5.098154e-06 -2.6149275e-05 
Loop time of 2.38451 on 104 procs for 205 steps with 288751 atoms

99.9% CPU use with 104 MPI tasks x 1 OpenMP threads

Minimization stats:
  Stopping criterion = energy tolerance
  Energy initial, next-to-last, final = 
     -1152448.32833488  -1152448.33740293  -1152448.33740293
  Force two-norm initial, final = 0.53677478 0.00011959425
  Force max component initial, final = 0.43353659 2.6149275e-05
  Final line search alpha, max atom move = 1.0000000 2.6149275e-05
  Iterations, force evaluations = 205 410

MPI task timing breakdown:
Section |  min time  |  avg time  |  max time  |%varavg| %total
---------------------------------------------------------------
Pair    | 0.62553    | 1.7272     | 2.2265     |  35.3 | 72.44
Neigh   | 0          | 0          | 0          |   0.0 |  0.00
Comm    | 0.047408   | 0.38661    | 1.1694     |  52.9 | 16.21
Output  | 0          | 0          | 0          |   0.0 |  0.00
Modify  | 2.5229e-05 | 0.0033797  | 0.0072449  |   2.7 |  0.14
Other   |            | 0.2673     |            |       | 11.21

Nlocal:        2776.45 ave        3930 max           0 min
Histogram: 8 4 4 0 4 12 8 0 28 36
Nghost:        3879.00 ave        5424 max         232 min
Histogram: 8 0 8 0 16 0 8 8 16 40
Neighs:        79213.1 ave      114481 max           0 min
Histogram: 8 4 4 0 8 8 8 8 20 36

Total # of neighbors = 8238164
Ave neighs/atom = 28.530339
Neighbor list builds = 0
Dangerous builds = 0
The dot product: 5.03841615636314e-08
Setting atom values ...
  1 settings made for x
  1 settings made for y
  1 settings made for z
Setting up cg style minimization ...
  Unit style    : metal
  Current step  : 4864
Per MPI rank memory allocation (min/avg/max) = 5.441 | 5.816 | 6.074 Mbytes
Step PotEng KinEng TotEng v_fx v_fy v_fz 
    4864   -1152448.2            0   -1152448.2 -0.025180918  0.064266251  0.061401411 
    5000   -1152448.2            0   -1152448.2 1.5915451e-05 -1.7400543e-05 3.8340374e-05 
    5012   -1152448.2            0   -1152448.2 1.3825162e-06 -6.9161154e-06 -1.4627468e-05 
Loop time of 1.72647 on 104 procs for 148 steps with 288751 atoms

99.9% CPU use with 104 MPI tasks x 1 OpenMP threads

Minimization stats:
  Stopping criterion = energy tolerance
  Energy initial, next-to-last, final = 
     -1152448.21555352  -1152448.22932098  -1152448.22932098
  Force two-norm initial, final = 0.57239837 0.00014381478
  Force max component initial, final = 0.46215215 1.8943427e-05
  Final line search alpha, max atom move = 1.0000000 1.8943427e-05
  Iterations, force evaluations = 148 296

MPI task timing breakdown:
Section |  min time  |  avg time  |  max time  |%varavg| %total
---------------------------------------------------------------
Pair    | 0.46329    | 1.2454     | 1.612      |  29.7 | 72.14
Neigh   | 1.0371e-05 | 0.0029601  | 0.0042404  |   2.2 |  0.17
Comm    | 0.032826   | 0.27889    | 0.84508    |  44.5 | 16.15
Output  | 0.00016996 | 0.00017332 | 0.00033111 |   0.0 |  0.01
Modify  | 1.8552e-05 | 0.0024505  | 0.0052006  |   2.3 |  0.14
Other   |            | 0.1966     |            |       | 11.39

Nlocal:        2776.45 ave        3930 max           0 min
Histogram: 8 4 4 0 4 12 8 0 28 36
Nghost:        3878.86 ave        5424 max         232 min
Histogram: 8 0 8 0 16 0 8 8 16 40
Neighs:        79213.2 ave      114483 max           0 min
Histogram: 8 4 4 0 8 8 8 8 20 36

Total # of neighbors = 8238168
Ave neighs/atom = 28.530353
Neighbor list builds = 1
Dangerous builds = 0
The dot product: -8.32640532120685e-07
Setting atom values ...
  1 settings made for x
  1 settings made for y
  1 settings made for z
Setting up cg style minimization ...
  Unit style    : metal
  Current step  : 5012
Per MPI rank memory allocation (min/avg/max) = 5.441 | 5.816 | 6.074 Mbytes
Step PotEng KinEng TotEng v_fx v_fy v_fz 
    5012   -1152448.1            0   -1152448.1  -0.16022376   0.43157575   0.13505189 
    5303   -1152448.3            0   -1152448.3 2.0347329e-06 -5.9114145e-06 -2.7986663e-06 
Loop time of 3.37035 on 104 procs for 291 steps with 288751 atoms

99.9% CPU use with 104 MPI tasks x 1 OpenMP threads

Minimization stats:
  Stopping criterion = energy tolerance
  Energy initial, next-to-last, final = 
     -1152448.11041799  -1152448.30524401  -1152448.30524401
  Force two-norm initial, final = 0.75148957 3.5929535e-05
  Force max component initial, final = 0.44209028 1.2993946e-05
  Final line search alpha, max atom move = 1.0000000 1.2993946e-05
  Iterations, force evaluations = 291 580

MPI task timing breakdown:
Section |  min time  |  avg time  |  max time  |%varavg| %total
---------------------------------------------------------------
Pair    | 0.89946    | 2.4534     | 3.1446     |  41.7 | 72.79
Neigh   | 2.0339e-05 | 0.0059313  | 0.0085311  |   3.2 |  0.18
Comm    | 0.054982   | 0.55117    | 1.6918     |  63.1 | 16.35
Output  | 0          | 0          | 0          |   0.0 |  0.00
Modify  | 3.6402e-05 | 0.0047814  | 0.010138   |   3.3 |  0.14
Other   |            | 0.3551     |            |       | 10.54

Nlocal:        2776.45 ave        3930 max           0 min
Histogram: 8 4 4 0 4 12 8 0 27 37
Nghost:        3878.93 ave        5424 max         232 min
Histogram: 8 0 8 0 16 0 8 8 16 40
Neighs:        79213.2 ave      114482 max           0 min
Histogram: 8 4 4 0 8 8 8 8 20 36

Total # of neighbors = 8238171
Ave neighs/atom = 28.530364
Neighbor list builds = 2
Dangerous builds = 0
The dot product: -2.45861356738232e-06
Setting atom values ...
  1 settings made for x
  1 settings made for y
  1 settings made for z
Setting up cg style minimization ...
  Unit style    : metal
  Current step  : 5303
Per MPI rank memory allocation (min/avg/max) = 5.441 | 5.816 | 6.074 Mbytes
Step PotEng KinEng TotEng v_fx v_fy v_fz 
    5303   -1152448.2            0   -1152448.2   0.01213144   0.84007209  0.097228725 
    5574   -1152448.7            0   -1152448.7 -1.5654354e-06 -2.3565655e-05 -9.5912138e-06 
Loop time of 3.22842 on 104 procs for 271 steps with 288751 atoms

99.9% CPU use with 104 MPI tasks x 1 OpenMP threads

Minimization stats:
  Stopping criterion = energy tolerance
  Energy initial, next-to-last, final = 
     -1152448.24341996  -1152448.73496918  -1152448.73496918
  Force two-norm initial, final = 0.91381051 0.00017855662
  Force max component initial, final = 0.84007209 5.6092086e-05
  Final line search alpha, max atom move = 1.0000000 5.6092086e-05
  Iterations, force evaluations = 271 541

MPI task timing breakdown:
Section |  min time  |  avg time  |  max time  |%varavg| %total
---------------------------------------------------------------
Pair    | 0.86481    | 2.2809     | 2.955      |  39.8 | 70.65
Neigh   | 7.036e-05  | 0.020618   | 0.029881   |   5.9 |  0.64
Comm    | 0.055019   | 0.51992    | 1.5451     |  59.0 | 16.10
Output  | 0          | 0          | 0          |   0.0 |  0.00
Modify  | 3.3613e-05 | 0.0044666  | 0.0094894  |   3.2 |  0.14
Other   |            | 0.4025     |            |       | 12.47

Nlocal:        2776.45 ave        3950 max           0 min
Histogram: 8 4 4 0 4 12 8 2 26 36
Nghost:        3879.14 ave        5424 max         232 min
Histogram: 8 0 8 0 16 0 8 8 16 40
Neighs:        79213.4 ave      115165 max           0 min
Histogram: 8 4 4 0 10 6 8 8 24 32

Total # of neighbors = 8238195
Ave neighs/atom = 28.530447
Neighbor list builds = 7
Dangerous builds = 0
The dot product: -5.70800831136829e-06
Setting atom values ...
  1 settings made for x
  1 settings made for y
  1 settings made for z
Setting up cg style minimization ...
  Unit style    : metal
  Current step  : 5574
Per MPI rank memory allocation (min/avg/max) = 5.441 | 5.816 | 6.074 Mbytes
Step PotEng KinEng TotEng v_fx v_fy v_fz 
    5574   -1152448.7            0   -1152448.7  -0.14467951 -0.045429621  -0.17458906 
    5795   -1152448.8            0   -1152448.8 -2.2769144e-06 -6.0296768e-06 -2.4414353e-06 
Loop time of 2.57147 on 104 procs for 221 steps with 288751 atoms

99.9% CPU use with 104 MPI tasks x 1 OpenMP threads

Minimization stats:
  Stopping criterion = energy tolerance
  Energy initial, next-to-last, final = 
     -1152448.74645428  -1152448.75606211  -1152448.75606211
  Force two-norm initial, final = 0.35283589 0.00018018323
  Force max component initial, final = 0.17458906 1.7980276e-05
  Final line search alpha, max atom move = 1.0000000 1.7980276e-05
  Iterations, force evaluations = 221 442

MPI task timing breakdown:
Section |  min time  |  avg time  |  max time  |%varavg| %total
---------------------------------------------------------------
Pair    | 0.67946    | 1.8653     | 2.4148     |  36.7 | 72.54
Neigh   | 0          | 0          | 0          |   0.0 |  0.00
Comm    | 0.039524   | 0.42012    | 1.2923     |  54.7 | 16.34
Output  | 0          | 0          | 0          |   0.0 |  0.00
Modify  | 2.7042e-05 | 0.0036514  | 0.0077791  |   2.9 |  0.14
Other   |            | 0.2824     |            |       | 10.98

Nlocal:        2776.45 ave        3956 max           0 min
Histogram: 8 4 4 0 4 12 8 0 30 34
Nghost:        3879.05 ave        5424 max         232 min
Histogram: 8 0 8 0 16 0 8 8 16 40
Neighs:        79213.4 ave      115321 max           0 min
Histogram: 8 4 4 0 10 6 8 8 24 32

Total # of neighbors = 8238190
Ave neighs/atom = 28.530429
Neighbor list builds = 0
Dangerous builds = 0
The dot product: 1.1946954507213e-07
Setting atom values ...
  1 settings made for x
  1 settings made for y
  1 settings made for z
Setting up cg style minimization ...
  Unit style    : metal
  Current step  : 5795
Per MPI rank memory allocation (min/avg/max) = 5.441 | 5.816 | 6.074 Mbytes
Step PotEng KinEng TotEng v_fx v_fy v_fz 
    5795   -1152448.8            0   -1152448.8  0.027917596 -0.015922359  0.037931161 
    6000   -1152448.8            0   -1152448.8 2.118742e-05 3.0390076e-05 2.6156415e-05 
    6003   -1152448.8            0   -1152448.8 8.391519e-06 7.0835213e-06 1.0666292e-05 
Loop time of 2.43926 on 104 procs for 208 steps with 288751 atoms

99.9% CPU use with 104 MPI tasks x 1 OpenMP threads

Minimization stats:
  Stopping criterion = energy tolerance
  Energy initial, next-to-last, final = 
     -1152448.76173599  -1152448.76651174  -1152448.76651174
  Force two-norm initial, final = 0.27446302 0.0001192791
  Force max component initial, final = 0.12724265 3.0799382e-05
  Final line search alpha, max atom move = 1.0000000 3.0799382e-05
  Iterations, force evaluations = 208 416

MPI task timing breakdown:
Section |  min time  |  avg time  |  max time  |%varavg| %total
---------------------------------------------------------------
Pair    | 0.64286    | 1.7525     | 2.2741     |  35.5 | 71.85
Neigh   | 0          | 0          | 0          |   0.0 |  0.00
Comm    | 0.042017   | 0.39473    | 1.2068     |  53.0 | 16.18
Output  | 0.00016233 | 0.00016917 | 0.00034158 |   0.0 |  0.01
Modify  | 2.5928e-05 | 0.0034381  | 0.0074206  |   2.8 |  0.14
Other   |            | 0.2884     |            |       | 11.82

Nlocal:        2776.45 ave        3957 max           0 min
Histogram: 8 4 4 0 4 12 8 2 28 34
Nghost:        3879.09 ave        5425 max         232 min
Histogram: 8 0 8 0 16 0 8 8 16 40
Neighs:        79213.4 ave      115346 max           0 min
Histogram: 8 4 4 0 10 6 8 8 24 32

Total # of neighbors = 8238196
Ave neighs/atom = 28.530450
Neighbor list builds = 0
Dangerous builds = 0
The dot product: 9.25043224895662e-08
Setting atom values ...
  1 settings made for x
  1 settings made for y
  1 settings made for z
Setting up cg style minimization ...
  Unit style    : metal
  Current step  : 6003
Per MPI rank memory allocation (min/avg/max) = 5.441 | 5.816 | 6.074 Mbytes
Step PotEng KinEng TotEng v_fx v_fy v_fz 
    6003   -1152448.8            0   -1152448.8  0.020311426 -0.011068874  0.026920209 
    6222   -1152448.8            0   -1152448.8 -2.3005384e-06 -7.1495568e-06 -2.611358e-06 
Loop time of 2.55272 on 104 procs for 219 steps with 288751 atoms

99.9% CPU use with 104 MPI tasks x 1 OpenMP threads

Minimization stats:
  Stopping criterion = energy tolerance
  Energy initial, next-to-last, final = 
     -1152448.76909723  -1152448.77367863  -1152448.77367863
  Force two-norm initial, final = 0.27450187 9.0597973e-05
  Force max component initial, final = 0.12650819 2.4848768e-05
  Final line search alpha, max atom move = 1.0000000 2.4848768e-05
  Iterations, force evaluations = 219 438

MPI task timing breakdown:
Section |  min time  |  avg time  |  max time  |%varavg| %total
---------------------------------------------------------------
Pair    | 0.67402    | 1.8459     | 2.4026     |  36.4 | 72.31
Neigh   | 0          | 0          | 0          |   0.0 |  0.00
Comm    | 0.049869   | 0.41617    | 1.2469     |  54.2 | 16.30
Output  | 0          | 0          | 0          |   0.0 |  0.00
Modify  | 2.6986e-05 | 0.0036189  | 0.0077132  |   2.8 |  0.14
Other   |            | 0.287      |            |       | 11.24

Nlocal:        2776.45 ave        3957 max           0 min
Histogram: 8 4 4 0 4 12 8 2 28 34
Nghost:        3879.01 ave        5424 max         232 min
Histogram: 8 0 8 0 16 0 8 8 16 40
Neighs:        79213.4 ave      115349 max           0 min
Histogram: 8 4 4 0 10 6 8 8 24 32

Total # of neighbors = 8238193
Ave neighs/atom = 28.530440
Neighbor list builds = 0
Dangerous builds = 0
The dot product: 4.24147421316197e-09
Setting atom values ...
  1 settings made for x
  1 settings made for y
  1 settings made for z
Setting up cg style minimization ...
  Unit style    : metal
  Current step  : 6222
Per MPI rank memory allocation (min/avg/max) = 5.441 | 5.816 | 6.074 Mbytes
Step PotEng KinEng TotEng v_fx v_fy v_fz 
    6222   -1152448.8            0   -1152448.8  0.021432229 -0.008717452  0.027821474 
    6405   -1152448.8            0   -1152448.8 4.1018268e-06 1.0680223e-05 4.7624227e-06 
Loop time of 2.17053 on 104 procs for 183 steps with 288751 atoms

99.9% CPU use with 104 MPI tasks x 1 OpenMP threads

Minimization stats:
  Stopping criterion = energy tolerance
  Energy initial, next-to-last, final = 
     -1152448.77330383   -1152448.7779828   -1152448.7779828
  Force two-norm initial, final = 0.27742788 0.00021745134
  Force max component initial, final = 0.12662552 2.2070809e-05
  Final line search alpha, max atom move = 1.0000000 2.2070809e-05
  Iterations, force evaluations = 183 366

MPI task timing breakdown:
Section |  min time  |  avg time  |  max time  |%varavg| %total
---------------------------------------------------------------
Pair    | 0.56376    | 1.5408     | 2.0008     |  33.4 | 70.99
Neigh   | 0          | 0          | 0          |   0.0 |  0.00
Comm    | 0.039391   | 0.34826    | 1.0479     |  49.3 | 16.05
Output  | 0          | 0          | 0          |   0.0 |  0.00
Modify  | 2.2653e-05 | 0.0030167  | 0.0064089  |   2.6 |  0.14
Other   |            | 0.2785     |            |       | 12.83

Nlocal:        2776.45 ave        3958 max           0 min
Histogram: 8 4 4 0 4 12 8 2 28 34
Nghost:        3879.01 ave        5424 max         232 min
Histogram: 8 0 8 0 16 0 8 8 16 40
Neighs:        79213.4 ave      115380 max           0 min
Histogram: 8 4 4 0 10 6 8 8 24 32

Total # of neighbors = 8238189
Ave neighs/atom = 28.530426
Neighbor list builds = 0
Dangerous builds = 0
The dot product: 7.32620696553911e-09
Setting atom values ...
  1 settings made for x
  1 settings made for y
  1 settings made for z
Setting up cg style minimization ...
  Unit style    : metal
  Current step  : 6405
Per MPI rank memory allocation (min/avg/max) = 5.441 | 5.816 | 6.074 Mbytes
Step PotEng KinEng TotEng v_fx v_fy v_fz 
    6405   -1152448.8            0   -1152448.8  0.014410275 -0.019885379  0.018992753 
    6656   -1152448.8            0   -1152448.8 -1.6903758e-06 -2.2821239e-06 -2.04277e-06 
Loop time of 2.93625 on 104 procs for 251 steps with 288751 atoms

99.9% CPU use with 104 MPI tasks x 1 OpenMP threads

Minimization stats:
  Stopping criterion = energy tolerance
  Energy initial, next-to-last, final = 
      -1152448.7741924   -1152448.7788114   -1152448.7788114
  Force two-norm initial, final = 0.2783954 1.5596511e-05
  Force max component initial, final = 0.12639525 2.2821239e-06
  Final line search alpha, max atom move = 1.0000000 2.2821239e-06
  Iterations, force evaluations = 251 502

MPI task timing breakdown:
Section |  min time  |  avg time  |  max time  |%varavg| %total
---------------------------------------------------------------
Pair    | 0.76967    | 2.1153     | 2.7503     |  38.9 | 72.04
Neigh   | 0          | 0          | 0          |   0.0 |  0.00
Comm    | 0.049303   | 0.47494    | 1.4373     |  58.1 | 16.17
Output  | 0          | 0          | 0          |   0.0 |  0.00
Modify  | 3.099e-05  | 0.0041487  | 0.0088847  |   3.0 |  0.14
Other   |            | 0.3419     |            |       | 11.64

Nlocal:        2776.45 ave        3958 max           0 min
Histogram: 8 4 4 0 4 12 8 2 28 34
Nghost:        3879.05 ave        5424 max         232 min
Histogram: 8 0 8 0 16 0 8 8 16 40
Neighs:        79213.3 ave      115381 max           0 min
Histogram: 8 4 4 0 10 6 8 8 24 32

Total # of neighbors = 8238188
Ave neighs/atom = 28.530422
Neighbor list builds = 0
Dangerous builds = 0
The dot product: -3.21251950588134e-09
Setting atom values ...
  1 settings made for x
  1 settings made for y
  1 settings made for z
Setting up cg style minimization ...
  Unit style    : metal
  Current step  : 6656
Per MPI rank memory allocation (min/avg/max) = 5.441 | 5.816 | 6.074 Mbytes
Step PotEng KinEng TotEng v_fx v_fy v_fz 
    6656   -1152448.8            0   -1152448.8  0.017609024 -0.011494516  0.022418792 
    6839   -1152448.8            0   -1152448.8 -4.662455e-05 -6.6523462e-05 -5.608152e-05 
Loop time of 2.1258 on 104 procs for 183 steps with 288751 atoms

99.9% CPU use with 104 MPI tasks x 1 OpenMP threads

Minimization stats:
  Stopping criterion = energy tolerance
  Energy initial, next-to-last, final = 
     -1152448.77081101  -1152448.77528943  -1152448.77528943
  Force two-norm initial, final = 0.28002398 0.00023233581
  Force max component initial, final = 0.12596858 6.6523462e-05
  Final line search alpha, max atom move = 1.0000000 6.6523462e-05
  Iterations, force evaluations = 183 366

MPI task timing breakdown:
Section |  min time  |  avg time  |  max time  |%varavg| %total
---------------------------------------------------------------
Pair    | 0.55885    | 1.5344     | 1.9956     |  33.3 | 72.18
Neigh   | 0          | 0          | 0          |   0.0 |  0.00
Comm    | 0.036305   | 0.34348    | 1.0404     |  49.3 | 16.16
Output  | 0          | 0          | 0          |   0.0 |  0.00
Modify  | 2.2651e-05 | 0.0030169  | 0.0064226  |   2.6 |  0.14
Other   |            | 0.2449     |            |       | 11.52

Nlocal:        2776.45 ave        3956 max           0 min
Histogram: 8 4 4 0 4 12 8 0 30 34
Nghost:        3879.06 ave        5424 max         232 min
Histogram: 8 0 8 0 16 0 8 8 16 40
Neighs:        79213.4 ave      115312 max           0 min
Histogram: 8 4 4 0 10 6 8 8 24 32

Total # of neighbors = 8238190
Ave neighs/atom = 28.530429
Neighbor list builds = 0
Dangerous builds = 0
The dot product: -1.4727712235034e-07
Setting atom values ...
  1 settings made for x
  1 settings made for y
  1 settings made for z
Setting up cg style minimization ...
  Unit style    : metal
  Current step  : 6839
Per MPI rank memory allocation (min/avg/max) = 5.441 | 5.816 | 6.074 Mbytes
Step PotEng KinEng TotEng v_fx v_fy v_fz 
    6839   -1152448.8            0   -1152448.8  0.018377152 -0.0062985561  0.022977674 
    7000   -1152448.8            0   -1152448.8 7.1725412e-05 0.00010656587 8.5787086e-05 
    7082   -1152448.8            0   -1152448.8 -4.2001715e-06 -5.7527868e-06 -5.0380875e-06 
Loop time of 2.8332 on 104 procs for 243 steps with 288751 atoms

99.9% CPU use with 104 MPI tasks x 1 OpenMP threads

Minimization stats:
  Stopping criterion = energy tolerance
  Energy initial, next-to-last, final = 
     -1152448.76372823  -1152448.76818341  -1152448.76818341
  Force two-norm initial, final = 0.28181076 2.5171795e-05
  Force max component initial, final = 0.12543759 5.7527868e-06
  Final line search alpha, max atom move = 1.0000000 5.7527868e-06
  Iterations, force evaluations = 243 486

MPI task timing breakdown:
Section |  min time  |  avg time  |  max time  |%varavg| %total
---------------------------------------------------------------
Pair    | 0.74276    | 2.0543     | 2.6597     |  38.5 | 72.51
Neigh   | 0          | 0          | 0          |   0.0 |  0.00
Comm    | 0.048149   | 0.46251    | 1.3975     |  57.3 | 16.32
Output  | 0.00015461 | 0.00016272 | 0.00032769 |   0.0 |  0.01
Modify  | 3.0158e-05 | 0.0040215  | 0.0085784  |   3.0 |  0.14
Other   |            | 0.3122     |            |       | 11.02

Nlocal:        2776.45 ave        3957 max           0 min
Histogram: 8 4 4 0 4 12 8 2 28 34
Nghost:        3879.12 ave        5424 max         232 min
Histogram: 8 0 8 0 16 0 8 8 16 40
Neighs:        79213.3 ave      115351 max           0 min
Histogram: 8 4 4 0 10 6 8 8 24 32

Total # of neighbors = 8238188
Ave neighs/atom = 28.530422
Neighbor list builds = 0
Dangerous builds = 0
The dot product: -1.80689454400999e-08
Setting atom values ...
  1 settings made for x
  1 settings made for y
  1 settings made for z
Setting up cg style minimization ...
  Unit style    : metal
  Current step  : 7082
Per MPI rank memory allocation (min/avg/max) = 5.441 | 5.816 | 6.074 Mbytes
Step PotEng KinEng TotEng v_fx v_fy v_fz 
    7082   -1152448.8            0   -1152448.8  0.015798804 -0.0070665699  0.019620009 
    7279   -1152448.8            0   -1152448.8 -2.464089e-05 -3.0685033e-05 -2.9471564e-05 
Loop time of 2.3032 on 104 procs for 197 steps with 288751 atoms

99.9% CPU use with 104 MPI tasks x 1 OpenMP threads

Minimization stats:
  Stopping criterion = energy tolerance
  Energy initial, next-to-last, final = 
     -1152448.75273953  -1152448.75722233  -1152448.75722233
  Force two-norm initial, final = 0.28235276 0.00017087767
  Force max component initial, final = 0.12475437 5.7613076e-05
  Final line search alpha, max atom move = 1.0000000 5.7613076e-05
  Iterations, force evaluations = 197 394

MPI task timing breakdown:
Section |  min time  |  avg time  |  max time  |%varavg| %total
---------------------------------------------------------------
Pair    | 0.6029     | 1.654      | 2.1615     |  34.6 | 71.81
Neigh   | 0          | 0          | 0          |   0.0 |  0.00
Comm    | 0.036663   | 0.37331    | 1.1285     |  51.1 | 16.21
Output  | 0          | 0          | 0          |   0.0 |  0.00
Modify  | 2.4666e-05 | 0.003252   | 0.0069009  |   2.7 |  0.14
Other   |            | 0.2726     |            |       | 11.84

Nlocal:        2776.45 ave        3957 max           0 min
Histogram: 8 4 4 0 4 12 8 2 28 34
Nghost:        3879.10 ave        5424 max         232 min
Histogram: 8 0 8 0 16 0 8 8 16 40
Neighs:        79213.3 ave      115343 max           0 min
Histogram: 8 4 4 0 10 6 8 8 24 32

Total # of neighbors = 8238187
Ave neighs/atom = 28.530419
Neighbor list builds = 0
Dangerous builds = 0
The dot product: -9.71686213880208e-08
Setting atom values ...
  1 settings made for x
  1 settings made for y
  1 settings made for z
Setting up cg style minimization ...
  Unit style    : metal
  Current step  : 7279
Per MPI rank memory allocation (min/avg/max) = 5.441 | 5.816 | 6.074 Mbytes
Step PotEng KinEng TotEng v_fx v_fy v_fz 
    7279   -1152448.7            0   -1152448.7 0.0088357707 -0.013530903  0.011112195 
    7484   -1152448.7            0   -1152448.7 5.7954353e-07  3.77982e-06 6.1486255e-07 
Loop time of 2.39374 on 104 procs for 205 steps with 288751 atoms

99.9% CPU use with 104 MPI tasks x 1 OpenMP threads

Minimization stats:
  Stopping criterion = energy tolerance
  Energy initial, next-to-last, final = 
     -1152448.73765243  -1152448.74206601  -1152448.74206601
  Force two-norm initial, final = 0.2825358 0.00012591572
  Force max component initial, final = 0.12898918 2.3179320e-05
  Final line search alpha, max atom move = 1.0000000 2.3179320e-05
  Iterations, force evaluations = 205 410

MPI task timing breakdown:
Section |  min time  |  avg time  |  max time  |%varavg| %total
---------------------------------------------------------------
Pair    | 0.63634    | 1.7353     | 2.2407     |  35.2 | 72.49
Neigh   | 0          | 0          | 0          |   0.0 |  0.00
Comm    | 0.040908   | 0.3902     | 1.1866     |  52.7 | 16.30
Output  | 0          | 0          | 0          |   0.0 |  0.00
Modify  | 2.4896e-05 | 0.0033892  | 0.0072978  |   2.8 |  0.14
Other   |            | 0.2648     |            |       | 11.06

Nlocal:        2776.45 ave        3956 max           0 min
Histogram: 8 4 4 0 4 12 8 0 30 34
Nghost:        3879.10 ave        5424 max         232 min
Histogram: 8 0 8 0 16 0 8 8 16 40
Neighs:        79213.4 ave      115321 max           0 min
Histogram: 8 4 4 0 10 6 8 8 24 32

Total # of neighbors = 8238190
Ave neighs/atom = 28.530429
Neighbor list builds = 0
Dangerous builds = 0
The dot product: -4.53182327708978e-09
Setting atom values ...
  1 settings made for x
  1 settings made for y
  1 settings made for z
Setting up cg style minimization ...
  Unit style    : metal
  Current step  : 7484
Per MPI rank memory allocation (min/avg/max) = 5.441 | 5.816 | 6.074 Mbytes
Step PotEng KinEng TotEng v_fx v_fy v_fz 
    7484   -1152448.7            0   -1152448.7 -0.0017326224  -0.02466772 -0.0015732913 
    7680   -1152448.7            0   -1152448.7 -1.5454569e-05 -2.2330108e-05 -1.8266498e-05 
Loop time of 2.27697 on 104 procs for 196 steps with 288751 atoms

99.9% CPU use with 104 MPI tasks x 1 OpenMP threads

Minimization stats:
  Stopping criterion = energy tolerance
  Energy initial, next-to-last, final = 
     -1152448.71865726  -1152448.72300603  -1152448.72300603
  Force two-norm initial, final = 0.28542138 0.00015613797
  Force max component initial, final = 0.13346319 2.7391043e-05
  Final line search alpha, max atom move = 1.0000000 2.7391043e-05
  Iterations, force evaluations = 196 392

MPI task timing breakdown:
Section |  min time  |  avg time  |  max time  |%varavg| %total
---------------------------------------------------------------
Pair    | 0.60831    | 1.648      | 2.139      |  34.4 | 72.38
Neigh   | 0          | 0          | 0          |   0.0 |  0.00
Comm    | 0.036705   | 0.368      | 1.1171     |  51.4 | 16.16
Output  | 0          | 0          | 0          |   0.0 |  0.00
Modify  | 2.3935e-05 | 0.0032284  | 0.006867   |   2.7 |  0.14
Other   |            | 0.2578     |            |       | 11.32

Nlocal:        2776.45 ave        3956 max           0 min
Histogram: 8 4 4 0 4 12 8 0 30 34
Nghost:        3879.10 ave        5424 max         232 min
Histogram: 8 0 8 0 16 0 8 8 16 40
Neighs:        79213.4 ave      115324 max           0 min
Histogram: 8 4 4 0 10 6 8 8 24 32

Total # of neighbors = 8238194
Ave neighs/atom = 28.530443
Neighbor list builds = 0
Dangerous builds = 0
The dot product: 4.0994767088777e-08
Setting atom values ...
  1 settings made for x
  1 settings made for y
  1 settings made for z
Setting up cg style minimization ...
  Unit style    : metal
  Current step  : 7680
Per MPI rank memory allocation (min/avg/max) = 5.441 | 5.816 | 6.074 Mbytes
Step PotEng KinEng TotEng v_fx v_fy v_fz 
    7680   -1152448.7            0   -1152448.7 -0.0039696597 -0.024824393 -0.0043907562 
    7975   -1152448.7            0   -1152448.7 8.8981088e-07 1.3314903e-06 1.0546533e-06 
Loop time of 3.4951 on 104 procs for 295 steps with 288751 atoms

99.9% CPU use with 104 MPI tasks x 1 OpenMP threads

Minimization stats:
  Stopping criterion = energy tolerance
  Energy initial, next-to-last, final = 
     -1152448.69568059  -1152448.70008662  -1152448.70008662
  Force two-norm initial, final = 0.28755643 1.0729023e-05
  Force max component initial, final = 0.13783849 2.8906002e-06
  Final line search alpha, max atom move = 1.0000000 2.8906002e-06
  Iterations, force evaluations = 295 590

MPI task timing breakdown:
Section |  min time  |  avg time  |  max time  |%varavg| %total
---------------------------------------------------------------
Pair    | 0.91842    | 2.4917     | 3.2405     |  42.1 | 71.29
Neigh   | 0          | 0          | 0          |   0.0 |  0.00
Comm    | 0.058665   | 0.56796    | 1.7171     |  62.3 | 16.25
Output  | 0          | 0          | 0          |   0.0 |  0.00
Modify  | 3.6804e-05 | 0.004868   | 0.010356   |   3.3 |  0.14
Other   |            | 0.4306     |            |       | 12.32

Nlocal:        2776.45 ave        3956 max           0 min
Histogram: 8 4 4 0 4 12 8 0 30 34
Nghost:        3879.11 ave        5426 max         232 min
Histogram: 8 0 8 0 16 0 8 8 16 40
Neighs:        79213.4 ave      115321 max           0 min
Histogram: 8 4 4 0 10 6 8 8 24 32

Total # of neighbors = 8238198
Ave neighs/atom = 28.530457
Neighbor list builds = 0
Dangerous builds = 0
The dot product: -1.99572616370701e-09
Setting atom values ...
  1 settings made for x
  1 settings made for y
  1 settings made for z
Setting up cg style minimization ...
  Unit style    : metal
  Current step  : 7975
Per MPI rank memory allocation (min/avg/max) = 5.441 | 5.816 | 6.074 Mbytes
Step PotEng KinEng TotEng v_fx v_fy v_fz 
    7975   -1152448.7            0   -1152448.7 -0.0055222912 -0.024815461 -0.0063642029 
    8000   -1152448.7            0   -1152448.7 0.00032467147 0.00067354355 0.00038368579 
    8228   -1152448.7            0   -1152448.7 2.5612036e-05 3.5885938e-05 3.0476399e-05 
Loop time of 2.95039 on 104 procs for 253 steps with 288751 atoms

99.9% CPU use with 104 MPI tasks x 1 OpenMP threads

Minimization stats:
  Stopping criterion = energy tolerance
  Energy initial, next-to-last, final = 
     -1152448.66823151  -1152448.67293688  -1152448.67293688
  Force two-norm initial, final = 0.29107851 0.00012703047
  Force max component initial, final = 0.14183785 3.5885938e-05
  Final line search alpha, max atom move = 1.0000000 3.5885938e-05
  Iterations, force evaluations = 253 506

MPI task timing breakdown:
Section |  min time  |  avg time  |  max time  |%varavg| %total
---------------------------------------------------------------
Pair    | 0.77728    | 2.1263     | 2.7633     |  39.2 | 72.07
Neigh   | 0          | 0          | 0          |   0.0 |  0.00
Comm    | 0.052199   | 0.47785    | 1.4511     |  58.3 | 16.20
Output  | 0.0001043  | 0.00010768 | 0.00018341 |   0.0 |  0.00
Modify  | 3.1878e-05 | 0.0041765  | 0.0089103  |   3.0 |  0.14
Other   |            | 0.342      |            |       | 11.59

Nlocal:        2776.45 ave        3956 max           0 min
Histogram: 8 4 4 0 4 12 8 0 30 34
Nghost:        3879.11 ave        5427 max         232 min
Histogram: 8 0 8 0 16 0 8 8 16 40
Neighs:        79213.5 ave      115329 max           0 min
Histogram: 8 4 4 0 10 6 8 8 24 32

Total # of neighbors = 8238199
Ave neighs/atom = 28.530461
Neighbor list builds = 0
Dangerous builds = 0
The dot product: 8.29180492772544e-08
Setting atom values ...
  1 settings made for x
  1 settings made for y
  1 settings made for z
Setting up cg style minimization ...
  Unit style    : metal
  Current step  : 8228
Per MPI rank memory allocation (min/avg/max) = 5.441 | 5.816 | 6.074 Mbytes
Step PotEng KinEng TotEng v_fx v_fy v_fz 
    8228   -1152448.6            0   -1152448.6 -0.0081377434 -0.027678198 -0.0095199252 
    8409   -1152448.6            0   -1152448.6 4.0796768e-05 5.9410551e-05 4.8322341e-05 
Loop time of 2.12387 on 104 procs for 181 steps with 288751 atoms

99.9% CPU use with 104 MPI tasks x 1 OpenMP threads

Minimization stats:
  Stopping criterion = energy tolerance
  Energy initial, next-to-last, final = 
      -1152448.6366195  -1152448.64348059  -1152448.64348059
  Force two-norm initial, final = 0.29771272 0.00024885704
  Force max component initial, final = 0.14557499 5.9410551e-05
  Final line search alpha, max atom move = 1.0000000 5.9410551e-05
  Iterations, force evaluations = 181 362

MPI task timing breakdown:
Section |  min time  |  avg time  |  max time  |%varavg| %total
---------------------------------------------------------------
Pair    | 0.55903    | 1.5295     | 1.9916     |  33.2 | 72.01
Neigh   | 0          | 0          | 0          |   0.0 |  0.00
Comm    | 0.043402   | 0.3452     | 1.0313     |  49.3 | 16.25
Output  | 0          | 0          | 0          |   0.0 |  0.00
Modify  | 2.2204e-05 | 0.0029905  | 0.0064167  |   2.6 |  0.14
Other   |            | 0.2462     |            |       | 11.59

Nlocal:        2776.45 ave        3956 max           0 min
Histogram: 8 4 4 0 4 12 8 0 30 34
Nghost:        3879.14 ave        5427 max         232 min
Histogram: 8 0 8 0 16 0 8 8 16 40
Neighs:        79213.5 ave      115340 max           0 min
Histogram: 8 4 4 0 10 6 8 8 24 32

Total # of neighbors = 8238205
Ave neighs/atom = 28.530481
Neighbor list builds = 0
Dangerous builds = 0
The dot product: 4.20655227341344e-07
Setting atom values ...
  1 settings made for x
  1 settings made for y
  1 settings made for z
Setting up cg style minimization ...
  Unit style    : metal
  Current step  : 8409
Per MPI rank memory allocation (min/avg/max) = 5.441 | 5.816 | 6.074 Mbytes
Step PotEng KinEng TotEng v_fx v_fy v_fz 
    8409   -1152448.6            0   -1152448.6  -0.01221176 -0.032126942 -0.014314142 
[...]
  Unit style    : metal
  Current step  : 10298
Per MPI rank memory allocation (min/avg/max) = 5.441 | 5.816 | 6.074 Mbytes
Step PotEng KinEng TotEng v_fx v_fy v_fz 
   10298   -1152448.2            0   -1152448.2 0.0041738967   0.08656871 0.0035525055 
   10518   -1152448.3            0   -1152448.3 -8.3234719e-08 -7.8233419e-06 -1.0519911e-08 
Loop time of 2.57019 on 104 procs for 220 steps with 288751 atoms

99.9% CPU use with 104 MPI tasks x 1 OpenMP threads

Minimization stats:
  Stopping criterion = energy tolerance
  Energy initial, next-to-last, final = 
     -1152448.24488602  -1152448.25058124  -1152448.25058124
  Force two-norm initial, final = 0.31425731 3.5559987e-05
  Force max component initial, final = 0.15607091 7.8233419e-06
  Final line search alpha, max atom move = 1.0000000 7.8233419e-06
  Iterations, force evaluations = 220 440

MPI task timing breakdown:
Section |  min time  |  avg time  |  max time  |%varavg| %total
---------------------------------------------------------------
Pair    | 0.6778     | 1.8587     | 2.4065     |  36.6 | 72.32
Neigh   | 0          | 0          | 0          |   0.0 |  0.00
Comm    | 0.043966   | 0.41487    | 1.2571     |  54.9 | 16.14
Output  | 0          | 0          | 0          |   0.0 |  0.00
Modify  | 2.6862e-05 | 0.0036417  | 0.008576   |   2.9 |  0.14
Other   |            | 0.293      |            |       | 11.40

Nlocal:        2776.45 ave        3957 max           0 min
Histogram: 8 4 4 0 4 12 8 2 28 34
Nghost:        3879.10 ave        5426 max         232 min
Histogram: 8 0 8 0 16 0 8 8 16 40
Neighs:        79213.7 ave      115366 max           0 min
Histogram: 8 4 4 0 10 6 8 8 24 32

Total # of neighbors = 8238225
Ave neighs/atom = 28.530551
Neighbor list builds = 0
Dangerous builds = 0
The dot product: -5.38707203974132e-08
Setting atom values ...
  1 settings made for x
  1 settings made for y
  1 settings made for z
Setting up cg style minimization ...
  Unit style    : metal
  Current step  : 10518
Per MPI rank memory allocation (min/avg/max) = 5.441 | 5.816 | 6.074 Mbytes
Step PotEng KinEng TotEng v_fx v_fy v_fz 
   10518   -1152448.2            0   -1152448.2 -0.0017611985  0.081091212 -0.0034472369 
   10780   -1152448.2            0   -1152448.2 -1.1030196e-05 -2.4377055e-05 -1.1068488e-05 
Loop time of 3.06411 on 104 procs for 262 steps with 288751 atoms

99.9% CPU use with 104 MPI tasks x 1 OpenMP threads

Minimization stats:
  Stopping criterion = energy tolerance
  Energy initial, next-to-last, final = 
     -1152448.18472417  -1152448.18995123  -1152448.18995123
  Force two-norm initial, final = 0.30293045 0.00013206621
  Force max component initial, final = 0.15021784 2.4377055e-05
  Final line search alpha, max atom move = 1.0000000 2.4377055e-05
  Iterations, force evaluations = 262 524

MPI task timing breakdown:
Section |  min time  |  avg time  |  max time  |%varavg| %total
---------------------------------------------------------------
Pair    | 0.80679    | 2.2008     | 2.866      |  39.8 | 71.83
Neigh   | 0          | 0          | 0          |   0.0 |  0.00
Comm    | 0.056418   | 0.49604    | 1.492      |  59.2 | 16.19
Output  | 0          | 0          | 0          |   0.0 |  0.00
Modify  | 3.1258e-05 | 0.0043236  | 0.0092778  |   3.1 |  0.14
Other   |            | 0.3629     |            |       | 11.84

Nlocal:        2776.45 ave        3956 max           0 min
Histogram: 8 4 4 0 4 12 8 0 30 34
Nghost:        3879.06 ave        5426 max         232 min
Histogram: 8 0 8 0 16 0 8 8 16 40
Neighs:        79213.8 ave      115345 max           0 min
Histogram: 8 4 4 0 10 6 8 8 24 32

Total # of neighbors = 8238231
Ave neighs/atom = 28.530571
Neighbor list builds = 0
Dangerous builds = 0
The dot product: -2.14132594909198e-07
Setting atom values ...
  1 settings made for x
  1 settings made for y
  1 settings made for z
Setting up cg style minimization ...
  Unit style    : metal
  Current step  : 10780
Per MPI rank memory allocation (min/avg/max) = 5.441 | 5.816 | 6.074 Mbytes
Step PotEng KinEng TotEng v_fx v_fy v_fz 
   10780   -1152448.1            0   -1152448.1 0.0047159989   0.10607556 0.0018499168 
   11000   -1152448.2            0   -1152448.2 -0.00012695011 -0.00014667952 -0.0001276858 
   11097   -1152448.2            0   -1152448.2 1.7040244e-05 1.1604769e-05 1.7371433e-05 
Loop time of 3.68174 on 104 procs for 317 steps with 288751 atoms

99.9% CPU use with 104 MPI tasks x 1 OpenMP threads

Minimization stats:
  Stopping criterion = energy tolerance
  Energy initial, next-to-last, final = 
     -1152448.12578587  -1152448.15340109  -1152448.15340109
  Force two-norm initial, final = 0.31445361 7.5338369e-05
  Force max component initial, final = 0.1433547 2.0585440e-05
  Final line search alpha, max atom move = 1.0000000 2.0585440e-05
  Iterations, force evaluations = 317 634

MPI task timing breakdown:
Section |  min time  |  avg time  |  max time  |%varavg| %total
---------------------------------------------------------------
Pair    | 0.97933    | 2.6752     | 3.4479     |  43.8 | 72.66
Neigh   | 1.0218e-05 | 0.0029187  | 0.0042801  |   2.2 |  0.08
Comm    | 0.057969   | 0.59597    | 1.8048     |  66.0 | 16.19
Output  | 0.00016858 | 0.00017347 | 0.0003359  |   0.0 |  0.00
Modify  | 3.8213e-05 | 0.0052361  | 0.011206   |   3.4 |  0.14
Other   |            | 0.4022     |            |       | 10.92

Nlocal:        2776.45 ave        3956 max           0 min
Histogram: 8 4 4 0 4 12 8 0 30 34
Nghost:        3879.09 ave        5426 max         232 min
Histogram: 8 0 8 0 16 0 8 8 16 40
Neighs:        79213.8 ave      115346 max           0 min
Histogram: 8 4 4 0 10 6 8 8 24 32

Total # of neighbors = 8238237
Ave neighs/atom = 28.530592
Neighbor list builds = 1
Dangerous builds = 0
The dot product: 4.71058957713253e-07
Setting atom values ...
  1 settings made for x
  1 settings made for y
  1 settings made for z
Setting up cg style minimization ...
  Unit style    : metal
  Current step  : 11097
Per MPI rank memory allocation (min/avg/max) = 5.441 | 5.816 | 6.074 Mbytes
Step PotEng KinEng TotEng v_fx v_fy v_fz 
   11097   -1152448.1            0   -1152448.1 -0.0032105276  0.078164372 -0.0085818493 
   11323   -1152448.1            0   -1152448.1 -1.2318882e-05 -2.6819168e-06 -1.2456044e-05 
Loop time of 2.62851 on 104 procs for 226 steps with 288751 atoms

99.9% CPU use with 104 MPI tasks x 1 OpenMP threads

Minimization stats:
  Stopping criterion = energy tolerance
  Energy initial, next-to-last, final = 
     -1152448.11483597  -1152448.11870545  -1152448.11870545
  Force two-norm initial, final = 0.26485391 5.9402656e-05
  Force max component initial, final = 0.12663952 1.4829547e-05
  Final line search alpha, max atom move = 1.0000000 1.4829547e-05
  Iterations, force evaluations = 226 452

MPI task timing breakdown:
Section |  min time  |  avg time  |  max time  |%varavg| %total
---------------------------------------------------------------
Pair    | 0.69077    | 1.8984     | 2.4668     |  37.1 | 72.22
Neigh   | 0          | 0          | 0          |   0.0 |  0.00
Comm    | 0.038341   | 0.42587    | 1.2921     |  55.5 | 16.20
Output  | 0          | 0          | 0          |   0.0 |  0.00
Modify  | 2.5792e-05 | 0.0037277  | 0.0079584  |   2.9 |  0.14
Other   |            | 0.3005     |            |       | 11.43

Nlocal:        2776.45 ave        3957 max           0 min
Histogram: 8 4 4 0 4 12 8 2 28 34
Nghost:        3879.03 ave        5424 max         232 min
Histogram: 8 0 8 0 16 0 8 8 16 40
Neighs:        79213.5 ave      115346 max           0 min
Histogram: 8 4 4 0 10 6 8 8 24 32

Total # of neighbors = 8238207
Ave neighs/atom = 28.530488
Neighbor list builds = 0
Dangerous builds = 0
The dot product: -1.80190251535742e-08
Setting atom values ...
  1 settings made for x
  1 settings made for y
  1 settings made for z
Setting up cg style minimization ...
  Unit style    : metal
  Current step  : 11323
Per MPI rank memory allocation (min/avg/max) = 5.441 | 5.816 | 6.074 Mbytes
Step PotEng KinEng TotEng v_fx v_fy v_fz 
   11323   -1152448.1            0   -1152448.1 -0.014362886  0.058514048 -0.019008059 
   11509   -1152448.1            0   -1152448.1 -1.7823088e-05 -2.7692982e-05 -1.6239802e-05 
Loop time of 2.17649 on 104 procs for 186 steps with 288751 atoms

99.9% CPU use with 104 MPI tasks x 1 OpenMP threads

Minimization stats:
  Stopping criterion = energy tolerance
  Energy initial, next-to-last, final = 
     -1152448.07699625  -1152448.08062323  -1152448.08062323
  Force two-norm initial, final = 0.25355427 0.00019499432
  Force max component initial, final = 0.12444285 2.7692982e-05
  Final line search alpha, max atom move = 1.0000000 2.7692982e-05
  Iterations, force evaluations = 186 372

MPI task timing breakdown:
Section |  min time  |  avg time  |  max time  |%varavg| %total
---------------------------------------------------------------
Pair    | 0.57478    | 1.5683     | 2.0333     |  33.5 | 72.06
Neigh   | 0          | 0          | 0          |   0.0 |  0.00
Comm    | 0.031962   | 0.35111    | 1.0562     |  49.8 | 16.13
Output  | 0          | 0          | 0          |   0.0 |  0.00
Modify  | 2.2668e-05 | 0.0030752  | 0.0065916  |   2.6 |  0.14
Other   |            | 0.254      |            |       | 11.67

Nlocal:        2776.45 ave        3957 max           0 min
Histogram: 8 4 4 0 4 12 8 2 28 34
Nghost:        3879.03 ave        5424 max         232 min
Histogram: 8 0 8 0 16 0 8 8 16 40
Neighs:        79213.6 ave      115347 max           0 min
Histogram: 8 4 4 0 10 6 8 8 24 32

Total # of neighbors = 8238213
Ave neighs/atom = 28.530509
Neighbor list builds = 0
Dangerous builds = 0
The dot product: -6.63491558022141e-08
Setting atom values ...
  1 settings made for x
  1 settings made for y
  1 settings made for z
Setting up cg style minimization ...
  Unit style    : metal
  Current step  : 11509
Per MPI rank memory allocation (min/avg/max) = 5.441 | 5.816 | 6.074 Mbytes
Step PotEng KinEng TotEng v_fx v_fy v_fz 
   11509     -1152448            0     -1152448 -0.031149776  0.056050933 -0.036261079 
   11707     -1152448            0     -1152448 2.364009e-06 6.8867112e-06 1.8938722e-06 
Loop time of 2.30992 on 104 procs for 198 steps with 288751 atoms

99.9% CPU use with 104 MPI tasks x 1 OpenMP threads

Minimization stats:
  Stopping criterion = energy tolerance
  Energy initial, next-to-last, final = 
     -1152448.03647777  -1152448.03984058  -1152448.03984058
  Force two-norm initial, final = 0.24735664 7.5659351e-05
  Force max component initial, final = 0.12201136 7.5937608e-06
  Final line search alpha, max atom move = 1.0000000 7.5937608e-06
  Iterations, force evaluations = 198 396

MPI task timing breakdown:
Section |  min time  |  avg time  |  max time  |%varavg| %total
---------------------------------------------------------------
Pair    | 0.60843    | 1.6657     | 2.1622     |  34.7 | 72.11
Neigh   | 0          | 0          | 0          |   0.0 |  0.00
Comm    | 0.045699   | 0.37429    | 1.1338     |  51.9 | 16.20
Output  | 0          | 0          | 0          |   0.0 |  0.00
Modify  | 2.3158e-05 | 0.0032686  | 0.0069733  |   2.7 |  0.14
Other   |            | 0.2666     |            |       | 11.54

Nlocal:        2776.45 ave        3957 max           0 min
Histogram: 8 4 4 0 4 12 8 2 28 34
Nghost:        3879.03 ave        5424 max         232 min
Histogram: 8 0 8 0 16 0 8 8 16 40
Neighs:        79213.6 ave      115361 max           0 min
Histogram: 8 4 4 0 10 6 8 8 24 32

Total # of neighbors = 8238215
Ave neighs/atom = 28.530516
Neighbor list builds = 0
Dangerous builds = 0
The dot product: 1.47693714299285e-08
Setting atom values ...
  1 settings made for x
  1 settings made for y
  1 settings made for z
Setting up cg style minimization ...
  Unit style    : metal
  Current step  : 11707
Per MPI rank memory allocation (min/avg/max) = 5.441 | 5.816 | 6.074 Mbytes
Step PotEng KinEng TotEng v_fx v_fy v_fz 
   11707     -1152448            0     -1152448 -0.072543014  0.064244554 -0.079967283 
   12000   -1152448.9            0   -1152448.9 5.9720973e-05 -1.4432997e-05 6.2692728e-05 
   12040   -1152448.9            0   -1152448.9 -4.729999e-06 -2.9017822e-05 -2.5024814e-06 
Loop time of 3.93023 on 104 procs for 333 steps with 288751 atoms

99.9% CPU use with 104 MPI tasks x 1 OpenMP threads

Minimization stats:
  Stopping criterion = energy tolerance
  Energy initial, next-to-last, final = 
     -1152447.99556412  -1152448.85736859  -1152448.85736859
  Force two-norm initial, final = 0.27557508 0.0001450618
  Force max component initial, final = 0.11851881 2.9017822e-05
  Final line search alpha, max atom move = 1.0000000 2.9017822e-05
  Iterations, force evaluations = 333 666

MPI task timing breakdown:
Section |  min time  |  avg time  |  max time  |%varavg| %total
---------------------------------------------------------------
Pair    | 1.0658     | 2.8155     | 3.6341     |  44.2 | 71.64
Neigh   | 0.00011095 | 0.032447   | 0.047165   |   7.4 |  0.83
Comm    | 0.070575   | 0.63257    | 1.8968     |  66.7 | 16.10
Output  | 0.00017755 | 0.00018671 | 0.00035105 |   0.0 |  0.00
Modify  | 4.0034e-05 | 0.0055072  | 0.011775   |   3.5 |  0.14
Other   |            | 0.444      |            |       | 11.30

Nlocal:        2776.45 ave        3953 max           0 min
Histogram: 8 4 4 0 4 12 8 0 30 34
Nghost:        3879.11 ave        5424 max         232 min
Histogram: 8 0 8 0 16 0 8 8 16 40
Neighs:        79213.3 ave      115202 max           0 min
Histogram: 8 4 4 0 10 6 8 8 24 32

Total # of neighbors = 8238185
Ave neighs/atom = 28.530412
Neighbor list builds = 11
Dangerous builds = 0
The dot product: 2.64476761473829e-06
Setting atom values ...
  1 settings made for x
  1 settings made for y
  1 settings made for z
Setting up cg style minimization ...
  Unit style    : metal
  Current step  : 12040
Per MPI rank memory allocation (min/avg/max) = 5.441 | 5.816 | 6.074 Mbytes
Step PotEng KinEng TotEng v_fx v_fy v_fz 
   12040   -1152448.9            0   -1152448.9   0.15320155   0.10631035   0.22122031 
   12247   -1152448.9            0   -1152448.9 -4.5101994e-05 6.2459848e-05 -6.4032319e-05 
Loop time of 2.45626 on 104 procs for 207 steps with 288751 atoms

99.9% CPU use with 104 MPI tasks x 1 OpenMP threads

Minimization stats:
  Stopping criterion = energy tolerance
  Energy initial, next-to-last, final = 
      -1152448.9193692  -1152448.93766712  -1152448.93766712
  Force two-norm initial, final = 0.44000344 0.00026817963
  Force max component initial, final = 0.22122031 6.4032319e-05
  Final line search alpha, max atom move = 1.0000000 6.4032319e-05
  Iterations, force evaluations = 207 414

MPI task timing breakdown:
Section |  min time  |  avg time  |  max time  |%varavg| %total
---------------------------------------------------------------
Pair    | 0.64562    | 1.7424     | 2.262      |  35.3 | 70.94
Neigh   | 1.0186e-05 | 0.0029092  | 0.0042696  |   2.3 |  0.12
Comm    | 0.037725   | 0.39307    | 1.1827     |  52.3 | 16.00
Output  | 0          | 0          | 0          |   0.0 |  0.00
Modify  | 2.6294e-05 | 0.0034224  | 0.0072823  |   2.8 |  0.14
Other   |            | 0.3145     |            |       | 12.80

Nlocal:        2776.45 ave        3958 max           0 min
Histogram: 8 4 4 0 4 12 8 6 24 34
Nghost:        3879.03 ave        5425 max         232 min
Histogram: 8 0 8 0 16 0 8 8 16 40
Neighs:        79213.3 ave      115322 max           0 min
Histogram: 8 4 4 0 10 6 8 8 24 32

Total # of neighbors = 8238185
Ave neighs/atom = 28.530412
Neighbor list builds = 1
Dangerous builds = 0
The dot product: -1.609005096182e-06
Setting atom values ...
  1 settings made for x
  1 settings made for y
  1 settings made for z
Setting up cg style minimization ...
  Unit style    : metal
  Current step  : 12247
Per MPI rank memory allocation (min/avg/max) = 5.441 | 5.816 | 6.074 Mbytes
Step PotEng KinEng TotEng v_fx v_fy v_fz 
   12247     -1152449            0     -1152449 -0.049880072 -0.017467438 -0.066842259 
   12443     -1152449            0     -1152449 1.4382718e-05 -8.7431172e-06 1.9431716e-05 
Loop time of 2.2859 on 104 procs for 196 steps with 288751 atoms

99.9% CPU use with 104 MPI tasks x 1 OpenMP threads

Minimization stats:
  Stopping criterion = energy tolerance
  Energy initial, next-to-last, final = 
     -1152448.99263557   -1152448.9984679   -1152448.9984679
  Force two-norm initial, final = 0.34519988 0.00017025485
  Force max component initial, final = 0.15683603 3.0817918e-05
  Final line search alpha, max atom move = 1.0000000 3.0817918e-05
  Iterations, force evaluations = 196 392

MPI task timing breakdown:
Section |  min time  |  avg time  |  max time  |%varavg| %total
---------------------------------------------------------------
Pair    | 0.60316    | 1.6559     | 2.1333     |  34.5 | 72.44
Neigh   | 0          | 0          | 0          |   0.0 |  0.00
Comm    | 0.038027   | 0.37021    | 1.1199     |  51.9 | 16.20
Output  | 0          | 0          | 0          |   0.0 |  0.00
Modify  | 2.4704e-05 | 0.0032402  | 0.0069023  |   2.7 |  0.14
Other   |            | 0.2565     |            |       | 11.22

Nlocal:        2776.45 ave        3960 max           0 min
Histogram: 8 4 4 0 4 12 8 6 24 34
Nghost:        3879.14 ave        5426 max         232 min
Histogram: 8 0 8 0 16 0 8 8 16 40
Neighs:        79213.3 ave      115396 max           0 min
Histogram: 8 4 4 0 10 6 8 8 24 32

Total # of neighbors = 8238185
Ave neighs/atom = 28.530412
Neighbor list builds = 0
Dangerous builds = 0
The dot product: -1.10733177206083e-07
Setting atom values ...
  1 settings made for x
  1 settings made for y
  1 settings made for z
Setting up cg style minimization ...
  Unit style    : metal
  Current step  : 12443
Per MPI rank memory allocation (min/avg/max) = 5.441 | 5.816 | 6.074 Mbytes
Step PotEng KinEng TotEng v_fx v_fy v_fz 
   12443     -1152449            0     -1152449 -0.019082826  0.010624809 -0.026023297 
   12647   -1152449.1            0   -1152449.1 -1.9819726e-05 3.9689096e-05 -2.7219007e-05 
Loop time of 2.39924 on 104 procs for 204 steps with 288751 atoms

99.9% CPU use with 104 MPI tasks x 1 OpenMP threads

Minimization stats:
  Stopping criterion = energy tolerance
  Energy initial, next-to-last, final = 
      -1152449.0470354  -1152449.05237847  -1152449.05237847
  Force two-norm initial, final = 0.33347408 0.00018825893
  Force max component initial, final = 0.15434512 4.2830728e-05
  Final line search alpha, max atom move = 1.0000000 4.2830728e-05
  Iterations, force evaluations = 204 408

MPI task timing breakdown:
Section |  min time  |  avg time  |  max time  |%varavg| %total
---------------------------------------------------------------
Pair    | 0.6313     | 1.7154     | 2.2306     |  35.1 | 71.50
Neigh   | 0          | 0          | 0          |   0.0 |  0.00
Comm    | 0.04221    | 0.38686    | 1.1614     |  52.2 | 16.12
Output  | 0          | 0          | 0          |   0.0 |  0.00
Modify  | 2.3891e-05 | 0.0033766  | 0.0071918  |   2.7 |  0.14
Other   |            | 0.2936     |            |       | 12.24

Nlocal:        2776.45 ave        3960 max           0 min
Histogram: 8 4 4 0 4 12 8 6 24 34
Nghost:        3879.16 ave        5426 max         232 min
Histogram: 8 0 8 0 16 0 8 8 16 40
Neighs:        79213.4 ave      115397 max           0 min
Histogram: 8 4 4 0 10 6 8 8 24 32

Total # of neighbors = 8238189
Ave neighs/atom = 28.530426
Neighbor list builds = 0
Dangerous builds = 0
The dot product: 8.37338562603793e-09
Setting atom values ...
  1 settings made for x
  1 settings made for y
  1 settings made for z
Setting up cg style minimization ...
  Unit style    : metal
  Current step  : 12647
Per MPI rank memory allocation (min/avg/max) = 5.441 | 5.816 | 6.074 Mbytes
Step PotEng KinEng TotEng v_fx v_fy v_fz 
   12647   -1152449.1            0   -1152449.1 -0.027773349 0.0091958104 -0.037835343 
