LAMMPS (29 Oct 2020)
OMP_NUM_THREADS environment is not set. Defaulting to 1 thread. (../comm.cpp:94)
  using 1 OpenMP thread(s) per MPI task
OMP_NUM_THREADS environment is not set. Defaulting to 1 thread. (../comm.cpp:94)
  using 1 OpenMP thread(s) per MPI task
Reading data file ...
  orthogonal box = (-122.39241 -121.13707 -37.090501) to (122.39241 121.13707 37.090501)
  13 by 4 by 2 MPI processor grid
  reading atoms ...
  288751 atoms
  read_data CPU = 0.392 seconds
199981 atoms in group inner
88770 atoms in group outer
1 atoms in group carbon
Neighbor list info ...
  update every 1 steps, delay 0 steps, check yes
  max neighbors/atom: 2000, page size: 100000
  master list distance cutoff = 5.6
  ghost atom cutoff = 5.6
  binsize = 2.8, bins = 88 87 27
  1 neighbor lists, perpetual/occasional/extra = 1 0 0
  (1) pair eam/alloy, perpetual
      attributes: half, newton on
      pair build: half/bin/atomonly/newton
      stencil: half/bin/3d/newton
      bin: standard
Setting up cg style minimization ...
  Unit style    : metal
  Current step  : 0
Per MPI rank memory allocation (min/avg/max) = 5.441 | 5.816 | 6.074 Mbytes
Step v_fx v_fy v_fz PotEng KinEng TotEng 
       0   0.18291107   0.68441231   -0.6735301   -1152447.8            0   -1152447.8 
     165 7.7552881e-06 -1.7838425e-05 2.1359445e-05   -1152449.5            0   -1152449.5 
Loop time of 1.91388 on 104 procs for 165 steps with 288751 atoms

99.8% CPU use with 104 MPI tasks x 1 OpenMP threads

Minimization stats:
  Stopping criterion = energy tolerance
  Energy initial, next-to-last, final = 
     -1152447.83900478  -1152449.45035271  -1152449.45035271
  Force two-norm initial, final = 9.8663216 8.9598701e-05
  Force max component initial, final = 4.6993898 2.1359445e-05
  Final line search alpha, max atom move = 1.0000000 2.1359445e-05
  Iterations, force evaluations = 165 329

MPI task timing breakdown:
Section |  min time  |  avg time  |  max time  |%varavg| %total
---------------------------------------------------------------
Pair    | 0.50726    | 1.3822     | 1.7922     |  31.5 | 72.22
Neigh   | 2.136e-05  | 0.0058686  | 0.0084949  |   3.2 |  0.31
Comm    | 0.033532   | 0.31352    | 0.93776    |  46.5 | 16.38
Output  | 0          | 0          | 0          |   0.0 |  0.00
Modify  | 1.9083e-05 | 0.0017759  | 0.0045388  |   2.6 |  0.09
Other   |            | 0.2105     |            |       | 11.00

Nlocal:        2776.45 ave        3960 max           0 min
Histogram: 8 4 4 0 4 12 8 2 28 34
Nghost:        3879.05 ave        5424 max         232 min
Histogram: 8 0 8 0 16 0 8 8 16 40
Neighs:        79213.7 ave      115437 max           0 min
Histogram: 8 4 4 0 10 6 8 8 24 32

Total # of neighbors = 8238223
Ave neighs/atom = 28.530544
Neighbor list builds = 2
Dangerous builds = 0
Setting atom values ...
  1 settings made for x
  1 settings made for y
  1 settings made for z
Setting up cg style minimization ...
  Unit style    : metal
  Current step  : 165
Per MPI rank memory allocation (min/avg/max) = 5.441 | 5.816 | 6.074 Mbytes
Step PotEng KinEng TotEng v_fx v_fy v_fz 
     165   -1152449.4            0   -1152449.4 -0.017390874 0.0075649989  -0.01920783 
     307   -1152449.5            0   -1152449.5 -9.1287016e-06 1.2910745e-05 1.8460082e-05 
Loop time of 1.66231 on 104 procs for 142 steps with 288751 atoms

99.9% CPU use with 104 MPI tasks x 1 OpenMP threads

Minimization stats:
  Stopping criterion = energy tolerance
  Energy initial, next-to-last, final = 
     -1152449.44953756  -1152449.45002983  -1152449.45002983
  Force two-norm initial, final = 0.10017519 0.00013187072
  Force max component initial, final = 0.050913821 1.8460082e-05
  Final line search alpha, max atom move = 1.0000000 1.8460082e-05
  Iterations, force evaluations = 142 284

MPI task timing breakdown:
Section |  min time  |  avg time  |  max time  |%varavg| %total
---------------------------------------------------------------
Pair    | 0.4324     | 1.1986     | 1.5551     |  29.5 | 72.11
Neigh   | 0          | 0          | 0          |   0.0 |  0.00
Comm    | 0.028413   | 0.27413    | 0.80809    |  42.8 | 16.49
Output  | 0          | 0          | 0          |   0.0 |  0.00
Modify  | 2.0669e-05 | 0.0023478  | 0.0049966  |   2.3 |  0.14
Other   |            | 0.1872     |            |       | 11.26

Nlocal:        2776.45 ave        3961 max           0 min
Histogram: 8 4 4 0 6 10 8 2 28 34
Nghost:        3879.01 ave        5424 max         232 min
Histogram: 8 0 8 0 16 0 8 8 16 40
Neighs:        79213.4 ave      115460 max           0 min
Histogram: 8 4 4 0 10 6 8 8 24 32

Total # of neighbors = 8238197
Ave neighs/atom = 28.530454
Neighbor list builds = 0
Dangerous builds = 0
Setting atom values ...
  1 settings made for x
  1 settings made for y
  1 settings made for z
Setting up cg style minimization ...
  Unit style    : metal
  Current step  : 307
Per MPI rank memory allocation (min/avg/max) = 5.441 | 5.816 | 6.074 Mbytes
Step PotEng KinEng TotEng v_fx v_fy v_fz 
     307   -1152449.4            0   -1152449.4 -0.025129338  0.016352748 -0.024548404 
     434   -1152449.4            0   -1152449.4 -1.3087305e-05 2.2734364e-05 5.1548911e-05 
Loop time of 1.47883 on 104 procs for 127 steps with 288751 atoms

99.9% CPU use with 104 MPI tasks x 1 OpenMP threads

Minimization stats:
  Stopping criterion = energy tolerance
  Energy initial, next-to-last, final = 
      -1152449.4468406  -1152449.44812656  -1152449.44812656
  Force two-norm initial, final = 0.16025355 0.00017220028
  Force max component initial, final = 0.090291158 5.1548911e-05
  Final line search alpha, max atom move = 1.0000000 5.1548911e-05
  Iterations, force evaluations = 127 254

MPI task timing breakdown:
Section |  min time  |  avg time  |  max time  |%varavg| %total
---------------------------------------------------------------
Pair    | 0.38889    | 1.0661     | 1.3807     |  27.8 | 72.09
Neigh   | 0          | 0          | 0          |   0.0 |  0.00
Comm    | 0.023487   | 0.2411     | 0.73124    |  41.1 | 16.30
Output  | 0          | 0          | 0          |   0.0 |  0.00
Modify  | 1.5153e-05 | 0.0021008  | 0.0044713  |   2.2 |  0.14
Other   |            | 0.1696     |            |       | 11.47

Nlocal:        2776.45 ave        3961 max           0 min
Histogram: 8 4 4 0 6 10 8 2 28 34
Nghost:        3879.01 ave        5424 max         232 min
Histogram: 8 0 8 0 16 0 8 8 16 40
Neighs:        79213.4 ave      115460 max           0 min
Histogram: 8 4 4 0 10 6 8 8 24 32

Total # of neighbors = 8238196
Ave neighs/atom = 28.530450
Neighbor list builds = 0
Dangerous builds = 0
The dot product: -4.48550669561105e-08
Setting atom values ...
  1 settings made for x
  1 settings made for y
  1 settings made for z
Setting up cg style minimization ...
  Unit style    : metal
  Current step  : 434
Per MPI rank memory allocation (min/avg/max) = 5.441 | 5.816 | 6.074 Mbytes
Step PotEng KinEng TotEng v_fx v_fy v_fz 
     434   -1152449.4            0   -1152449.4 -0.021954844  0.018279866 -0.015756857 
     566   -1152449.4            0   -1152449.4 -3.142379e-07 -1.9151309e-06 -1.3621303e-05 
Loop time of 1.56767 on 104 procs for 132 steps with 288751 atoms

99.9% CPU use with 104 MPI tasks x 1 OpenMP threads

Minimization stats:
  Stopping criterion = energy tolerance
  Energy initial, next-to-last, final = 
     -1152449.44335701  -1152449.44460523  -1152449.44460523
  Force two-norm initial, final = 0.15619937 0.00010125627
  Force max component initial, final = 0.094806705 1.3621303e-05
  Final line search alpha, max atom move = 1.0000000 1.3621303e-05
  Iterations, force evaluations = 132 264

MPI task timing breakdown:
Section |  min time  |  avg time  |  max time  |%varavg| %total
---------------------------------------------------------------
Pair    | 0.40051    | 1.1148     | 1.4508     |  28.5 | 71.11
Neigh   | 0          | 0          | 0          |   0.0 |  0.00
Comm    | 0.026732   | 0.25698    | 0.77041    |  41.9 | 16.39
Output  | 0          | 0          | 0          |   0.0 |  0.00
Modify  | 1.6954e-05 | 0.0021894  | 0.0046461  |   2.2 |  0.14
Other   |            | 0.1937     |            |       | 12.36

Nlocal:        2776.45 ave        3961 max           0 min
Histogram: 8 4 4 0 6 10 8 2 28 34
Nghost:        3879.01 ave        5424 max         232 min
Histogram: 8 0 8 0 16 0 8 8 16 40
Neighs:        79213.4 ave      115460 max           0 min
Histogram: 8 4 4 0 10 6 8 8 24 32

Total # of neighbors = 8238195
Ave neighs/atom = 28.530447
Neighbor list builds = 0
Dangerous builds = 0
The dot product: 1.02793548296802e-08
Setting atom values ...
  1 settings made for x
  1 settings made for y
  1 settings made for z
Setting up cg style minimization ...
  Unit style    : metal
  Current step  : 566
Per MPI rank memory allocation (min/avg/max) = 5.441 | 5.816 | 6.074 Mbytes
Step PotEng KinEng TotEng v_fx v_fy v_fz 
     566   -1152449.4            0   -1152449.4 -0.019169864  0.018410721 -0.0081563317 
     698   -1152449.4            0   -1152449.4 -8.4372862e-06 7.499145e-06 -7.8018882e-06 
Loop time of 1.52958 on 104 procs for 132 steps with 288751 atoms

99.9% CPU use with 104 MPI tasks x 1 OpenMP threads

Minimization stats:
  Stopping criterion = energy tolerance
  Energy initial, next-to-last, final = 
     -1152449.43830523  -1152449.43953266  -1152449.43953266
  Force two-norm initial, final = 0.15368108 9.6252080e-05
  Force max component initial, final = 0.09845187 8.4372862e-06
  Final line search alpha, max atom move = 1.0000000 8.4372862e-06
  Iterations, force evaluations = 132 264

MPI task timing breakdown:
Section |  min time  |  avg time  |  max time  |%varavg| %total
---------------------------------------------------------------
Pair    | 0.39897    | 1.1067     | 1.4354     |  28.4 | 72.35
Neigh   | 0          | 0          | 0          |   0.0 |  0.00
Comm    | 0.022298   | 0.2507     | 0.74598    |  41.7 | 16.39
Output  | 0          | 0          | 0          |   0.0 |  0.00
Modify  | 1.5871e-05 | 0.0021816  | 0.004698   |   2.2 |  0.14
Other   |            | 0.17       |            |       | 11.12

Nlocal:        2776.45 ave        3960 max           0 min
Histogram: 8 4 4 0 4 12 8 2 28 34
Nghost:        3879.01 ave        5424 max         232 min
Histogram: 8 0 8 0 16 0 8 8 16 40
Neighs:        79213.4 ave      115417 max           0 min
Histogram: 8 4 4 0 10 6 8 8 24 32

Total # of neighbors = 8238194
Ave neighs/atom = 28.530443
Neighbor list builds = 0
Dangerous builds = 0
The dot product: 2.26680634403093e-08
Setting atom values ...
  1 settings made for x
  1 settings made for y
  1 settings made for z
Setting up cg style minimization ...
  Unit style    : metal
  Current step  : 698
Per MPI rank memory allocation (min/avg/max) = 5.441 | 5.816 | 6.074 Mbytes
Step PotEng KinEng TotEng v_fx v_fy v_fz 
     698   -1152449.4            0   -1152449.4 -0.018999456  0.020161801 -0.0024711244 
     819   -1152449.4            0   -1152449.4 -8.3557046e-06 1.6431645e-05 5.0135896e-05 
Loop time of 1.38984 on 104 procs for 121 steps with 288751 atoms

99.9% CPU use with 104 MPI tasks x 1 OpenMP threads

Minimization stats:
  Stopping criterion = energy tolerance
  Energy initial, next-to-last, final = 
     -1152449.43172295    -1152449.432935    -1152449.432935
  Force two-norm initial, final = 0.15255027 0.00016634772
  Force max component initial, final = 0.10152478 5.0135896e-05
  Final line search alpha, max atom move = 1.0000000 5.0135896e-05
  Iterations, force evaluations = 121 242

MPI task timing breakdown:
Section |  min time  |  avg time  |  max time  |%varavg| %total
---------------------------------------------------------------
Pair    | 0.36531    | 1.0175     | 1.3165     |  27.3 | 73.21
Neigh   | 0          | 0          | 0          |   0.0 |  0.00
Comm    | 0.022626   | 0.22613    | 0.68508    |  40.6 | 16.27
Output  | 0          | 0          | 0          |   0.0 |  0.00
Modify  | 1.4848e-05 | 0.0019969  | 0.004268   |   2.1 |  0.14
Other   |            | 0.1442     |            |       | 10.37

Nlocal:        2776.45 ave        3959 max           0 min
Histogram: 8 4 4 0 4 12 8 2 28 34
Nghost:        3879.05 ave        5424 max         232 min
Histogram: 8 0 8 0 16 0 8 8 16 40
Neighs:        79213.4 ave      115394 max           0 min
Histogram: 8 4 4 0 10 6 8 8 24 32

Total # of neighbors = 8238192
Ave neighs/atom = 28.530436
Neighbor list builds = 0
Dangerous builds = 0
The dot product: 8.27697778635284e-08
Setting atom values ...
  1 settings made for x
  1 settings made for y
  1 settings made for z
Setting up cg style minimization ...
  Unit style    : metal
  Current step  : 819
Per MPI rank memory allocation (min/avg/max) = 5.441 | 5.816 | 6.074 Mbytes
Step PotEng KinEng TotEng v_fx v_fy v_fz 
     819   -1152449.4            0   -1152449.4 -0.020658337  0.023940938 0.0020332917 
     940   -1152449.4            0   -1152449.4 2.8885042e-05 -3.070801e-05 1.3964512e-05 
Loop time of 1.3987 on 104 procs for 121 steps with 288751 atoms

99.9% CPU use with 104 MPI tasks x 1 OpenMP threads

Minimization stats:
  Stopping criterion = energy tolerance
  Energy initial, next-to-last, final = 
     -1152449.42366186  -1152449.42487479  -1152449.42487479
  Force two-norm initial, final = 0.15255364 0.00019826773
  Force max component initial, final = 0.10435255 3.0708010e-05
  Final line search alpha, max atom move = 1.0000000 3.0708010e-05
  Iterations, force evaluations = 121 242

MPI task timing breakdown:
Section |  min time  |  avg time  |  max time  |%varavg| %total
---------------------------------------------------------------
Pair    | 0.36673    | 1.0131     | 1.3152     |  27.2 | 72.43
Neigh   | 0          | 0          | 0          |   0.0 |  0.00
Comm    | 0.023248   | 0.22806    | 0.68775    |  40.3 | 16.31
Output  | 0          | 0          | 0          |   0.0 |  0.00
Modify  | 1.4932e-05 | 0.002009   | 0.0042708  |   2.1 |  0.14
Other   |            | 0.1556     |            |       | 11.12

Nlocal:        2776.45 ave        3958 max           0 min
Histogram: 8 4 4 0 4 12 8 2 28 34
Nghost:        3879.05 ave        5424 max         232 min
Histogram: 8 0 8 0 16 0 8 8 16 40
Neighs:        79213.4 ave      115371 max           0 min
Histogram: 8 4 4 0 10 6 8 8 24 32

Total # of neighbors = 8238190
Ave neighs/atom = 28.530429
Neighbor list builds = 0
Dangerous builds = 0
The dot product: -1.51814267178359e-07
Setting atom values ...
  1 settings made for x
  1 settings made for y
  1 settings made for z
Setting up cg style minimization ...
  Unit style    : metal
  Current step  : 940
Per MPI rank memory allocation (min/avg/max) = 5.441 | 5.816 | 6.074 Mbytes
Step PotEng KinEng TotEng v_fx v_fy v_fz 
     940   -1152449.4            0   -1152449.4 -0.024345566  0.031034939 0.0056718856 
    1000   -1152449.4            0   -1152449.4 3.2779309e-05 -0.00010681898 -0.00034779357 
    1127   -1152449.4            0   -1152449.4 5.1937756e-06 -1.6325448e-06 2.4881495e-05 
Loop time of 2.17355 on 104 procs for 187 steps with 288751 atoms

99.9% CPU use with 104 MPI tasks x 1 OpenMP threads

Minimization stats:
  Stopping criterion = energy tolerance
  Energy initial, next-to-last, final = 
     -1152449.41422651  -1152449.41548287  -1152449.41548287
  Force two-norm initial, final = 0.15403379 6.4502635e-05
  Force max component initial, final = 0.10711122 2.4881495e-05
  Final line search alpha, max atom move = 1.0000000 2.4881495e-05
  Iterations, force evaluations = 187 374

MPI task timing breakdown:
Section |  min time  |  avg time  |  max time  |%varavg| %total
---------------------------------------------------------------
Pair    | 0.56697    | 1.5755     | 2.0469     |  33.9 | 72.49
Neigh   | 0          | 0          | 0          |   0.0 |  0.00
Comm    | 0.033044   | 0.35632    | 1.0645     |  49.5 | 16.39
Output  | 0.00010829 | 0.00011121 | 0.0002098  |   0.0 |  0.01
Modify  | 2.355e-05  | 0.0030837  | 0.0065655  |   2.6 |  0.14
Other   |            | 0.2385     |            |       | 10.97

Nlocal:        2776.45 ave        3958 max           0 min
Histogram: 8 4 4 0 4 12 8 2 28 34
Nghost:        3879.05 ave        5424 max         232 min
Histogram: 8 0 8 0 16 0 8 8 16 40
Neighs:        79213.4 ave      115371 max           0 min
Histogram: 8 4 4 0 10 6 8 8 24 32

Total # of neighbors = 8238191
Ave neighs/atom = 28.530433
Neighbor list builds = 0
Dangerous builds = 0
The dot product: 1.5146924038829e-08
Setting atom values ...
  1 settings made for x
  1 settings made for y
  1 settings made for z
Setting up cg style minimization ...
  Unit style    : metal
  Current step  : 1127
Per MPI rank memory allocation (min/avg/max) = 5.441 | 5.816 | 6.074 Mbytes
Step PotEng KinEng TotEng v_fx v_fy v_fz 
    1127   -1152449.4            0   -1152449.4 -0.026520458  0.038299816 0.0081620288 
    1250   -1152449.4            0   -1152449.4 3.9280244e-06 4.2964557e-06 4.2323943e-05 
Loop time of 1.4093 on 104 procs for 123 steps with 288751 atoms

99.9% CPU use with 104 MPI tasks x 1 OpenMP threads

Minimization stats:
  Stopping criterion = energy tolerance
  Energy initial, next-to-last, final = 
      -1152449.4035591  -1152449.40487553  -1152449.40487553
  Force two-norm initial, final = 0.15577217 0.00020417749
  Force max component initial, final = 0.10973616 4.2323943e-05
  Final line search alpha, max atom move = 1.0000000 4.2323943e-05
  Iterations, force evaluations = 123 246

MPI task timing breakdown:
Section |  min time  |  avg time  |  max time  |%varavg| %total
---------------------------------------------------------------
Pair    | 0.3705     | 1.0309     | 1.3363     |  27.5 | 73.15
Neigh   | 0          | 0          | 0          |   0.0 |  0.00
Comm    | 0.021542   | 0.23112    | 0.69808    |  40.7 | 16.40
Output  | 0          | 0          | 0          |   0.0 |  0.00
Modify  | 1.5273e-05 | 0.0020334  | 0.004338   |   2.1 |  0.14
Other   |            | 0.1453     |            |       | 10.31

Nlocal:        2776.45 ave        3957 max           0 min
Histogram: 8 4 4 0 4 12 8 2 28 34
Nghost:        3879.05 ave        5424 max         232 min
Histogram: 8 0 8 0 16 0 8 8 16 40
Neighs:        79213.4 ave      115340 max           0 min
Histogram: 8 4 4 0 10 6 8 8 24 32

Total # of neighbors = 8238192
Ave neighs/atom = 28.530436
Neighbor list builds = 0
Dangerous builds = 0
The dot product: 9.36950901053972e-08
Setting atom values ...
  1 settings made for x
  1 settings made for y
  1 settings made for z
Setting up cg style minimization ...
  Unit style    : metal
  Current step  : 1250
Per MPI rank memory allocation (min/avg/max) = 5.441 | 5.816 | 6.074 Mbytes
Step PotEng KinEng TotEng v_fx v_fy v_fz 
    1250   -1152449.4            0   -1152449.4 -0.025308929  0.042078079 0.0087275315 
    1391   -1152449.4            0   -1152449.4 -1.1835837e-05 1.886964e-05 1.1340304e-06 
Loop time of 1.64385 on 104 procs for 141 steps with 288751 atoms

99.9% CPU use with 104 MPI tasks x 1 OpenMP threads

Minimization stats:
  Stopping criterion = energy tolerance
  Energy initial, next-to-last, final = 
     -1152449.39171014  -1152449.39306464  -1152449.39306464
  Force two-norm initial, final = 0.15664668 0.00024157321
  Force max component initial, final = 0.11189371 3.5457823e-05
  Final line search alpha, max atom move = 1.0000000 3.5457823e-05
  Iterations, force evaluations = 141 282

MPI task timing breakdown:
Section |  min time  |  avg time  |  max time  |%varavg| %total
---------------------------------------------------------------
Pair    | 0.42638    | 1.189      | 1.5538     |  29.4 | 72.33
Neigh   | 0          | 0          | 0          |   0.0 |  0.00
Comm    | 0.026311   | 0.27143    | 0.82205    |  43.5 | 16.51
Output  | 0          | 0          | 0          |   0.0 |  0.00
Modify  | 1.7278e-05 | 0.0023365  | 0.0049903  |   2.3 |  0.14
Other   |            | 0.1811     |            |       | 11.02

Nlocal:        2776.45 ave        3957 max           0 min
Histogram: 8 4 4 0 4 12 8 2 28 34
Nghost:        3879.05 ave        5424 max         232 min
Histogram: 8 0 8 0 16 0 8 8 16 40
Neighs:        79213.4 ave      115340 max           0 min
Histogram: 8 4 4 0 10 6 8 8 24 32

Total # of neighbors = 8238191
Ave neighs/atom = 28.530433
Neighbor list builds = 0
Dangerous builds = 0
The dot product: 2.3528846556611e-07
Setting atom values ...
  1 settings made for x
  1 settings made for y
  1 settings made for z
Setting up cg style minimization ...
  Unit style    : metal
  Current step  : 1391
Per MPI rank memory allocation (min/avg/max) = 5.441 | 5.816 | 6.074 Mbytes
Step PotEng KinEng TotEng v_fx v_fy v_fz 
    1391   -1152449.4            0   -1152449.4 -0.021795724  0.041975123 0.0082737965 
    1607   -1152449.4            0   -1152449.4 -3.1918779e-06 4.8982969e-06 -2.6391855e-06 
Loop time of 2.48677 on 104 procs for 216 steps with 288751 atoms

99.9% CPU use with 104 MPI tasks x 1 OpenMP threads

Minimization stats:
  Stopping criterion = energy tolerance
  Energy initial, next-to-last, final = 
     -1152449.37865469   -1152449.3800061   -1152449.3800061
  Force two-norm initial, final = 0.15667222 2.9702691e-05
  Force max component initial, final = 0.11337069 5.6830684e-06
  Final line search alpha, max atom move = 1.0000000 5.6830684e-06
  Iterations, force evaluations = 216 432

MPI task timing breakdown:
Section |  min time  |  avg time  |  max time  |%varavg| %total
---------------------------------------------------------------
Pair    | 0.65326    | 1.813      | 2.3493     |  36.4 | 72.91
Neigh   | 0          | 0          | 0          |   0.0 |  0.00
Comm    | 0.041147   | 0.40858    | 1.2399     |  54.1 | 16.43
Output  | 0          | 0          | 0          |   0.0 |  0.00
Modify  | 2.612e-05  | 0.0035703  | 0.0076438  |   2.8 |  0.14
Other   |            | 0.2616     |            |       | 10.52

Nlocal:        2776.45 ave        3957 max           0 min
Histogram: 8 4 4 0 4 12 8 2 28 34
Nghost:        3879.09 ave        5424 max         232 min
Histogram: 8 0 8 0 16 0 8 8 16 40
Neighs:        79213.4 ave      115340 max           0 min
Histogram: 8 4 4 0 10 6 8 8 24 32

Total # of neighbors = 8238192
Ave neighs/atom = 28.530436
Neighbor list builds = 0
Dangerous builds = 0
The dot product: 5.81355590983304e-08
Setting atom values ...
  1 settings made for x
  1 settings made for y
  1 settings made for z
Setting up cg style minimization ...
  Unit style    : metal
  Current step  : 1607
Per MPI rank memory allocation (min/avg/max) = 5.441 | 5.816 | 6.074 Mbytes
Step PotEng KinEng TotEng v_fx v_fy v_fz 
    1607   -1152449.4            0   -1152449.4 -0.017365074  0.038789987 0.0077236727 
    1734   -1152449.4            0   -1152449.4 9.0124184e-06 -7.3899359e-08 4.9103944e-05 
Loop time of 1.46786 on 104 procs for 127 steps with 288751 atoms

99.9% CPU use with 104 MPI tasks x 1 OpenMP threads

Minimization stats:
  Stopping criterion = energy tolerance
  Energy initial, next-to-last, final = 
     -1152449.36431499  -1152449.36563683  -1152449.36563683
  Force two-norm initial, final = 0.15630121 0.00019855149
  Force max component initial, final = 0.11433621 4.9103944e-05
  Final line search alpha, max atom move = 1.0000000 4.9103944e-05
  Iterations, force evaluations = 127 254

MPI task timing breakdown:
Section |  min time  |  avg time  |  max time  |%varavg| %total
---------------------------------------------------------------
Pair    | 0.38579    | 1.0698     | 1.3891     |  27.9 | 72.88
Neigh   | 0          | 0          | 0          |   0.0 |  0.00
Comm    | 0.021933   | 0.24376    | 0.72243    |  40.7 | 16.61
Output  | 0          | 0          | 0          |   0.0 |  0.00
Modify  | 1.5759e-05 | 0.0021008  | 0.0044821  |   2.2 |  0.14
Other   |            | 0.1522     |            |       | 10.37

Nlocal:        2776.45 ave        3957 max           0 min
Histogram: 8 4 4 0 4 12 8 2 28 34
Nghost:        3879.12 ave        5424 max         232 min
Histogram: 8 0 8 0 16 0 8 8 16 40
Neighs:        79213.4 ave      115340 max           0 min
Histogram: 8 4 4 0 10 6 8 8 24 32

Total # of neighbors = 8238193
Ave neighs/atom = 28.530440
Neighbor list builds = 0
Dangerous builds = 0
The dot product: 1.12409575696655e-08
Setting atom values ...
  1 settings made for x
  1 settings made for y
  1 settings made for z
Setting up cg style minimization ...
  Unit style    : metal
  Current step  : 1734
Per MPI rank memory allocation (min/avg/max) = 5.441 | 5.816 | 6.074 Mbytes
Step PotEng KinEng TotEng v_fx v_fy v_fz 
    1734   -1152449.3            0   -1152449.3 -0.013046799  0.033571501 0.0069695358 
    1918   -1152449.3            0   -1152449.3 -1.071708e-05 1.9317059e-05 -1.3427843e-05 
Loop time of 2.12383 on 104 procs for 184 steps with 288751 atoms

99.9% CPU use with 104 MPI tasks x 1 OpenMP threads

Minimization stats:
  Stopping criterion = energy tolerance
  Energy initial, next-to-last, final = 
      -1152449.3486228   -1152449.3499012   -1152449.3499012
  Force two-norm initial, final = 0.15590309 7.8746935e-05
  Force max component initial, final = 0.11489755 1.9317059e-05
  Final line search alpha, max atom move = 1.0000000 1.9317059e-05
  Iterations, force evaluations = 184 368

MPI task timing breakdown:
Section |  min time  |  avg time  |  max time  |%varavg| %total
---------------------------------------------------------------
Pair    | 0.55694    | 1.5402     | 2.0059     |  33.5 | 72.52
Neigh   | 0          | 0          | 0          |   0.0 |  0.00
Comm    | 0.031506   | 0.34649    | 1.0393     |  49.5 | 16.31
Output  | 0          | 0          | 0          |   0.0 |  0.00
Modify  | 2.302e-05  | 0.0030358  | 0.0064697  |   2.6 |  0.14
Other   |            | 0.2341     |            |       | 11.02

Nlocal:        2776.45 ave        3957 max           0 min
Histogram: 8 4 4 0 4 12 8 2 28 34
Nghost:        3879.12 ave        5424 max         232 min
Histogram: 8 0 8 0 16 0 8 8 16 40
Neighs:        79213.4 ave      115340 max           0 min
Histogram: 8 4 4 0 10 6 8 8 24 32

Total # of neighbors = 8238192
Ave neighs/atom = 28.530436
Neighbor list builds = 0
Dangerous builds = 0
The dot product: 1.84054634314989e-07
Setting atom values ...
  1 settings made for x
  1 settings made for y
  1 settings made for z
Setting up cg style minimization ...
  Unit style    : metal
  Current step  : 1918
Per MPI rank memory allocation (min/avg/max) = 5.441 | 5.816 | 6.074 Mbytes
Step PotEng KinEng TotEng v_fx v_fy v_fz 
    1918   -1152449.3            0   -1152449.3 -0.0092362733  0.027288249 0.0064484021 
    2000   -1152449.3            0   -1152449.3 -6.2039962e-05 7.2545007e-05 -0.00018576655 
    2029   -1152449.3            0   -1152449.3 2.1734624e-05 -2.2031465e-05 7.2078515e-05 
Loop time of 1.28201 on 104 procs for 111 steps with 288751 atoms

99.9% CPU use with 104 MPI tasks x 1 OpenMP threads

Minimization stats:
  Stopping criterion = energy tolerance
  Energy initial, next-to-last, final = 
     -1152449.33152326   -1152449.3327564   -1152449.3327564
  Force two-norm initial, final = 0.15582838 0.00028522908
  Force max component initial, final = 0.11534739 7.2078515e-05
  Final line search alpha, max atom move = 1.0000000 7.2078515e-05
  Iterations, force evaluations = 111 222

MPI task timing breakdown:
Section |  min time  |  avg time  |  max time  |%varavg| %total
---------------------------------------------------------------
Pair    | 0.33553    | 0.93257    | 1.2089     |  26.1 | 72.74
Neigh   | 0          | 0          | 0          |   0.0 |  0.00
Comm    | 0.020197   | 0.20706    | 0.63068    |  39.1 | 16.15
Output  | 9.0721e-05 | 9.4833e-05 | 0.00019885 |   0.0 |  0.01
Modify  | 1.4042e-05 | 0.001841   | 0.0039128  |   2.0 |  0.14
Other   |            | 0.1404     |            |       | 10.95

Nlocal:        2776.45 ave        3957 max           0 min
Histogram: 8 4 4 0 4 12 8 2 28 34
Nghost:        3879.14 ave        5424 max         232 min
Histogram: 8 0 8 0 16 0 8 8 16 40
Neighs:        79213.4 ave      115340 max           0 min
Histogram: 8 4 4 0 10 6 8 8 24 32

Total # of neighbors = 8238189
Ave neighs/atom = 28.530426
Neighbor list builds = 0
Dangerous builds = 0
The dot product: -1.74674487518799e-07
Setting atom values ...
  1 settings made for x
  1 settings made for y
  1 settings made for z
Setting up cg style minimization ...
  Unit style    : metal
  Current step  : 2029
Per MPI rank memory allocation (min/avg/max) = 5.441 | 5.816 | 6.074 Mbytes
Step PotEng KinEng TotEng v_fx v_fy v_fz 
    2029   -1152449.3            0   -1152449.3 -0.0060501219  0.020504261 0.0059036617 
    2199   -1152449.3            0   -1152449.3 -1.1180024e-05 7.9368175e-06 -4.5532602e-05 
Loop time of 1.9578 on 104 procs for 170 steps with 288751 atoms

99.9% CPU use with 104 MPI tasks x 1 OpenMP threads

Minimization stats:
  Stopping criterion = energy tolerance
  Energy initial, next-to-last, final = 
     -1152449.31297953  -1152449.31417598  -1152449.31417598
  Force two-norm initial, final = 0.15613786 0.00017092565
  Force max component initial, final = 0.11576507 4.5532602e-05
  Final line search alpha, max atom move = 1.0000000 4.5532602e-05
  Iterations, force evaluations = 170 340

MPI task timing breakdown:
Section |  min time  |  avg time  |  max time  |%varavg| %total
---------------------------------------------------------------
Pair    | 0.51325    | 1.4229     | 1.8517     |  32.3 | 72.68
Neigh   | 0          | 0          | 0          |   0.0 |  0.00
Comm    | 0.030652   | 0.32113    | 0.96582    |  47.4 | 16.40
Output  | 0          | 0          | 0          |   0.0 |  0.00
Modify  | 2.1145e-05 | 0.002802   | 0.0060151  |   2.5 |  0.14
Other   |            | 0.2109     |            |       | 10.77

Nlocal:        2776.45 ave        3957 max           0 min
Histogram: 8 4 4 0 4 12 8 2 28 34
Nghost:        3879.14 ave        5424 max         232 min
Histogram: 8 0 8 0 16 0 8 8 16 40
Neighs:        79213.3 ave      115339 max           0 min
Histogram: 8 4 4 0 10 6 8 8 24 32

Total # of neighbors = 8238188
Ave neighs/atom = 28.530422
Neighbor list builds = 0
Dangerous builds = 0
The dot product: 4.9709979416318e-08
Setting atom values ...
  1 settings made for x
  1 settings made for y
  1 settings made for z
Setting up cg style minimization ...
  Unit style    : metal
  Current step  : 2199
Per MPI rank memory allocation (min/avg/max) = 5.441 | 5.816 | 6.074 Mbytes
Step PotEng KinEng TotEng v_fx v_fy v_fz 
    2199   -1152449.3            0   -1152449.3 -0.0034307086  0.013684708 0.0054005532 
    2392   -1152449.3            0   -1152449.3 5.0030656e-07 3.0119081e-06 7.9791927e-06 
Loop time of 2.22718 on 104 procs for 193 steps with 288751 atoms

99.9% CPU use with 104 MPI tasks x 1 OpenMP threads

Minimization stats:
  Stopping criterion = energy tolerance
  Energy initial, next-to-last, final = 
     -1152449.29297332  -1152449.29414393  -1152449.29414393
  Force two-norm initial, final = 0.15699637 5.8758058e-05
  Force max component initial, final = 0.11638021 1.2756505e-05
  Final line search alpha, max atom move = 1.0000000 1.2756505e-05
  Iterations, force evaluations = 193 386

MPI task timing breakdown:
Section |  min time  |  avg time  |  max time  |%varavg| %total
---------------------------------------------------------------
Pair    | 0.58304    | 1.6199     | 2.1017     |  34.3 | 72.73
Neigh   | 0          | 0          | 0          |   0.0 |  0.00
Comm    | 0.035061   | 0.36299    | 1.0978     |  51.3 | 16.30
Output  | 0          | 0          | 0          |   0.0 |  0.00
Modify  | 2.3565e-05 | 0.0031878  | 0.0067945  |   2.7 |  0.14
Other   |            | 0.2411     |            |       | 10.83

Nlocal:        2776.45 ave        3957 max           0 min
Histogram: 8 4 4 0 4 12 8 2 28 34
Nghost:        3879.14 ave        5424 max         232 min
Histogram: 8 0 8 0 16 0 8 8 16 40
Neighs:        79213.3 ave      115339 max           0 min
Histogram: 8 4 4 0 10 6 8 8 24 32

Total # of neighbors = 8238186
Ave neighs/atom = 28.530415
Neighbor list builds = 0
Dangerous builds = 0
The dot product: 1.38818653540594e-08
Setting atom values ...
  1 settings made for x
  1 settings made for y
  1 settings made for z
Setting up cg style minimization ...
  Unit style    : metal
  Current step  : 2392
Per MPI rank memory allocation (min/avg/max) = 5.441 | 5.816 | 6.074 Mbytes
Step PotEng KinEng TotEng v_fx v_fy v_fz 
    2392   -1152449.3            0   -1152449.3 -0.0011700479  0.006725431 0.0048338522 
    2531   -1152449.3            0   -1152449.3 9.0861799e-06 -2.725121e-06 4.4646406e-05 
Loop time of 1.59206 on 104 procs for 139 steps with 288751 atoms

99.9% CPU use with 104 MPI tasks x 1 OpenMP threads

Minimization stats:
  Stopping criterion = energy tolerance
  Energy initial, next-to-last, final = 
     -1152449.27149544  -1152449.27265314  -1152449.27265314
  Force two-norm initial, final = 0.15834721 0.00014626275
  Force max component initial, final = 0.11717103 4.4646406e-05
  Final line search alpha, max atom move = 1.0000000 4.4646406e-05
  Iterations, force evaluations = 139 278

MPI task timing breakdown:
Section |  min time  |  avg time  |  max time  |%varavg| %total
---------------------------------------------------------------
Pair    | 0.41996    | 1.1621     | 1.5057     |  29.1 | 73.00
Neigh   | 0          | 0          | 0          |   0.0 |  0.00
Comm    | 0.025242   | 0.25978    | 0.78887    |  43.4 | 16.32
Output  | 0          | 0          | 0          |   0.0 |  0.00
Modify  | 1.7101e-05 | 0.0022956  | 0.0048925  |   2.3 |  0.14
Other   |            | 0.1679     |            |       | 10.54

Nlocal:        2776.45 ave        3957 max           0 min
Histogram: 8 4 4 0 4 12 8 2 28 34
Nghost:        3879.14 ave        5424 max         232 min
Histogram: 8 0 8 0 16 0 8 8 16 40
Neighs:        79213.3 ave      115338 max           0 min
Histogram: 8 4 4 0 10 6 8 8 24 32

Total # of neighbors = 8238185
Ave neighs/atom = 28.530412
Neighbor list builds = 0
Dangerous builds = 0
The dot product: -1.2307984111157e-08
Setting atom values ...
  1 settings made for x
  1 settings made for y
  1 settings made for z
Setting up cg style minimization ...
  Unit style    : metal
  Current step  : 2531
Per MPI rank memory allocation (min/avg/max) = 5.441 | 5.816 | 6.074 Mbytes
Step PotEng KinEng TotEng v_fx v_fy v_fz 
    2531   -1152449.2            0   -1152449.2 0.00087968101 -0.00050067219 0.0039633897 
    2727   -1152449.2            0   -1152449.2 -1.7003608e-07 -8.8316101e-07 -2.3418736e-06 
Loop time of 2.27525 on 104 procs for 196 steps with 288751 atoms

99.9% CPU use with 104 MPI tasks x 1 OpenMP threads

Minimization stats:
  Stopping criterion = energy tolerance
  Energy initial, next-to-last, final = 
     -1152449.24854514  -1152449.24970472  -1152449.24970472
  Force two-norm initial, final = 0.16030502 4.9675839e-05
  Force max component initial, final = 0.11824937 4.9211124e-06
  Final line search alpha, max atom move = 1.0000000 4.9211124e-06
  Iterations, force evaluations = 196 392

MPI task timing breakdown:
Section |  min time  |  avg time  |  max time  |%varavg| %total
---------------------------------------------------------------
Pair    | 0.59584    | 1.6525     | 2.1519     |  34.7 | 72.63
Neigh   | 0          | 0          | 0          |   0.0 |  0.00
Comm    | 0.036469   | 0.37488    | 1.1277     |  51.3 | 16.48
Output  | 0          | 0          | 0          |   0.0 |  0.00
Modify  | 2.3906e-05 | 0.0032374  | 0.0068856  |   2.7 |  0.14
Other   |            | 0.2447     |            |       | 10.75

Nlocal:        2776.45 ave        3957 max           0 min
Histogram: 8 4 4 0 4 12 8 2 28 34
Nghost:        3879.14 ave        5424 max         232 min
Histogram: 8 0 8 0 16 0 8 8 16 40
Neighs:        79213.3 ave      115338 max           0 min
Histogram: 8 4 4 0 10 6 8 8 24 32

Total # of neighbors = 8238184
Ave neighs/atom = 28.530409
Neighbor list builds = 0
Dangerous builds = 0
The dot product: -7.39838906277198e-10
Setting atom values ...
  1 settings made for x
  1 settings made for y
  1 settings made for z
Setting up cg style minimization ...
  Unit style    : metal
  Current step  : 2727
Per MPI rank memory allocation (min/avg/max) = 5.441 | 5.816 | 6.074 Mbytes
Step PotEng KinEng TotEng v_fx v_fy v_fz 
    2727   -1152449.2            0   -1152449.2 0.0029573288 -0.0082822011 0.0028943557 
    2888   -1152449.2            0   -1152449.2 -1.6007748e-06 2.3282626e-05  2.83432e-05 
Loop time of 1.85863 on 104 procs for 161 steps with 288751 atoms

99.9% CPU use with 104 MPI tasks x 1 OpenMP threads

Minimization stats:
  Stopping criterion = energy tolerance
  Energy initial, next-to-last, final = 
     -1152449.22413228  -1152449.22531174  -1152449.22531174
  Force two-norm initial, final = 0.16298685 0.00014743126
  Force max component initial, final = 0.11966278 3.5756623e-05
  Final line search alpha, max atom move = 1.0000000 3.5756623e-05
  Iterations, force evaluations = 161 322

MPI task timing breakdown:
Section |  min time  |  avg time  |  max time  |%varavg| %total
---------------------------------------------------------------
Pair    | 0.48695    | 1.3498     | 1.7561     |  31.4 | 72.62
Neigh   | 0          | 0          | 0          |   0.0 |  0.00
Comm    | 0.028467   | 0.30474    | 0.92047    |  46.6 | 16.40
Output  | 0          | 0          | 0          |   0.0 |  0.00
Modify  | 1.9478e-05 | 0.002665   | 0.0057047  |   2.4 |  0.14
Other   |            | 0.2014     |            |       | 10.84

Nlocal:        2776.45 ave        3956 max           0 min
Histogram: 8 4 4 0 4 12 8 2 28 34
Nghost:        3879.14 ave        5424 max         232 min
Histogram: 8 0 8 0 16 0 8 8 16 40
Neighs:        79213.3 ave      115305 max           0 min
Histogram: 8 4 4 0 10 6 8 8 24 32

Total # of neighbors = 8238185
Ave neighs/atom = 28.530412
Neighbor list builds = 0
Dangerous builds = 0
The dot product: -2.91411513246863e-08
Setting atom values ...
  1 settings made for x
  1 settings made for y
  1 settings made for z
Setting up cg style minimization ...
  Unit style    : metal
  Current step  : 2888
Per MPI rank memory allocation (min/avg/max) = 5.441 | 5.816 | 6.074 Mbytes
Step PotEng KinEng TotEng v_fx v_fy v_fz 
    2888   -1152449.2            0   -1152449.2 0.0053079024 -0.017196177 0.0012596609 
    3000   -1152449.2            0   -1152449.2   1.4667e-05 -1.5927047e-05 5.4452006e-05 
    3016   -1152449.2            0   -1152449.2 -3.6716889e-06 1.9307064e-06 -1.6949411e-05 
Loop time of 1.48641 on 104 procs for 128 steps with 288751 atoms

99.9% CPU use with 104 MPI tasks x 1 OpenMP threads

Minimization stats:
  Stopping criterion = energy tolerance
  Energy initial, next-to-last, final = 
     -1152449.19828584  -1152449.19951403  -1152449.19951403
  Force two-norm initial, final = 0.16655349 0.00015089055
  Force max component initial, final = 0.12151223 1.6949411e-05
  Final line search alpha, max atom move = 1.0000000 1.6949411e-05
  Iterations, force evaluations = 128 256

MPI task timing breakdown:
Section |  min time  |  avg time  |  max time  |%varavg| %total
---------------------------------------------------------------
Pair    | 0.38756    | 1.0802     | 1.4055     |  28.1 | 72.67
Neigh   | 0          | 0          | 0          |   0.0 |  0.00
Comm    | 0.024023   | 0.24596    | 0.74172    |  41.5 | 16.55
Output  | 0.00016527 | 0.00016834 | 0.00032029 |   0.0 |  0.01
Modify  | 1.6659e-05 | 0.0021181  | 0.0045073  |   2.2 |  0.14
Other   |            | 0.1579     |            |       | 10.63

Nlocal:        2776.45 ave        3956 max           0 min
Histogram: 8 4 4 0 4 12 8 2 28 34
Nghost:        3879.14 ave        5424 max         232 min
Histogram: 8 0 8 0 16 0 8 8 16 40
Neighs:        79213.3 ave      115306 max           0 min
Histogram: 8 4 4 0 10 6 8 8 24 32

Total # of neighbors = 8238184
Ave neighs/atom = 28.530409
Neighbor list builds = 0
Dangerous builds = 0
The dot product: 5.10551328996474e-09
Setting atom values ...
  1 settings made for x
  1 settings made for y
  1 settings made for z
Setting up cg style minimization ...
  Unit style    : metal
  Current step  : 3016
Per MPI rank memory allocation (min/avg/max) = 5.441 | 5.816 | 6.074 Mbytes
Step PotEng KinEng TotEng v_fx v_fy v_fz 
    3016   -1152449.2            0   -1152449.2 0.0085219795 -0.028724131 -0.0013892114 
    3178   -1152449.2            0   -1152449.2 1.5755964e-05 -2.3643685e-05 4.7156213e-05 
Loop time of 1.91486 on 104 procs for 162 steps with 288751 atoms

99.9% CPU use with 104 MPI tasks x 1 OpenMP threads

Minimization stats:
  Stopping criterion = energy tolerance
  Energy initial, next-to-last, final = 
     -1152449.17107821  -1152449.17242022  -1152449.17242022
  Force two-norm initial, final = 0.17151538 0.00015663379
  Force max component initial, final = 0.12397365 4.7156213e-05
  Final line search alpha, max atom move = 1.0000000 4.7156213e-05
  Iterations, force evaluations = 162 324

MPI task timing breakdown:
Section |  min time  |  avg time  |  max time  |%varavg| %total
---------------------------------------------------------------
Pair    | 0.4893     | 1.3693     | 1.7848     |  31.8 | 71.51
Neigh   | 0          | 0          | 0          |   0.0 |  0.00
Comm    | 0.028477   | 0.31509    | 0.92147    |  45.4 | 16.46
Output  | 0          | 0          | 0          |   0.0 |  0.00
Modify  | 2.0541e-05 | 0.0026735  | 0.0057555  |   2.4 |  0.14
Other   |            | 0.2278     |            |       | 11.90

Nlocal:        2776.45 ave        3956 max           0 min
Histogram: 8 4 4 0 4 12 8 2 28 34
Nghost:        3879.14 ave        5424 max         232 min
Histogram: 8 0 8 0 16 0 8 8 16 40
Neighs:        79213.3 ave      115306 max           0 min
Histogram: 8 4 4 0 10 6 8 8 24 32

Total # of neighbors = 8238185
Ave neighs/atom = 28.530412
Neighbor list builds = 0
Dangerous builds = 0
The dot product: 1.19775910985662e-07
Setting atom values ...
  1 settings made for x
  1 settings made for y
  1 settings made for z
Setting up cg style minimization ...
  Unit style    : metal
  Current step  : 3178
Per MPI rank memory allocation (min/avg/max) = 5.441 | 5.816 | 6.074 Mbytes
Step PotEng KinEng TotEng v_fx v_fy v_fz 
    3178   -1152449.1            0   -1152449.1  0.012028049 -0.042386062  -0.01039345 
    3371   -1152449.1            0   -1152449.1 1.0510848e-06 -4.2585839e-06 -1.9336534e-06 
Loop time of 2.22995 on 104 procs for 193 steps with 288751 atoms

99.9% CPU use with 104 MPI tasks x 1 OpenMP threads

Minimization stats:
  Stopping criterion = energy tolerance
  Energy initial, next-to-last, final = 
     -1152449.14259932  -1152449.14414081  -1152449.14414081
  Force two-norm initial, final = 0.17790134 4.3063092e-05
  Force max component initial, final = 0.12746355 7.8542696e-06
  Final line search alpha, max atom move = 1.0000000 7.8542696e-06
  Iterations, force evaluations = 193 386

MPI task timing breakdown:
Section |  min time  |  avg time  |  max time  |%varavg| %total
---------------------------------------------------------------
Pair    | 0.5828     | 1.6173     | 2.1041     |  34.4 | 72.53
Neigh   | 0          | 0          | 0          |   0.0 |  0.00
Comm    | 0.034731   | 0.36596    | 1.0989     |  50.5 | 16.41
Output  | 0          | 0          | 0          |   0.0 |  0.00
Modify  | 2.3465e-05 | 0.0031797  | 0.006768   |   2.7 |  0.14
Other   |            | 0.2435     |            |       | 10.92

Nlocal:        2776.45 ave        3955 max           0 min
Histogram: 8 4 4 0 4 12 8 2 28 34
Nghost:        3879.13 ave        5424 max         232 min
Histogram: 8 0 8 0 16 0 8 8 16 40
Neighs:        79213.3 ave      115269 max           0 min
Histogram: 8 4 4 0 10 6 8 8 24 32

Total # of neighbors = 8238183
Ave neighs/atom = 28.530405
Neighbor list builds = 0
Dangerous builds = 0
The dot product: 5.81282115916241e-08
Setting atom values ...
  1 settings made for x
  1 settings made for y
  1 settings made for z
Setting up cg style minimization ...
  Unit style    : metal
  Current step  : 3371
Per MPI rank memory allocation (min/avg/max) = 5.441 | 5.816 | 6.074 Mbytes
Step PotEng KinEng TotEng v_fx v_fy v_fz 
    3371   -1152449.1            0   -1152449.1  0.015157891 -0.053036502 -0.022967962 
    3509   -1152449.1            0   -1152449.1 1.9350724e-06 1.0448613e-06 1.3670355e-05 
Loop time of 1.58468 on 104 procs for 138 steps with 288751 atoms

99.9% CPU use with 104 MPI tasks x 1 OpenMP threads

Minimization stats:
  Stopping criterion = energy tolerance
  Energy initial, next-to-last, final = 
     -1152449.11278773  -1152449.11457947  -1152449.11457947
  Force two-norm initial, final = 0.18586058 6.6160877e-05
  Force max component initial, final = 0.13184572 1.4270597e-05
  Final line search alpha, max atom move = 1.0000000 1.4270597e-05
  Iterations, force evaluations = 138 276

MPI task timing breakdown:
Section |  min time  |  avg time  |  max time  |%varavg| %total
---------------------------------------------------------------
Pair    | 0.41873    | 1.1562     | 1.5022     |  29.0 | 72.96
Neigh   | 0          | 0          | 0          |   0.0 |  0.00
Comm    | 0.024412   | 0.25857    | 0.78084    |  43.2 | 16.32
Output  | 0          | 0          | 0          |   0.0 |  0.00
Modify  | 1.6536e-05 | 0.0022774  | 0.0048435  |   2.2 |  0.14
Other   |            | 0.1676     |            |       | 10.58

Nlocal:        2776.45 ave        3955 max           0 min
Histogram: 8 4 4 0 4 12 8 2 28 34
Nghost:        3879.12 ave        5424 max         232 min
Histogram: 8 0 8 0 16 0 8 8 16 40
Neighs:        79213.3 ave      115269 max           0 min
Histogram: 8 4 4 0 10 6 8 8 24 32

Total # of neighbors = 8238181
Ave neighs/atom = 28.530398
Neighbor list builds = 0
Dangerous builds = 0
The dot product: -8.30951550771888e-08
Setting atom values ...
  1 settings made for x
  1 settings made for y
  1 settings made for z
Setting up cg style minimization ...
  Unit style    : metal
  Current step  : 3509
Per MPI rank memory allocation (min/avg/max) = 5.441 | 5.816 | 6.074 Mbytes
Step PotEng KinEng TotEng v_fx v_fy v_fz 
    3509   -1152449.1            0   -1152449.1  0.019122489 -0.060438115 -0.031143444 
    3638   -1152449.1            0   -1152449.1 4.1543079e-06 -8.8937167e-06 3.9706422e-06 
Loop time of 1.47938 on 104 procs for 129 steps with 288751 atoms

99.9% CPU use with 104 MPI tasks x 1 OpenMP threads

Minimization stats:
  Stopping criterion = energy tolerance
  Energy initial, next-to-last, final = 
     -1152449.08164455  -1152449.08364402  -1152449.08364402
  Force two-norm initial, final = 0.19337811 0.00014009299
  Force max component initial, final = 0.13680672 9.3718265e-06
  Final line search alpha, max atom move = 1.0000000 9.3718265e-06
  Iterations, force evaluations = 129 258

MPI task timing breakdown:
Section |  min time  |  avg time  |  max time  |%varavg| %total
---------------------------------------------------------------
Pair    | 0.39002    | 1.0855     | 1.4023     |  28.1 | 73.37
Neigh   | 0          | 0          | 0          |   0.0 |  0.00
Comm    | 0.022797   | 0.24245    | 0.72941    |  41.8 | 16.39
Output  | 0          | 0          | 0          |   0.0 |  0.00
Modify  | 1.5923e-05 | 0.002131   | 0.0045373  |   2.2 |  0.14
Other   |            | 0.1493     |            |       | 10.09

Nlocal:        2776.45 ave        3950 max           0 min
Histogram: 8 4 4 0 4 12 8 2 26 36
Nghost:        3879.12 ave        5424 max         232 min
Histogram: 8 0 8 0 16 0 8 8 16 40
Neighs:        79213.3 ave      115082 max           0 min
Histogram: 8 4 4 0 10 6 8 8 24 32

Total # of neighbors = 8238183
Ave neighs/atom = 28.530405
Neighbor list builds = 0
Dangerous builds = 0
The dot product: 1.27130609868393e-07
Setting atom values ...
  1 settings made for x
  1 settings made for y
  1 settings made for z
Setting up cg style minimization ...
  Unit style    : metal
  Current step  : 3638
Per MPI rank memory allocation (min/avg/max) = 5.441 | 5.816 | 6.074 Mbytes
Step PotEng KinEng TotEng v_fx v_fy v_fz 
    3638     -1152449            0     -1152449  0.022732709 -0.064581067 -0.039535459 
    3793   -1152449.1            0   -1152449.1 -2.1013135e-05 3.9614986e-05 -2.5737233e-05 
Loop time of 1.77856 on 104 procs for 155 steps with 288751 atoms

99.9% CPU use with 104 MPI tasks x 1 OpenMP threads

Minimization stats:
  Stopping criterion = energy tolerance
  Energy initial, next-to-last, final = 
      -1152449.0491788  -1152449.05133813  -1152449.05133813
  Force two-norm initial, final = 0.1998802 0.00024556418
  Force max component initial, final = 0.14190978 5.5193875e-05
  Final line search alpha, max atom move = 1.0000000 5.5193875e-05
  Iterations, force evaluations = 155 310

MPI task timing breakdown:
Section |  min time  |  avg time  |  max time  |%varavg| %total
---------------------------------------------------------------
Pair    | 0.4678     | 1.2969     | 1.6796     |  30.8 | 72.92
Neigh   | 0          | 0          | 0          |   0.0 |  0.00
Comm    | 0.026762   | 0.29223    | 0.8774     |  45.4 | 16.43
Output  | 0          | 0          | 0          |   0.0 |  0.00
Modify  | 1.8516e-05 | 0.0025571  | 0.0054551  |   2.4 |  0.14
Other   |            | 0.1869     |            |       | 10.51

Nlocal:        2776.45 ave        3944 max           0 min
Histogram: 8 4 4 0 4 12 8 2 26 36
Nghost:        3879.12 ave        5424 max         232 min
Histogram: 8 0 8 0 16 0 8 8 16 40
Neighs:        79213.3 ave      114917 max           0 min
Histogram: 8 4 4 0 10 6 8 8 22 34

Total # of neighbors = 8238179
Ave neighs/atom = 28.530391
Neighbor list builds = 0
Dangerous builds = 0
The dot product: -4.97504461848618e-07
Setting atom values ...
  1 settings made for x
  1 settings made for y
  1 settings made for z
Setting up cg style minimization ...
  Unit style    : metal
  Current step  : 3793
Per MPI rank memory allocation (min/avg/max) = 5.441 | 5.816 | 6.074 Mbytes
Step PotEng KinEng TotEng v_fx v_fy v_fz 
    3793     -1152449            0     -1152449  0.025098207 -0.065553018 -0.052770761 
    4000     -1152449            0     -1152449 3.7192534e-06 -6.3755081e-06 5.3700447e-06 
Loop time of 2.39042 on 104 procs for 207 steps with 288751 atoms

99.9% CPU use with 104 MPI tasks x 1 OpenMP threads

Minimization stats:
  Stopping criterion = energy tolerance
  Energy initial, next-to-last, final = 
     -1152449.01547519  -1152449.01780736  -1152449.01780736
  Force two-norm initial, final = 0.20642397 6.5965774e-05
  Force max component initial, final = 0.1470194 6.3755081e-06
  Final line search alpha, max atom move = 1.0000000 6.3755081e-06
  Iterations, force evaluations = 207 414

MPI task timing breakdown:
Section |  min time  |  avg time  |  max time  |%varavg| %total
---------------------------------------------------------------
Pair    | 0.62555    | 1.7443     | 2.2618     |  35.7 | 72.97
Neigh   | 0          | 0          | 0          |   0.0 |  0.00
Comm    | 0.037684   | 0.39086    | 1.1924     |  53.6 | 16.35
Output  | 0          | 0          | 0          |   0.0 |  0.00
Modify  | 2.4741e-05 | 0.003418   | 0.0072887  |   2.8 |  0.14
Other   |            | 0.2518     |            |       | 10.53

Nlocal:        2776.45 ave        3934 max           0 min
Histogram: 8 4 4 0 4 12 8 0 28 36
Nghost:        3879.12 ave        5424 max         232 min
Histogram: 8 0 8 0 16 0 8 8 16 40
Neighs:        79213.2 ave      114613 max           0 min
Histogram: 8 4 4 0 8 8 8 8 20 36

Total # of neighbors = 8238177
Ave neighs/atom = 28.530384
Neighbor list builds = 0
Dangerous builds = 0
The dot product: 4.95425367412553e-08
Setting atom values ...
  1 settings made for x
  1 settings made for y
  1 settings made for z
Setting up cg style minimization ...
  Unit style    : metal
  Current step  : 4000
Per MPI rank memory allocation (min/avg/max) = 5.441 | 5.816 | 6.074 Mbytes
Step PotEng KinEng TotEng v_fx v_fy v_fz 
    4000     -1152449            0     -1152449  0.026300165 -0.062651765 -0.067555731 
    4197     -1152449            0     -1152449 5.8464298e-07 -1.8635144e-07 5.163054e-06 
Loop time of 2.25397 on 104 procs for 197 steps with 288751 atoms

99.9% CPU use with 104 MPI tasks x 1 OpenMP threads

Minimization stats:
  Stopping criterion = energy tolerance
  Energy initial, next-to-last, final = 
     -1152448.98077864  -1152448.98319371  -1152448.98319371
  Force two-norm initial, final = 0.21266548 0.00010399734
  Force max component initial, final = 0.15225605 1.1749400e-05
  Final line search alpha, max atom move = 1.0000000 1.1749400e-05
  Iterations, force evaluations = 197 394

MPI task timing breakdown:
Section |  min time  |  avg time  |  max time  |%varavg| %total
---------------------------------------------------------------
Pair    | 0.59434    | 1.6471     | 2.129      |  34.7 | 73.08
Neigh   | 0          | 0          | 0          |   0.0 |  0.00
Comm    | 0.035853   | 0.37011    | 1.1136     |  51.3 | 16.42
Output  | 0          | 0          | 0          |   0.0 |  0.00
Modify  | 2.3995e-05 | 0.0032479  | 0.00692    |   2.7 |  0.14
Other   |            | 0.2335     |            |       | 10.36

Nlocal:        2776.45 ave        3932 max           0 min
Histogram: 8 4 4 0 4 12 8 0 26 38
Nghost:        3879.13 ave        5424 max         232 min
Histogram: 8 0 8 0 16 0 8 8 16 40
Neighs:        79213.2 ave      114548 max           0 min
Histogram: 8 4 4 0 8 8 8 8 20 36

Total # of neighbors = 8238176
Ave neighs/atom = 28.530381
Neighbor list builds = 0
Dangerous builds = 0
The dot product: -7.07714594145295e-08
Setting atom values ...
  1 settings made for x
  1 settings made for y
  1 settings made for z
Setting up cg style minimization ...
  Unit style    : metal
  Current step  : 4197
Per MPI rank memory allocation (min/avg/max) = 5.441 | 5.816 | 6.074 Mbytes
Step PotEng KinEng TotEng v_fx v_fy v_fz 
    4197   -1152448.9            0   -1152448.9  0.025999333 -0.055312604  -0.07764119 
    4454     -1152449            0     -1152449 -2.7664306e-06 5.3147703e-06 3.1780228e-06 
Loop time of 2.98102 on 104 procs for 257 steps with 288751 atoms

99.9% CPU use with 104 MPI tasks x 1 OpenMP threads

Minimization stats:
  Stopping criterion = energy tolerance
  Energy initial, next-to-last, final = 
     -1152448.94525304  -1152448.98067991  -1152448.98067991
  Force two-norm initial, final = 0.21754687 0.00010477909
  Force max component initial, final = 0.1571423 3.3662241e-05
  Final line search alpha, max atom move = 1.0000000 3.3662241e-05
  Iterations, force evaluations = 257 513

MPI task timing breakdown:
Section |  min time  |  avg time  |  max time  |%varavg| %total
---------------------------------------------------------------
Pair    | 0.78007    | 2.1602     | 2.8184     |  39.6 | 72.46
Neigh   | 1.022e-05  | 0.0029589  | 0.0042774  |   2.2 |  0.10
Comm    | 0.047651   | 0.49493    | 1.4782     |  58.3 | 16.60
Output  | 0          | 0          | 0          |   0.0 |  0.00
Modify  | 3.0918e-05 | 0.0042358  | 0.0090204  |   3.1 |  0.14
Other   |            | 0.3187     |            |       | 10.69

Nlocal:        2776.45 ave        3931 max           0 min
Histogram: 8 4 4 0 4 12 8 0 26 38
Nghost:        3879.18 ave        5424 max         232 min
Histogram: 8 0 8 0 16 0 8 8 16 40
Neighs:        79213.3 ave      114533 max           0 min
Histogram: 8 4 4 0 8 8 8 8 20 36

Total # of neighbors = 8238185
Ave neighs/atom = 28.530412
Neighbor list builds = 1
Dangerous builds = 0
The dot product: -2.70242133397444e-07
Setting atom values ...
  1 settings made for x
  1 settings made for y
  1 settings made for z
Setting up cg style minimization ...
  Unit style    : metal
  Current step  : 4454
Per MPI rank memory allocation (min/avg/max) = 5.441 | 5.816 | 6.074 Mbytes
Step PotEng KinEng TotEng v_fx v_fy v_fz 
    4454     -1152449            0     -1152449  0.023398309 -0.024662539  -0.13265025 
    4622     -1152449            0     -1152449 2.0151687e-05 -3.3266972e-05 -7.7500492e-06 
Loop time of 1.95832 on 104 procs for 168 steps with 288751 atoms

99.9% CPU use with 104 MPI tasks x 1 OpenMP threads

Minimization stats:
  Stopping criterion = energy tolerance
  Energy initial, next-to-last, final = 
     -1152448.95838362  -1152448.96189929  -1152448.96189929
  Force two-norm initial, final = 0.24794848 0.00018828527
  Force max component initial, final = 0.16644931 3.8040908e-05
  Final line search alpha, max atom move = 1.0000000 3.8040908e-05
  Iterations, force evaluations = 168 336

MPI task timing breakdown:
Section |  min time  |  avg time  |  max time  |%varavg| %total
---------------------------------------------------------------
Pair    | 0.50975    | 1.4161     | 1.8384     |  32.0 | 72.31
Neigh   | 0          | 0          | 0          |   0.0 |  0.00
Comm    | 0.028937   | 0.32005    | 0.95643    |  47.3 | 16.34
Output  | 0          | 0          | 0          |   0.0 |  0.00
Modify  | 2.0259e-05 | 0.0027627  | 0.0059039  |   2.5 |  0.14
Other   |            | 0.2194     |            |       | 11.20

Nlocal:        2776.45 ave        3952 max           0 min
Histogram: 8 4 4 0 4 12 8 2 28 34
Nghost:        3879.16 ave        5424 max         232 min
Histogram: 8 0 8 0 16 0 8 8 16 40
Neighs:        79213.3 ave      115161 max           0 min
Histogram: 8 4 4 0 10 6 8 8 24 32

Total # of neighbors = 8238183
Ave neighs/atom = 28.530405
Neighbor list builds = 0
Dangerous builds = 0
The dot product: 4.00742349811526e-07
Setting atom values ...
  1 settings made for x
  1 settings made for y
  1 settings made for z
Setting up cg style minimization ...
  Unit style    : metal
  Current step  : 4622
Per MPI rank memory allocation (min/avg/max) = 5.441 | 5.816 | 6.074 Mbytes
Step PotEng KinEng TotEng v_fx v_fy v_fz 
    4622   -1152448.9            0   -1152448.9  0.013690376 -0.0093388839 -0.065866462 
    4801   -1152448.9            0   -1152448.9 2.6632851e-06 -6.96332e-06 1.2512408e-05 
Loop time of 2.06566 on 104 procs for 179 steps with 288751 atoms

99.9% CPU use with 104 MPI tasks x 1 OpenMP threads

Minimization stats:
  Stopping criterion = energy tolerance
  Energy initial, next-to-last, final = 
     -1152448.93946445  -1152448.94177456  -1152448.94177456
  Force two-norm initial, final = 0.22208591 5.1531761e-05
  Force max component initial, final = 0.16897576 1.2512408e-05
  Final line search alpha, max atom move = 1.0000000 1.2512408e-05
  Iterations, force evaluations = 179 358

MPI task timing breakdown:
Section |  min time  |  avg time  |  max time  |%varavg| %total
---------------------------------------------------------------
Pair    | 0.54109    | 1.5047     | 1.9524     |  33.1 | 72.85
Neigh   | 0          | 0          | 0          |   0.0 |  0.00
Comm    | 0.031879   | 0.34004    | 1.0146     |  48.5 | 16.46
Output  | 0          | 0          | 0          |   0.0 |  0.00
Modify  | 2.1618e-05 | 0.0029483  | 0.0062932  |   2.6 |  0.14
Other   |            | 0.2179     |            |       | 10.55

Nlocal:        2776.45 ave        3948 max           0 min
Histogram: 8 4 4 0 4 12 8 2 26 36
Nghost:        3879.16 ave        5424 max         232 min
Histogram: 8 0 8 0 16 0 8 8 16 40
Neighs:        79213.3 ave      115011 max           0 min
Histogram: 8 4 4 0 10 6 8 8 24 32

Total # of neighbors = 8238186
Ave neighs/atom = 28.530415
Neighbor list builds = 0
Dangerous builds = 0
The dot product: -1.48718102273054e-07
Setting atom values ...
  1 settings made for x
  1 settings made for y
  1 settings made for z
Setting up cg style minimization ...
  Unit style    : metal
  Current step  : 4801
Per MPI rank memory allocation (min/avg/max) = 5.441 | 5.816 | 6.074 Mbytes
Step PotEng KinEng TotEng v_fx v_fy v_fz 
    4801   -1152448.9            0   -1152448.9 0.0084712423 -0.0039712592 -0.040617272 
    4949   -1152448.9            0   -1152448.9 2.0102113e-05 -3.2030386e-05 -4.382925e-06 
Loop time of 1.70241 on 104 procs for 148 steps with 288751 atoms

99.9% CPU use with 104 MPI tasks x 1 OpenMP threads

Minimization stats:
  Stopping criterion = energy tolerance
  Energy initial, next-to-last, final = 
     -1152448.91933847  -1152448.92162051  -1152448.92162051
  Force two-norm initial, final = 0.22067183 0.00014722876
  Force max component initial, final = 0.17129685 3.2030386e-05
  Final line search alpha, max atom move = 1.0000000 3.2030386e-05
  Iterations, force evaluations = 148 296

MPI task timing breakdown:
Section |  min time  |  avg time  |  max time  |%varavg| %total
---------------------------------------------------------------
Pair    | 0.44791    | 1.2415     | 1.6079     |  30.1 | 72.93
Neigh   | 0          | 0          | 0          |   0.0 |  0.00
Comm    | 0.025942   | 0.27937    | 0.84015    |  44.6 | 16.41
Output  | 0          | 0          | 0          |   0.0 |  0.00
Modify  | 1.8936e-05 | 0.0024417  | 0.0052145  |   2.3 |  0.14
Other   |            | 0.1791     |            |       | 10.52

Nlocal:        2776.45 ave        3948 max           0 min
Histogram: 8 4 4 0 4 12 8 2 26 36
Nghost:        3879.12 ave        5424 max         232 min
Histogram: 8 0 8 0 16 0 8 8 16 40
Neighs:        79213.3 ave      115010 max           0 min
Histogram: 8 4 4 0 10 6 8 8 24 32

Total # of neighbors = 8238183
Ave neighs/atom = 28.530405
Neighbor list builds = 0
Dangerous builds = 0
The dot product: 7.89925919459035e-08
Setting atom values ...
  1 settings made for x
  1 settings made for y
  1 settings made for z
Setting up cg style minimization ...
  Unit style    : metal
  Current step  : 4949
Per MPI rank memory allocation (min/avg/max) = 5.441 | 5.816 | 6.074 Mbytes
Step PotEng KinEng TotEng v_fx v_fy v_fz 
    4949   -1152448.9            0   -1152448.9 0.0063398661 -0.0022834813 -0.029874746 
    5000   -1152448.9            0   -1152448.9 1.7256325e-05 -3.0080022e-05 6.5590409e-06 
    5132   -1152448.9            0   -1152448.9 -9.702004e-07 1.3532984e-06 8.7539839e-07 
Loop time of 2.10639 on 104 procs for 183 steps with 288751 atoms

99.9% CPU use with 104 MPI tasks x 1 OpenMP threads

Minimization stats:
  Stopping criterion = energy tolerance
  Energy initial, next-to-last, final = 
     -1152448.89935635  -1152448.90132673  -1152448.90132673
  Force two-norm initial, final = 0.22062408 8.2409539e-05
  Force max component initial, final = 0.17365539 2.2051060e-05
  Final line search alpha, max atom move = 1.0000000 2.2051060e-05
  Iterations, force evaluations = 183 366

MPI task timing breakdown:
Section |  min time  |  avg time  |  max time  |%varavg| %total
---------------------------------------------------------------
Pair    | 0.55134    | 1.5358     | 1.9953     |  33.5 | 72.91
Neigh   | 0          | 0          | 0          |   0.0 |  0.00
Comm    | 0.031591   | 0.34612    | 1.0354     |  49.3 | 16.43
Output  | 0.00014918 | 0.00015852 | 0.00028977 |   0.0 |  0.01
Modify  | 2.2374e-05 | 0.0030169  | 0.0064529  |   2.6 |  0.14
Other   |            | 0.2213     |            |       | 10.51

Nlocal:        2776.45 ave        3948 max           0 min
Histogram: 8 4 4 0 4 12 8 2 26 36
Nghost:        3879.12 ave        5424 max         232 min
Histogram: 8 0 8 0 16 0 8 8 16 40
Neighs:        79213.3 ave      115010 max           0 min
Histogram: 8 4 4 0 10 6 8 8 24 32

Total # of neighbors = 8238182
Ave neighs/atom = 28.530402
Neighbor list builds = 0
Dangerous builds = 0
The dot product: -5.01018460345362e-09
Setting atom values ...
  1 settings made for x
  1 settings made for y
  1 settings made for z
Setting up cg style minimization ...
  Unit style    : metal
  Current step  : 5132
Per MPI rank memory allocation (min/avg/max) = 5.441 | 5.816 | 6.074 Mbytes
Step PotEng KinEng TotEng v_fx v_fy v_fz 
    5132   -1152448.9            0   -1152448.9 0.0046701893 -0.0019217354 -0.019999971 
    5256   -1152448.9            0   -1152448.9 -1.0870482e-05 1.0319618e-05 2.6120819e-05 
Loop time of 1.42411 on 104 procs for 124 steps with 288751 atoms

99.9% CPU use with 104 MPI tasks x 1 OpenMP threads

Minimization stats:
  Stopping criterion = energy tolerance
  Energy initial, next-to-last, final = 
     -1152448.87794299  -1152448.87975286  -1152448.87975286
  Force two-norm initial, final = 0.21936577 0.00027556719
  Force max component initial, final = 0.17594804 6.6653995e-05
  Final line search alpha, max atom move = 1.0000000 6.6653995e-05
  Iterations, force evaluations = 124 248

MPI task timing breakdown:
Section |  min time  |  avg time  |  max time  |%varavg| %total
---------------------------------------------------------------
Pair    | 0.37409    | 1.037      | 1.3447     |  27.5 | 72.82
Neigh   | 0          | 0          | 0          |   0.0 |  0.00
Comm    | 0.021841   | 0.23317    | 0.69801    |  40.5 | 16.37
Output  | 0          | 0          | 0          |   0.0 |  0.00
Modify  | 1.4823e-05 | 0.002051   | 0.0043673  |   2.1 |  0.14
Other   |            | 0.1519     |            |       | 10.67

Nlocal:        2776.45 ave        3947 max           0 min
Histogram: 8 4 4 0 4 12 8 2 26 36
Nghost:        3879.12 ave        5424 max         232 min
Histogram: 8 0 8 0 16 0 8 8 16 40
Neighs:        79213.3 ave      114988 max           0 min
Histogram: 8 4 4 0 10 6 8 8 24 32

Total # of neighbors = 8238180
Ave neighs/atom = 28.530395
Neighbor list builds = 0
Dangerous builds = 0
The dot product: -5.14961763124751e-08
Setting atom values ...
  1 settings made for x
  1 settings made for y
  1 settings made for z
Setting up cg style minimization ...
  Unit style    : metal
  Current step  : 5256
Per MPI rank memory allocation (min/avg/max) = 5.441 | 5.816 | 6.074 Mbytes
Step PotEng KinEng TotEng v_fx v_fy v_fz 
    5256   -1152448.9            0   -1152448.9  0.003301797 -0.0015500701 -0.013186784 
    5473   -1152448.9            0   -1152448.9 7.3272265e-07 -7.5982243e-07 -1.5052066e-06 
Loop time of 2.5129 on 104 procs for 217 steps with 288751 atoms

99.9% CPU use with 104 MPI tasks x 1 OpenMP threads

Minimization stats:
  Stopping criterion = energy tolerance
  Energy initial, next-to-last, final = 
     -1152448.85435373  -1152448.85627846  -1152448.85627846
  Force two-norm initial, final = 0.22338235 4.2675584e-05
  Force max component initial, final = 0.17829047 8.7939347e-06
  Final line search alpha, max atom move = 1.0000000 8.7939347e-06
  Iterations, force evaluations = 217 434

MPI task timing breakdown:
Section |  min time  |  avg time  |  max time  |%varavg| %total
---------------------------------------------------------------
Pair    | 0.65621    | 1.8277     | 2.3759     |  36.5 | 72.73
Neigh   | 0          | 0          | 0          |   0.0 |  0.00
Comm    | 0.039066   | 0.41371    | 1.237      |  53.6 | 16.46
Output  | 0          | 0          | 0          |   0.0 |  0.00
Modify  | 2.6228e-05 | 0.0035806  | 0.0076085  |   2.8 |  0.14
Other   |            | 0.2679     |            |       | 10.66

Nlocal:        2776.45 ave        3945 max           0 min
Histogram: 8 4 4 0 4 12 8 2 26 36
Nghost:        3879.12 ave        5424 max         232 min
Histogram: 8 0 8 0 16 0 8 8 16 40
Neighs:        79213.3 ave      114920 max           0 min
Histogram: 8 4 4 0 10 6 8 8 22 34

Total # of neighbors = 8238179
Ave neighs/atom = 28.530391
Neighbor list builds = 0
Dangerous builds = 0
The dot product: 5.09926819890245e-10
Setting atom values ...
  1 settings made for x
  1 settings made for y
  1 settings made for z
Setting up cg style minimization ...
  Unit style    : metal
  Current step  : 5473
Per MPI rank memory allocation (min/avg/max) = 5.441 | 5.816 | 6.074 Mbytes
Step PotEng KinEng TotEng v_fx v_fy v_fz 
    5473   -1152448.8            0   -1152448.8 0.0025618043 -0.0013116573 -0.0097991881 
    5618   -1152448.8            0   -1152448.8 -1.7267556e-06 6.1628659e-06 -1.1270879e-05 
Loop time of 1.69414 on 104 procs for 145 steps with 288751 atoms

99.9% CPU use with 104 MPI tasks x 1 OpenMP threads

Minimization stats:
  Stopping criterion = energy tolerance
  Energy initial, next-to-last, final = 
      -1152448.8286431   -1152448.8306784   -1152448.8306784
  Force two-norm initial, final = 0.22798635 0.00019344883
  Force max component initial, final = 0.18046905 5.9117342e-05
  Final line search alpha, max atom move = 1.0000000 5.9117342e-05
  Iterations, force evaluations = 145 290

MPI task timing breakdown:
Section |  min time  |  avg time  |  max time  |%varavg| %total
---------------------------------------------------------------
Pair    | 0.4395     | 1.2149     | 1.5782     |  29.8 | 71.71
Neigh   | 0          | 0          | 0          |   0.0 |  0.00
Comm    | 0.026018   | 0.27658    | 0.82277    |  43.6 | 16.33
Output  | 0          | 0          | 0          |   0.0 |  0.00
Modify  | 1.7291e-05 | 0.0023942  | 0.0050912  |   2.3 |  0.14
Other   |            | 0.2003     |            |       | 11.82

Nlocal:        2776.45 ave        3941 max           0 min
Histogram: 8 4 4 0 4 12 8 2 26 36
Nghost:        3879.12 ave        5424 max         232 min
Histogram: 8 0 8 0 16 0 8 8 16 40
Neighs:        79213.2 ave      114801 max           0 min
Histogram: 8 4 4 0 10 6 8 8 22 34

Total # of neighbors = 8238176
Ave neighs/atom = 28.530381
Neighbor list builds = 0
Dangerous builds = 0
The dot product: 5.54481681744263e-09
Setting atom values ...
  1 settings made for x
  1 settings made for y
  1 settings made for z
Setting up cg style minimization ...
  Unit style    : metal
  Current step  : 5618
Per MPI rank memory allocation (min/avg/max) = 5.441 | 5.816 | 6.074 Mbytes
Step PotEng KinEng TotEng v_fx v_fy v_fz 
    5618   -1152448.8            0   -1152448.8 0.0021408518 -0.0012705575 -0.0076134333 
    5801   -1152448.8            0   -1152448.8 -2.3489478e-06 4.1820917e-06 -1.0653963e-06 
Loop time of 2.10428 on 104 procs for 183 steps with 288751 atoms

99.9% CPU use with 104 MPI tasks x 1 OpenMP threads

Minimization stats:
  Stopping criterion = energy tolerance
  Energy initial, next-to-last, final = 
     -1152448.80069539  -1152448.80282998  -1152448.80282998
  Force two-norm initial, final = 0.23251033 0.0001778212
  Force max component initial, final = 0.18269334 6.3456856e-05
  Final line search alpha, max atom move = 1.0000000 6.3456856e-05
  Iterations, force evaluations = 183 366

MPI task timing breakdown:
Section |  min time  |  avg time  |  max time  |%varavg| %total
---------------------------------------------------------------
Pair    | 0.55281    | 1.5429     | 1.9897     |  33.5 | 73.32
Neigh   | 0          | 0          | 0          |   0.0 |  0.00
Comm    | 0.033632   | 0.34496    | 1.0473     |  50.1 | 16.39
Output  | 0          | 0          | 0          |   0.0 |  0.00
Modify  | 2.2026e-05 | 0.0030219  | 0.0064305  |   2.6 |  0.14
Other   |            | 0.2134     |            |       | 10.14

Nlocal:        2776.45 ave        3932 max           0 min
Histogram: 8 4 4 0 4 12 8 0 26 38
Nghost:        3879.12 ave        5424 max         232 min
Histogram: 8 0 8 0 16 0 8 8 16 40
Neighs:        79213.2 ave      114527 max           0 min
Histogram: 8 4 4 0 8 8 8 8 20 36

Total # of neighbors = 8238176
Ave neighs/atom = 28.530381
Neighbor list builds = 0
Dangerous builds = 0
The dot product: 4.02483386549768e-09
Setting atom values ...
  1 settings made for x
  1 settings made for y
  1 settings made for z
Setting up cg style minimization ...
  Unit style    : metal
  Current step  : 5801
Per MPI rank memory allocation (min/avg/max) = 5.441 | 5.816 | 6.074 Mbytes
Step PotEng KinEng TotEng v_fx v_fy v_fz 
    5801   -1152448.8            0   -1152448.8 0.0020729275 -0.0015102552 -0.0064636174 
    5988   -1152448.8            0   -1152448.8 -1.1235915e-06 1.4387436e-06 1.4072504e-06 
Loop time of 2.14496 on 104 procs for 187 steps with 288751 atoms

99.9% CPU use with 104 MPI tasks x 1 OpenMP threads

Minimization stats:
  Stopping criterion = energy tolerance
  Energy initial, next-to-last, final = 
     -1152448.77043816  -1152448.77264756  -1152448.77264756
  Force two-norm initial, final = 0.23646395 0.00014109646
  Force max component initial, final = 0.18498475 4.6899644e-05
  Final line search alpha, max atom move = 1.0000000 4.6899644e-05
  Iterations, force evaluations = 187 374

MPI task timing breakdown:
Section |  min time  |  avg time  |  max time  |%varavg| %total
---------------------------------------------------------------
Pair    | 0.56539    | 1.5658     | 2.028      |  33.8 | 73.00
Neigh   | 0          | 0          | 0          |   0.0 |  0.00
Comm    | 0.032709   | 0.35205    | 1.0608     |  50.1 | 16.41
Output  | 0          | 0          | 0          |   0.0 |  0.00
Modify  | 2.3202e-05 | 0.0030806  | 0.0065588  |   2.6 |  0.14
Other   |            | 0.224      |            |       | 10.44

Nlocal:        2776.45 ave        3931 max           0 min
Histogram: 8 4 4 0 4 12 8 0 26 38
Nghost:        3879.11 ave        5424 max         232 min
Histogram: 8 0 8 0 16 0 8 8 16 40
Neighs:        79213.2 ave      114493 max           0 min
Histogram: 8 4 4 0 8 8 8 8 20 36

Total # of neighbors = 8238169
Ave neighs/atom = 28.530357
Neighbor list builds = 0
Dangerous builds = 0
The dot product: 2.35138177891956e-09
Setting atom values ...
  1 settings made for x
  1 settings made for y
  1 settings made for z
Setting up cg style minimization ...
  Unit style    : metal
  Current step  : 5988
Per MPI rank memory allocation (min/avg/max) = 5.441 | 5.816 | 6.074 Mbytes
Step PotEng KinEng TotEng v_fx v_fy v_fz 
    5988   -1152448.7            0   -1152448.7 0.0021993866 -0.0019222637 -0.0058271374 
    6000   -1152448.7            0   -1152448.7 1.5331755e-05 -0.0002398029 0.00072673665 
    6121   -1152448.7            0   -1152448.7 -6.8022688e-07 -1.6301814e-06 9.3424884e-06 
Loop time of 1.53515 on 104 procs for 133 steps with 288751 atoms

99.9% CPU use with 104 MPI tasks x 1 OpenMP threads

Minimization stats:
  Stopping criterion = energy tolerance
  Energy initial, next-to-last, final = 
     -1152448.73781458  -1152448.74007589  -1152448.74007589
  Force two-norm initial, final = 0.23967169 0.00023227673
  Force max component initial, final = 0.18732862 7.1423700e-05
  Final line search alpha, max atom move = 1.0000000 7.1423700e-05
  Iterations, force evaluations = 133 266

MPI task timing breakdown:
Section |  min time  |  avg time  |  max time  |%varavg| %total
---------------------------------------------------------------
Pair    | 0.40282    | 1.1182     | 1.4551     |  28.5 | 72.84
Neigh   | 0          | 0          | 0          |   0.0 |  0.00
Comm    | 0.023818   | 0.25138    | 0.76162    |  42.4 | 16.37
Output  | 9.0461e-05 | 9.9891e-05 | 0.00018647 |   0.0 |  0.01
Modify  | 1.6782e-05 | 0.002203   | 0.0046743  |   2.2 |  0.14
Other   |            | 0.1633     |            |       | 10.64

Nlocal:        2776.45 ave        3930 max           0 min
Histogram: 8 4 4 0 4 12 8 0 26 38
Nghost:        3879.11 ave        5424 max         232 min
Histogram: 8 0 8 0 16 0 8 8 16 40
Neighs:        79213.1 ave      114452 max           0 min
Histogram: 8 4 4 0 8 8 8 8 20 36

Total # of neighbors = 8238166
Ave neighs/atom = 28.530346
Neighbor list builds = 0
Dangerous builds = 0
The dot product: 5.52031394643871e-09
Setting atom values ...
  1 settings made for x
  1 settings made for y
  1 settings made for z
Setting up cg style minimization ...
  Unit style    : metal
  Current step  : 6121
Per MPI rank memory allocation (min/avg/max) = 5.441 | 5.816 | 6.074 Mbytes
Step PotEng KinEng TotEng v_fx v_fy v_fz 
    6121   -1152448.7            0   -1152448.7  0.002462304 -0.0024367874 -0.0056183023 
    6261   -1152448.7            0   -1152448.7 1.9596177e-05 -2.6095271e-05 -2.1900412e-05 
Loop time of 1.6075 on 104 procs for 140 steps with 288751 atoms

99.9% CPU use with 104 MPI tasks x 1 OpenMP threads

Minimization stats:
  Stopping criterion = energy tolerance
  Energy initial, next-to-last, final = 
     -1152448.70279496   -1152448.7050873   -1152448.7050873
  Force two-norm initial, final = 0.24213962 0.00027397918
  Force max component initial, final = 0.18966468 8.9779876e-05
  Final line search alpha, max atom move = 1.0000000 8.9779876e-05
  Iterations, force evaluations = 140 280

MPI task timing breakdown:
Section |  min time  |  avg time  |  max time  |%varavg| %total
---------------------------------------------------------------
Pair    | 0.42245    | 1.1729     | 1.517      |  29.3 | 72.97
Neigh   | 0          | 0          | 0          |   0.0 |  0.00
Comm    | 0.024835   | 0.2645     | 0.79443    |  43.3 | 16.45
Output  | 0          | 0          | 0          |   0.0 |  0.00
Modify  | 1.7242e-05 | 0.002319   | 0.0049851  |   2.3 |  0.14
Other   |            | 0.1677     |            |       | 10.43

Nlocal:        2776.45 ave        3930 max           0 min
Histogram: 8 4 4 0 4 12 8 0 26 38
Nghost:        3879.09 ave        5424 max         232 min
Histogram: 8 0 8 0 16 0 8 8 16 40
Neighs:        79213.1 ave      114452 max           0 min
Histogram: 8 4 4 0 8 8 8 8 20 36

Total # of neighbors = 8238166
Ave neighs/atom = 28.530346
Neighbor list builds = 0
Dangerous builds = 0
The dot product: -4.1137465357501e-08
Setting atom values ...
  1 settings made for x
  1 settings made for y
  1 settings made for z
Setting up cg style minimization ...
  Unit style    : metal
  Current step  : 6261
Per MPI rank memory allocation (min/avg/max) = 5.441 | 5.816 | 6.074 Mbytes
Step PotEng KinEng TotEng v_fx v_fy v_fz 
    6261   -1152448.7            0   -1152448.7 0.0028877937 -0.0030651694 -0.0059504761 
    6454   -1152448.7            0   -1152448.7 -9.4181141e-07 3.1606214e-06 -5.4519079e-06 
Loop time of 2.21254 on 104 procs for 193 steps with 288751 atoms

99.9% CPU use with 104 MPI tasks x 1 OpenMP threads

Minimization stats:
  Stopping criterion = energy tolerance
  Energy initial, next-to-last, final = 
     -1152448.66537085   -1152448.6676777   -1152448.6676777
  Force two-norm initial, final = 0.24422437 0.00012838584
  Force max component initial, final = 0.19222934 4.8352149e-05
  Final line search alpha, max atom move = 1.0000000 4.8352149e-05
  Iterations, force evaluations = 193 386

MPI task timing breakdown:
Section |  min time  |  avg time  |  max time  |%varavg| %total
---------------------------------------------------------------
Pair    | 0.58294    | 1.6235     | 2.0976     |  34.4 | 73.38
Neigh   | 0          | 0          | 0          |   0.0 |  0.00
Comm    | 0.033671   | 0.36548    | 1.0973     |  50.8 | 16.52
Output  | 0          | 0          | 0          |   0.0 |  0.00
Modify  | 2.3853e-05 | 0.0031832  | 0.0068208  |   2.7 |  0.14
Other   |            | 0.2204     |            |       |  9.96

Nlocal:        2776.45 ave        3930 max           0 min
Histogram: 8 4 4 0 4 12 8 0 26 38
Nghost:        3879.11 ave        5424 max         232 min
Histogram: 8 0 8 0 16 0 8 8 16 40
Neighs:        79213.1 ave      114452 max           0 min
Histogram: 8 4 4 0 8 8 8 8 20 36

Total # of neighbors = 8238163
Ave neighs/atom = 28.530336
Neighbor list builds = 0
Dangerous builds = 0
The dot product: -2.10000952552717e-09
Setting atom values ...
  1 settings made for x
  1 settings made for y
  1 settings made for z
Setting up cg style minimization ...
  Unit style    : metal
  Current step  : 6454
Per MPI rank memory allocation (min/avg/max) = 5.441 | 5.816 | 6.074 Mbytes
Step PotEng KinEng TotEng v_fx v_fy v_fz 
    6454   -1152448.6            0   -1152448.6 0.0034202531 -0.0037493869 -0.0067122421 
    6592   -1152448.6            0   -1152448.6 8.6578259e-07 -1.2220939e-06 -7.6031584e-07 
Loop time of 1.58214 on 104 procs for 138 steps with 288751 atoms

99.9% CPU use with 104 MPI tasks x 1 OpenMP threads

Minimization stats:
  Stopping criterion = energy tolerance
  Energy initial, next-to-last, final = 
[...]

Nlocal:        2776.45 ave        3947 max           0 min
Histogram: 8 4 4 0 4 12 8 0 28 36
Nghost:        3879.11 ave        5423 max         232 min
Histogram: 8 0 8 0 16 0 8 8 16 40
Neighs:        79213.5 ave      115005 max           0 min
Histogram: 8 4 4 0 10 6 8 8 24 32

Total # of neighbors = 8238206
Ave neighs/atom = 28.530485
Neighbor list builds = 0
Dangerous builds = 0
The dot product: -1.00758469468612e-08
Setting atom values ...
  1 settings made for x
  1 settings made for y
  1 settings made for z
Setting up cg style minimization ...
  Unit style    : metal
  Current step  : 10007
Per MPI rank memory allocation (min/avg/max) = 5.441 | 5.816 | 6.074 Mbytes
Step PotEng KinEng TotEng v_fx v_fy v_fz 
   10007   -1152448.5            0   -1152448.5 -0.042495059    0.0155605 -0.065892105 
   10198   -1152448.5            0   -1152448.5 4.0981201e-07 -1.0048962e-06 1.5542856e-06 
Loop time of 2.20815 on 104 procs for 191 steps with 288751 atoms

99.9% CPU use with 104 MPI tasks x 1 OpenMP threads

Minimization stats:
  Stopping criterion = energy tolerance
  Energy initial, next-to-last, final = 
     -1152448.54107574  -1152448.54232448  -1152448.54232448
  Force two-norm initial, final = 0.15385622 6.6841403e-05
  Force max component initial, final = 0.085442688 2.2260872e-06
  Final line search alpha, max atom move = 1.0000000 2.2260872e-06
  Iterations, force evaluations = 191 382

MPI task timing breakdown:
Section |  min time  |  avg time  |  max time  |%varavg| %total
---------------------------------------------------------------
Pair    | 0.57701    | 1.5973     | 2.0708     |  34.1 | 72.34
Neigh   | 0          | 0          | 0          |   0.0 |  0.00
Comm    | 0.033052   | 0.3595     | 1.0856     |  50.2 | 16.28
Output  | 0          | 0          | 0          |   0.0 |  0.00
Modify  | 2.2104e-05 | 0.0031409  | 0.0067271  |   2.6 |  0.14
Other   |            | 0.2482     |            |       | 11.24

Nlocal:        2776.45 ave        3947 max           0 min
Histogram: 8 4 4 0 4 12 8 0 28 36
Nghost:        3879.07 ave        5423 max         232 min
Histogram: 8 0 8 0 16 0 8 8 16 40
Neighs:        79213.5 ave      115009 max           0 min
Histogram: 8 4 4 0 10 6 8 8 24 32

Total # of neighbors = 8238205
Ave neighs/atom = 28.530481
Neighbor list builds = 0
Dangerous builds = 0
The dot product: -1.95984093691241e-09
Setting atom values ...
  1 settings made for x
  1 settings made for y
  1 settings made for z
Setting up cg style minimization ...
  Unit style    : metal
  Current step  : 10198
Per MPI rank memory allocation (min/avg/max) = 5.441 | 5.816 | 6.074 Mbytes
Step PotEng KinEng TotEng v_fx v_fy v_fz 
   10198   -1152448.5            0   -1152448.5 -0.042735934  0.014446698 -0.065199695 
   10441   -1152448.5            0   -1152448.5 8.1686452e-06 -9.4353915e-06 1.9646402e-05 
Loop time of 2.77988 on 104 procs for 243 steps with 288751 atoms

99.9% CPU use with 104 MPI tasks x 1 OpenMP threads

Minimization stats:
  Stopping criterion = energy tolerance
  Energy initial, next-to-last, final = 
     -1152448.53422775  -1152448.53554404  -1152448.53554404
  Force two-norm initial, final = 0.15280188 0.00021057694
  Force max component initial, final = 0.084799429 1.9646402e-05
  Final line search alpha, max atom move = 1.0000000 1.9646402e-05
  Iterations, force evaluations = 243 486

MPI task timing breakdown:
Section |  min time  |  avg time  |  max time  |%varavg| %total
---------------------------------------------------------------
Pair    | 0.73707    | 2.0359     | 2.6275     |  38.4 | 73.24
Neigh   | 0          | 0          | 0          |   0.0 |  0.00
Comm    | 0.042121   | 0.45493    | 1.3873     |  57.4 | 16.36
Output  | 0          | 0          | 0          |   0.0 |  0.00
Modify  | 2.7836e-05 | 0.0039937  | 0.0085305  |   3.0 |  0.14
Other   |            | 0.285      |            |       | 10.25

Nlocal:        2776.45 ave        3947 max           0 min
Histogram: 8 4 4 0 4 12 8 0 28 36
Nghost:        3879.03 ave        5423 max         232 min
Histogram: 8 0 8 0 16 0 8 8 16 40
Neighs:        79213.5 ave      115010 max           0 min
Histogram: 8 4 4 0 10 6 8 8 24 32

Total # of neighbors = 8238205
Ave neighs/atom = 28.530481
Neighbor list builds = 0
Dangerous builds = 0
The dot product: 5.57492227130537e-09
Setting atom values ...
  1 settings made for x
  1 settings made for y
  1 settings made for z
Setting up cg style minimization ...
  Unit style    : metal
  Current step  : 10441
Per MPI rank memory allocation (min/avg/max) = 5.441 | 5.816 | 6.074 Mbytes
Step PotEng KinEng TotEng v_fx v_fy v_fz 
   10441   -1152448.5            0   -1152448.5  -0.04226427  0.013261162 -0.063378812 
   10627   -1152448.5            0   -1152448.5 -8.7692449e-08 5.3600946e-08 -1.5954187e-07 
Loop time of 2.12776 on 104 procs for 186 steps with 288751 atoms

99.9% CPU use with 104 MPI tasks x 1 OpenMP threads

Minimization stats:
  Stopping criterion = energy tolerance
  Energy initial, next-to-last, final = 
     -1152448.52598545  -1152448.52723092  -1152448.52723092
  Force two-norm initial, final = 0.15056015 9.4154464e-05
  Force max component initial, final = 0.084027465 3.2360071e-06
  Final line search alpha, max atom move = 1.0000000 3.2360071e-06
  Iterations, force evaluations = 186 372

MPI task timing breakdown:
Section |  min time  |  avg time  |  max time  |%varavg| %total
---------------------------------------------------------------
Pair    | 0.56416    | 1.5543     | 2.0161     |  33.6 | 73.05
Neigh   | 0          | 0          | 0          |   0.0 |  0.00
Comm    | 0.033182   | 0.34625    | 1.0503     |  49.8 | 16.27
Output  | 0          | 0          | 0          |   0.0 |  0.00
Modify  | 2.131e-05  | 0.0030536  | 0.0065087  |   2.6 |  0.14
Other   |            | 0.2241     |            |       | 10.53

Nlocal:        2776.45 ave        3948 max           0 min
Histogram: 8 4 4 0 4 12 8 0 28 36
Nghost:        3879.12 ave        5423 max         232 min
Histogram: 8 0 8 0 16 0 8 8 16 40
Neighs:        79213.5 ave      115034 max           0 min
Histogram: 8 4 4 0 10 6 8 8 24 32

Total # of neighbors = 8238208
Ave neighs/atom = 28.530492
Neighbor list builds = 0
Dangerous builds = 0
The dot product: 1.62352638229298e-10
Setting atom values ...
  1 settings made for x
  1 settings made for y
  1 settings made for z
Setting up cg style minimization ...
  Unit style    : metal
  Current step  : 10627
Per MPI rank memory allocation (min/avg/max) = 5.441 | 5.816 | 6.074 Mbytes
Step PotEng KinEng TotEng v_fx v_fy v_fz 
   10627   -1152448.5            0   -1152448.5 -0.042276926  0.011961848  -0.06213806 
   10820   -1152448.5            0   -1152448.5 1.9218832e-06 -2.1631876e-06 4.5647125e-06 
Loop time of 2.213 on 104 procs for 193 steps with 288751 atoms

99.9% CPU use with 104 MPI tasks x 1 OpenMP threads

Minimization stats:
  Stopping criterion = energy tolerance
  Energy initial, next-to-last, final = 
     -1152448.51610747  -1152448.51732765  -1152448.51732765
  Force two-norm initial, final = 0.14860695 6.3322567e-05
  Force max component initial, final = 0.083446929 4.5647125e-06
  Final line search alpha, max atom move = 1.0000000 4.5647125e-06
  Iterations, force evaluations = 193 386

MPI task timing breakdown:
Section |  min time  |  avg time  |  max time  |%varavg| %total
---------------------------------------------------------------
Pair    | 0.58223    | 1.6155     | 2.0951     |  34.3 | 73.00
Neigh   | 0          | 0          | 0          |   0.0 |  0.00
Comm    | 0.033506   | 0.3637     | 1.1059     |  50.8 | 16.43
Output  | 0          | 0          | 0          |   0.0 |  0.00
Modify  | 2.231e-05  | 0.003176   | 0.0068     |   2.7 |  0.14
Other   |            | 0.2306     |            |       | 10.42

Nlocal:        2776.45 ave        3948 max           0 min
Histogram: 8 4 4 0 4 12 8 0 28 36
Nghost:        3879.12 ave        5423 max         232 min
Histogram: 8 0 8 0 16 0 8 8 16 40
Neighs:        79213.5 ave      115030 max           0 min
Histogram: 8 4 4 0 10 6 8 8 24 32

Total # of neighbors = 8238205
Ave neighs/atom = 28.530481
Neighbor list builds = 0
Dangerous builds = 0
The dot product: -3.7245290060368e-09
Setting atom values ...
  1 settings made for x
  1 settings made for y
  1 settings made for z
Setting up cg style minimization ...
  Unit style    : metal
  Current step  : 10820
Per MPI rank memory allocation (min/avg/max) = 5.441 | 5.816 | 6.074 Mbytes
Step PotEng KinEng TotEng v_fx v_fy v_fz 
   10820   -1152448.5            0   -1152448.5 -0.042080961  0.010425358 -0.060426939 
   10989   -1152448.5            0   -1152448.5 1.5413186e-06 -9.7497514e-07 2.8500721e-06 
Loop time of 1.94534 on 104 procs for 169 steps with 288751 atoms

99.9% CPU use with 104 MPI tasks x 1 OpenMP threads

Minimization stats:
  Stopping criterion = energy tolerance
  Energy initial, next-to-last, final = 
     -1152448.50462288  -1152448.50582402  -1152448.50582402
  Force two-norm initial, final = 0.14650063 0.00016226382
  Force max component initial, final = 0.082892021 4.3967173e-06
  Final line search alpha, max atom move = 1.0000000 4.3967173e-06
  Iterations, force evaluations = 169 338

MPI task timing breakdown:
Section |  min time  |  avg time  |  max time  |%varavg| %total
---------------------------------------------------------------
Pair    | 0.51058    | 1.4129     | 1.8441     |  32.1 | 72.63
Neigh   | 0          | 0          | 0          |   0.0 |  0.00
Comm    | 0.029432   | 0.31683    | 0.957      |  47.3 | 16.29
Output  | 0          | 0          | 0          |   0.0 |  0.00
Modify  | 1.9458e-05 | 0.0027827  | 0.0059583  |   2.5 |  0.14
Other   |            | 0.2128     |            |       | 10.94

Nlocal:        2776.45 ave        3948 max           0 min
Histogram: 8 4 4 0 4 12 8 0 28 36
Nghost:        3879.12 ave        5423 max         232 min
Histogram: 8 0 8 0 16 0 8 8 16 40
Neighs:        79213.5 ave      115016 max           0 min
Histogram: 8 4 4 0 10 6 8 8 24 32

Total # of neighbors = 8238205
Ave neighs/atom = 28.530481
Neighbor list builds = 0
Dangerous builds = 0
The dot product: -2.87985686223591e-09
Setting atom values ...
  1 settings made for x
  1 settings made for y
  1 settings made for z
Setting up cg style minimization ...
  Unit style    : metal
  Current step  : 10989
Per MPI rank memory allocation (min/avg/max) = 5.441 | 5.816 | 6.074 Mbytes
Step PotEng KinEng TotEng v_fx v_fy v_fz 
   10989   -1152448.5            0   -1152448.5 -0.041851955  0.008626699 -0.058387938 
   11000   -1152448.5            0   -1152448.5 -5.9645596e-05 -9.937673e-05 3.6493553e-05 
   11251   -1152448.5            0   -1152448.5 4.1000491e-06 -1.870377e-06 6.8190274e-06 
Loop time of 3.0075 on 104 procs for 262 steps with 288751 atoms

99.9% CPU use with 104 MPI tasks x 1 OpenMP threads

Minimization stats:
  Stopping criterion = energy tolerance
  Energy initial, next-to-last, final = 
     -1152448.49154237  -1152448.49277774  -1152448.49277774
  Force two-norm initial, final = 0.14460115 0.00022355849
  Force max component initial, final = 0.082367133 9.1908115e-06
  Final line search alpha, max atom move = 1.0000000 9.1908115e-06
  Iterations, force evaluations = 262 524

MPI task timing breakdown:
Section |  min time  |  avg time  |  max time  |%varavg| %total
---------------------------------------------------------------
Pair    | 0.79121    | 2.1925     | 2.8498     |  40.0 | 72.90
Neigh   | 0          | 0          | 0          |   0.0 |  0.00
Comm    | 0.044653   | 0.49084    | 1.4885     |  59.0 | 16.32
Output  | 9.9199e-05 | 0.00010155 | 0.00017636 |   0.0 |  0.00
Modify  | 3.0071e-05 | 0.0043017  | 0.0092122  |   3.1 |  0.14
Other   |            | 0.3198     |            |       | 10.63

Nlocal:        2776.45 ave        3948 max           0 min
Histogram: 8 4 4 0 4 12 8 0 28 36
Nghost:        3879.16 ave        5424 max         232 min
Histogram: 8 0 8 0 16 0 8 8 16 40
Neighs:        79213.5 ave      115015 max           0 min
Histogram: 8 4 4 0 10 6 8 8 24 32

Total # of neighbors = 8238201
Ave neighs/atom = 28.530467
Neighbor list builds = 0
Dangerous builds = 0
The dot product: 6.66795833665017e-09
Setting atom values ...
  1 settings made for x
  1 settings made for y
  1 settings made for z
Setting up cg style minimization ...
  Unit style    : metal
  Current step  : 11251
Per MPI rank memory allocation (min/avg/max) = 5.441 | 5.816 | 6.074 Mbytes
Step PotEng KinEng TotEng v_fx v_fy v_fz 
   11251   -1152448.5            0   -1152448.5  -0.04099812 0.0065635636 -0.055127375 
   11418   -1152448.5            0   -1152448.5 4.2393268e-06 -2.8674181e-06 8.0352839e-06 
Loop time of 1.9309 on 104 procs for 167 steps with 288751 atoms

99.9% CPU use with 104 MPI tasks x 1 OpenMP threads

Minimization stats:
  Stopping criterion = energy tolerance
  Energy initial, next-to-last, final = 
     -1152448.47703174  -1152448.47823895  -1152448.47823895
  Force two-norm initial, final = 0.14248896 0.0002065757
  Force max component initial, final = 0.081736299 8.0352839e-06
  Final line search alpha, max atom move = 1.0000000 8.0352839e-06
  Iterations, force evaluations = 167 334

MPI task timing breakdown:
Section |  min time  |  avg time  |  max time  |%varavg| %total
---------------------------------------------------------------
Pair    | 0.506      | 1.3954     | 1.8242     |  31.8 | 72.26
Neigh   | 0          | 0          | 0          |   0.0 |  0.00
Comm    | 0.029955   | 0.31587    | 0.95206    |  46.6 | 16.36
Output  | 0          | 0          | 0          |   0.0 |  0.00
Modify  | 1.9218e-05 | 0.0027431  | 0.0058484  |   2.5 |  0.14
Other   |            | 0.2169     |            |       | 11.23

Nlocal:        2776.45 ave        3949 max           0 min
Histogram: 8 4 4 0 4 12 8 0 28 36
Nghost:        3879.15 ave        5424 max         232 min
Histogram: 8 0 8 0 16 0 8 8 16 40
Neighs:        79213.5 ave      115027 max           0 min
Histogram: 8 4 4 0 10 6 8 8 24 32

Total # of neighbors = 8238208
Ave neighs/atom = 28.530492
Neighbor list builds = 0
Dangerous builds = 0
The dot product: 7.59486376118302e-09
Setting atom values ...
  1 settings made for x
  1 settings made for y
  1 settings made for z
Setting up cg style minimization ...
  Unit style    : metal
  Current step  : 11418
Per MPI rank memory allocation (min/avg/max) = 5.441 | 5.816 | 6.074 Mbytes
Step PotEng KinEng TotEng v_fx v_fy v_fz 
   11418   -1152448.5            0   -1152448.5 -0.041202934 0.0042158204 -0.052875898 
   11626   -1152448.5            0   -1152448.5 -8.9155516e-07 7.2531757e-07 -1.8170831e-06 
Loop time of 2.38328 on 104 procs for 208 steps with 288751 atoms

99.9% CPU use with 104 MPI tasks x 1 OpenMP threads

Minimization stats:
  Stopping criterion = energy tolerance
  Energy initial, next-to-last, final = 
     -1152448.46098602  -1152448.46224248  -1152448.46224248
  Force two-norm initial, final = 0.14177092 3.9642820e-05
  Force max component initial, final = 0.081235177 2.2433695e-06
  Final line search alpha, max atom move = 1.0000000 2.2433695e-06
  Iterations, force evaluations = 208 416

MPI task timing breakdown:
Section |  min time  |  avg time  |  max time  |%varavg| %total
---------------------------------------------------------------
Pair    | 0.6289     | 1.7424     | 2.2582     |  35.7 | 73.11
Neigh   | 0          | 0          | 0          |   0.0 |  0.00
Comm    | 0.035755   | 0.38871    | 1.1781     |  52.9 | 16.31
Output  | 0          | 0          | 0          |   0.0 |  0.00
Modify  | 2.414e-05  | 0.0034207  | 0.0073223  |   2.8 |  0.14
Other   |            | 0.2487     |            |       | 10.44

Nlocal:        2776.45 ave        3949 max           0 min
Histogram: 8 4 4 0 4 12 8 0 28 36
Nghost:        3879.12 ave        5423 max         232 min
Histogram: 8 0 8 0 16 0 8 8 16 40
Neighs:        79213.6 ave      115030 max           0 min
Histogram: 8 4 4 0 10 6 8 8 24 32

Total # of neighbors = 8238210
Ave neighs/atom = 28.530499
Neighbor list builds = 0
Dangerous builds = 0
The dot product: -5.20598788462171e-09
Setting atom values ...
  1 settings made for x
  1 settings made for y
  1 settings made for z
Setting up cg style minimization ...
  Unit style    : metal
  Current step  : 11626
Per MPI rank memory allocation (min/avg/max) = 5.441 | 5.816 | 6.074 Mbytes
Step PotEng KinEng TotEng v_fx v_fy v_fz 
   11626   -1152448.4            0   -1152448.4  -0.04100761 0.0019086167 -0.050089564 
   11848   -1152448.4            0   -1152448.4 2.2633963e-06 9.8729124e-07 1.6143846e-06 
Loop time of 2.64824 on 104 procs for 222 steps with 288751 atoms

99.8% CPU use with 104 MPI tasks x 1 OpenMP threads

Minimization stats:
  Stopping criterion = energy tolerance
  Energy initial, next-to-last, final = 
     -1152448.44356735  -1152448.44491825  -1152448.44491825
  Force two-norm initial, final = 0.14129405 0.00019842416
  Force max component initial, final = 0.08067887 6.1820142e-06
  Final line search alpha, max atom move = 1.0000000 6.1820142e-06
  Iterations, force evaluations = 222 444

MPI task timing breakdown:
Section |  min time  |  avg time  |  max time  |%varavg| %total
---------------------------------------------------------------
Pair    | 0.67968    | 1.8684     | 2.4249     |  36.8 | 70.55
Neigh   | 0          | 0          | 0          |   0.0 |  0.00
Comm    | 0.053091   | 0.42798    | 1.2738     |  53.4 | 16.16
Output  | 0          | 0          | 0          |   0.0 |  0.00
Modify  | 2.5677e-05 | 0.003657   | 0.0078336  |   2.9 |  0.14
Other   |            | 0.3482     |            |       | 13.15

Nlocal:        2776.45 ave        3949 max           0 min
Histogram: 8 4 4 0 4 12 8 0 28 36
Nghost:        3879.12 ave        5423 max         232 min
Histogram: 8 0 8 0 16 0 8 8 16 40
Neighs:        79213.5 ave      115032 max           0 min
Histogram: 8 4 4 0 10 6 8 8 24 32

Total # of neighbors = 8238209
Ave neighs/atom = 28.530495
Neighbor list builds = 0
Dangerous builds = 0
The dot product: -2.04633551674874e-11
Setting up cg style minimization ...
  Unit style    : metal
  Current step  : 11848
Per MPI rank memory allocation (min/avg/max) = 5.441 | 5.816 | 6.074 Mbytes
Step PotEng KinEng TotEng v_fx v_fy v_fz 
   11848   -1152448.4            0   -1152448.4   0.56814542   -0.5101347  -0.48456732 
   12000   -1152448.6            0   -1152448.6 7.697262e-05 -8.0214237e-05 0.00081913002 
   12109   -1152448.6            0   -1152448.6 5.2235496e-06 -7.4735482e-06 7.5340092e-05 
Loop time of 3.00742 on 104 procs for 261 steps with 288751 atoms

99.9% CPU use with 104 MPI tasks x 1 OpenMP threads

Minimization stats:
  Stopping criterion = energy tolerance
  Energy initial, next-to-last, final = 
     -1152448.44491825   -1152448.5552464   -1152448.5552464
  Force two-norm initial, final = 0.90434073 0.00028670325
  Force max component initial, final = 0.56814542 7.5340092e-05
  Final line search alpha, max atom move = 1.0000000 7.5340092e-05
  Iterations, force evaluations = 261 522

MPI task timing breakdown:
Section |  min time  |  avg time  |  max time  |%varavg| %total
---------------------------------------------------------------
Pair    | 0.80343    | 2.1904     | 2.8324     |  39.7 | 72.83
Neigh   | 3.2439e-05 | 0.0088742  | 0.012834   |   3.9 |  0.30
Comm    | 0.046388   | 0.49351    | 1.5016     |  58.8 | 16.41
Output  | 9.659e-05  | 0.00011067 | 0.00029452 |   0.0 |  0.00
Modify  | 2.8999e-05 | 0.0027907  | 0.0071601  |   3.3 |  0.09
Other   |            | 0.3117     |            |       | 10.36

Nlocal:        2776.45 ave        3948 max           0 min
Histogram: 8 4 4 0 4 12 8 0 28 36
Nghost:        3879.11 ave        5424 max         232 min
Histogram: 8 0 8 0 16 0 8 8 16 40
Neighs:        79213.5 ave      115013 max           0 min
Histogram: 8 4 4 0 10 6 8 8 24 32

Total # of neighbors = 8238206
Ave neighs/atom = 28.530485
Neighbor list builds = 3
Dangerous builds = 1
