LAMMPS (29 Oct 2020)
OMP_NUM_THREADS environment is not set. Defaulting to 1 thread. (../comm.cpp:94)
  using 1 OpenMP thread(s) per MPI task
OMP_NUM_THREADS environment is not set. Defaulting to 1 thread. (../comm.cpp:94)
  using 1 OpenMP thread(s) per MPI task
Reading data file ...
  orthogonal box = (-122.39241 -121.13707 -37.090501) to (122.39241 121.13707 37.090501)
  13 by 4 by 2 MPI processor grid
  reading atoms ...
  288751 atoms
  read_data CPU = 0.369 seconds
199981 atoms in group inner
88770 atoms in group outer
1 atoms in group carbon
Neighbor list info ...
  update every 1 steps, delay 0 steps, check yes
  max neighbors/atom: 2000, page size: 100000
  master list distance cutoff = 5.6
  ghost atom cutoff = 5.6
  binsize = 2.8, bins = 88 87 27
  1 neighbor lists, perpetual/occasional/extra = 1 0 0
  (1) pair eam/alloy, perpetual
      attributes: half, newton on
      pair build: half/bin/atomonly/newton
      stencil: half/bin/3d/newton
      bin: standard
Setting up cg style minimization ...
  Unit style    : metal
  Current step  : 0
Per MPI rank memory allocation (min/avg/max) = 5.441 | 5.816 | 6.074 Mbytes
Step v_fx v_fy v_fz PotEng KinEng TotEng 
       0  -0.50879322  0.094219308  -0.34572912   -1152447.8            0   -1152447.8 
     220 1.2292821e-06 1.7059573e-06 3.1678323e-06   -1152449.5            0   -1152449.5 
Loop time of 2.55619 on 104 procs for 220 steps with 288751 atoms

99.8% CPU use with 104 MPI tasks x 1 OpenMP threads

Minimization stats:
  Stopping criterion = energy tolerance
  Energy initial, next-to-last, final = 
     -1152447.84908057  -1152449.45035262  -1152449.45035262
  Force two-norm initial, final = 9.7499538 1.0769612e-05
  Force max component initial, final = 4.4016117 3.1678323e-06
  Final line search alpha, max atom move = 1.0000000 3.1678323e-06
  Iterations, force evaluations = 220 439

MPI task timing breakdown:
Section |  min time  |  avg time  |  max time  |%varavg| %total
---------------------------------------------------------------
Pair    | 0.67731    | 1.8422     | 2.3952     |  36.3 | 72.07
Neigh   | 2.3082e-05 | 0.0058423  | 0.0084836  |   3.2 |  0.23
Comm    | 0.048539   | 0.41183    | 1.2376     |  54.2 | 16.11
Output  | 0          | 0          | 0          |   0.0 |  0.00
Modify  | 2.4649e-05 | 0.0023655  | 0.0060266  |   3.0 |  0.09
Other   |            | 0.2939     |            |       | 11.50

Nlocal:        2776.45 ave        3959 max           0 min
Histogram: 8 4 4 0 4 12 8 2 28 34
Nghost:        3879.01 ave        5424 max         232 min
Histogram: 8 0 8 0 16 0 8 8 16 40
Neighs:        79213.4 ave      115402 max           0 min
Histogram: 8 4 4 0 10 6 8 8 24 32

Total # of neighbors = 8238197
Ave neighs/atom = 28.530454
Neighbor list builds = 2
Dangerous builds = 1
Setting atom values ...
  1 settings made for x
  1 settings made for y
  1 settings made for z
Setting up cg style minimization ...
  Unit style    : metal
  Current step  : 220
Per MPI rank memory allocation (min/avg/max) = 5.441 | 5.816 | 6.074 Mbytes
Step PotEng KinEng TotEng v_fx v_fy v_fz 
     220   -1152449.4            0   -1152449.4 -0.00063967782 0.0013189429 0.0026161413 
     356   -1152449.5            0   -1152449.5 5.2824608e-06 1.170202e-05 5.0532569e-05 
Loop time of 1.58073 on 104 procs for 136 steps with 288751 atoms

99.9% CPU use with 104 MPI tasks x 1 OpenMP threads

Minimization stats:
  Stopping criterion = energy tolerance
  Energy initial, next-to-last, final = 
     -1152449.44942737  -1152449.45004199  -1152449.45004199
  Force two-norm initial, final = 0.11512828 0.00014289901
  Force max component initial, final = 0.053219279 5.0532569e-05
  Final line search alpha, max atom move = 1.0000000 5.0532569e-05
  Iterations, force evaluations = 136 272

MPI task timing breakdown:
Section |  min time  |  avg time  |  max time  |%varavg| %total
---------------------------------------------------------------
Pair    | 0.41334    | 1.1462     | 1.4845     |  28.8 | 72.51
Neigh   | 0          | 0          | 0          |   0.0 |  0.00
Comm    | 0.028043   | 0.25552    | 0.77342    |  43.3 | 16.16
Output  | 0          | 0          | 0          |   0.0 |  0.00
Modify  | 1.5951e-05 | 0.0022464  | 0.0047763  |   2.2 |  0.14
Other   |            | 0.1767     |            |       | 11.18

Nlocal:        2776.45 ave        3959 max           0 min
Histogram: 8 4 4 0 4 12 8 2 28 34
Nghost:        3879.01 ave        5424 max         232 min
Histogram: 8 0 8 0 16 0 8 8 16 40
Neighs:        79213.4 ave      115392 max           0 min
Histogram: 8 4 4 0 10 6 8 8 24 32

Total # of neighbors = 8238197
Ave neighs/atom = 28.530454
Neighbor list builds = 0
Dangerous builds = 0
Setting atom values ...
  1 settings made for x
  1 settings made for y
  1 settings made for z
Setting up cg style minimization ...
  Unit style    : metal
  Current step  : 356
Per MPI rank memory allocation (min/avg/max) = 5.441 | 5.816 | 6.074 Mbytes
Step PotEng KinEng TotEng v_fx v_fy v_fz 
     356   -1152449.4            0   -1152449.4 -0.0048888715 0.0043695908 0.0032498041 
     496   -1152449.4            0   -1152449.4 -4.7297403e-07 2.0232757e-06 6.3686025e-06 
Loop time of 1.64464 on 104 procs for 140 steps with 288751 atoms

99.9% CPU use with 104 MPI tasks x 1 OpenMP threads

Minimization stats:
  Stopping criterion = energy tolerance
  Energy initial, next-to-last, final = 
     -1152449.44646513  -1152449.44816101  -1152449.44816101
  Force two-norm initial, final = 0.1915612 0.00021156683
  Force max component initial, final = 0.088717245 6.3686025e-06
  Final line search alpha, max atom move = 1.0000000 6.3686025e-06
  Iterations, force evaluations = 140 280

MPI task timing breakdown:
Section |  min time  |  avg time  |  max time  |%varavg| %total
---------------------------------------------------------------
Pair    | 0.42807    | 1.1752     | 1.5246     |  29.1 | 71.46
Neigh   | 0          | 0          | 0          |   0.0 |  0.00
Comm    | 0.029859   | 0.26309    | 0.79015    |  43.4 | 16.00
Output  | 0          | 0          | 0          |   0.0 |  0.00
Modify  | 1.6485e-05 | 0.0023118  | 0.0049164  |   2.3 |  0.14
Other   |            | 0.204      |            |       | 12.41

Nlocal:        2776.45 ave        3958 max           0 min
Histogram: 8 4 4 0 4 12 8 2 28 34
Nghost:        3879.01 ave        5424 max         232 min
Histogram: 8 0 8 0 16 0 8 8 16 40
Neighs:        79213.4 ave      115364 max           0 min
Histogram: 8 4 4 0 10 6 8 8 24 32

Total # of neighbors = 8238196
Ave neighs/atom = 28.530450
Neighbor list builds = 0
Dangerous builds = 0
The dot product: -5.28165768910095e-09
Setting atom values ...
  1 settings made for x
  1 settings made for y
  1 settings made for z
Setting up cg style minimization ...
  Unit style    : metal
  Current step  : 496
Per MPI rank memory allocation (min/avg/max) = 5.441 | 5.816 | 6.074 Mbytes
Step PotEng KinEng TotEng v_fx v_fy v_fz 
     496   -1152449.4            0   -1152449.4 -0.011921726 0.0087415704  0.000712746 
     704   -1152449.4            0   -1152449.4 7.5773634e-07 1.5753329e-06 9.1448157e-06 
Loop time of 2.42049 on 104 procs for 208 steps with 288751 atoms

99.9% CPU use with 104 MPI tasks x 1 OpenMP threads

Minimization stats:
  Stopping criterion = energy tolerance
  Energy initial, next-to-last, final = 
     -1152449.44295211  -1152449.44465865  -1152449.44465865
  Force two-norm initial, final = 0.19228055 3.4421100e-05
  Force max component initial, final = 0.088409566 9.1448157e-06
  Final line search alpha, max atom move = 1.0000000 9.1448157e-06
  Iterations, force evaluations = 208 416

MPI task timing breakdown:
Section |  min time  |  avg time  |  max time  |%varavg| %total
---------------------------------------------------------------
Pair    | 0.63133    | 1.7544     | 2.2853     |  35.8 | 72.48
Neigh   | 0          | 0          | 0          |   0.0 |  0.00
Comm    | 0.036324   | 0.39619    | 1.2023     |  53.1 | 16.37
Output  | 0          | 0          | 0          |   0.0 |  0.00
Modify  | 2.3572e-05 | 0.0034332  | 0.0073094  |   2.8 |  0.14
Other   |            | 0.2664     |            |       | 11.01

Nlocal:        2776.45 ave        3958 max           0 min
Histogram: 8 4 4 0 4 12 8 2 28 34
Nghost:        3879.01 ave        5424 max         232 min
Histogram: 8 0 8 0 16 0 8 8 16 40
Neighs:        79213.4 ave      115364 max           0 min
Histogram: 8 4 4 0 10 6 8 8 24 32

Total # of neighbors = 8238197
Ave neighs/atom = 28.530454
Neighbor list builds = 0
Dangerous builds = 0
The dot product: -1.00268373001815e-08
Setting atom values ...
  1 settings made for x
  1 settings made for y
  1 settings made for z
Setting up cg style minimization ...
  Unit style    : metal
  Current step  : 704
Per MPI rank memory allocation (min/avg/max) = 5.441 | 5.816 | 6.074 Mbytes
Step PotEng KinEng TotEng v_fx v_fy v_fz 
     704   -1152449.4            0   -1152449.4 -0.017533956  0.013663593 -3.3759111e-05 
     843   -1152449.4            0   -1152449.4 1.1553323e-06 -7.1585881e-08 3.9515349e-06 
Loop time of 1.60194 on 104 procs for 139 steps with 288751 atoms

99.9% CPU use with 104 MPI tasks x 1 OpenMP threads

Minimization stats:
  Stopping criterion = energy tolerance
  Energy initial, next-to-last, final = 
     -1152449.43805259  -1152449.43977403  -1152449.43977403
  Force two-norm initial, final = 0.19281018 6.4176720e-05
  Force max component initial, final = 0.087550672 4.5234293e-06
  Final line search alpha, max atom move = 1.0000000 4.5234293e-06
  Iterations, force evaluations = 139 278

MPI task timing breakdown:
Section |  min time  |  avg time  |  max time  |%varavg| %total
---------------------------------------------------------------
Pair    | 0.42199    | 1.163      | 1.5108     |  29.0 | 72.60
Neigh   | 0          | 0          | 0          |   0.0 |  0.00
Comm    | 0.027648   | 0.25818    | 0.78192    |  43.4 | 16.12
Output  | 0          | 0          | 0          |   0.0 |  0.00
Modify  | 1.6292e-05 | 0.0022921  | 0.0048975  |   2.3 |  0.14
Other   |            | 0.1785     |            |       | 11.14

Nlocal:        2776.45 ave        3956 max           0 min
Histogram: 8 4 4 0 4 12 8 0 30 34
Nghost:        3879.01 ave        5424 max         232 min
Histogram: 8 0 8 0 16 0 8 8 16 40
Neighs:        79213.4 ave      115304 max           0 min
Histogram: 8 4 4 0 10 6 8 8 24 32

Total # of neighbors = 8238196
Ave neighs/atom = 28.530450
Neighbor list builds = 0
Dangerous builds = 0
The dot product: -8.30931170547473e-09
Setting atom values ...
  1 settings made for x
  1 settings made for y
  1 settings made for z
Setting up cg style minimization ...
  Unit style    : metal
  Current step  : 843
Per MPI rank memory allocation (min/avg/max) = 5.441 | 5.816 | 6.074 Mbytes
Step PotEng KinEng TotEng v_fx v_fy v_fz 
     843   -1152449.4            0   -1152449.4 -0.018135394   0.01603911  0.001873491 
     990   -1152449.4            0   -1152449.4 -2.8023975e-06 -3.5082286e-06 -3.0307583e-05 
Loop time of 1.70028 on 104 procs for 147 steps with 288751 atoms

99.9% CPU use with 104 MPI tasks x 1 OpenMP threads

Minimization stats:
  Stopping criterion = energy tolerance
  Energy initial, next-to-last, final = 
     -1152449.43189565   -1152449.4336123   -1152449.4336123
  Force two-norm initial, final = 0.19220033 7.3608821e-05
  Force max component initial, final = 0.086452545 3.0307583e-05
  Final line search alpha, max atom move = 1.0000000 3.0307583e-05
  Iterations, force evaluations = 147 294

MPI task timing breakdown:
Section |  min time  |  avg time  |  max time  |%varavg| %total
---------------------------------------------------------------
Pair    | 0.44687    | 1.2376     | 1.6038     |  30.0 | 72.79
Neigh   | 0          | 0          | 0          |   0.0 |  0.00
Comm    | 0.029293   | 0.27406    | 0.8297     |  44.8 | 16.12
Output  | 0          | 0          | 0          |   0.0 |  0.00
Modify  | 1.7466e-05 | 0.0024306  | 0.005165   |   2.3 |  0.14
Other   |            | 0.1862     |            |       | 10.95

Nlocal:        2776.45 ave        3956 max           0 min
Histogram: 8 4 4 0 4 12 8 0 30 34
Nghost:        3879.01 ave        5424 max         232 min
Histogram: 8 0 8 0 16 0 8 8 16 40
Neighs:        79213.4 ave      115304 max           0 min
Histogram: 8 4 4 0 10 6 8 8 24 32

Total # of neighbors = 8238198
Ave neighs/atom = 28.530457
Neighbor list builds = 0
Dangerous builds = 0
The dot product: 2.37904974048359e-08
Setting atom values ...
  1 settings made for x
  1 settings made for y
  1 settings made for z
Setting up cg style minimization ...
  Unit style    : metal
  Current step  : 990
Per MPI rank memory allocation (min/avg/max) = 5.441 | 5.816 | 6.074 Mbytes
Step PotEng KinEng TotEng v_fx v_fy v_fz 
     990   -1152449.4            0   -1152449.4 -0.015952491  0.015756846  0.004756443 
    1000   -1152449.4            0   -1152449.4 0.00022429514 -6.4894862e-05 0.00075710543 
    1109   -1152449.4            0   -1152449.4 -3.0440228e-06 -6.4936208e-06 -4.9064369e-05 
Loop time of 1.3854 on 104 procs for 119 steps with 288751 atoms

99.9% CPU use with 104 MPI tasks x 1 OpenMP threads

Minimization stats:
  Stopping criterion = energy tolerance
  Energy initial, next-to-last, final = 
     -1152449.42448888  -1152449.42618255  -1152449.42618255
  Force two-norm initial, final = 0.19083883 0.00014857927
  Force max component initial, final = 0.085869185 4.9064369e-05
  Final line search alpha, max atom move = 1.0000000 4.9064369e-05
  Iterations, force evaluations = 119 238

MPI task timing breakdown:
Section |  min time  |  avg time  |  max time  |%varavg| %total
---------------------------------------------------------------
Pair    | 0.36227    | 0.99825    | 1.2987     |  27.0 | 72.05
Neigh   | 0          | 0          | 0          |   0.0 |  0.00
Comm    | 0.02192    | 0.22207    | 0.67157    |  40.0 | 16.03
Output  | 0.00015089 | 0.00015339 | 0.00022501 |   0.0 |  0.01
Modify  | 1.3928e-05 | 0.0019675  | 0.004196   |   2.1 |  0.14
Other   |            | 0.163      |            |       | 11.76

Nlocal:        2776.45 ave        3954 max           0 min
Histogram: 8 4 4 0 4 12 8 0 30 34
Nghost:        3879.01 ave        5424 max         232 min
Histogram: 8 0 8 0 16 0 8 8 16 40
Neighs:        79213.4 ave      115238 max           0 min
Histogram: 8 4 4 0 10 6 8 8 24 32

Total # of neighbors = 8238198
Ave neighs/atom = 28.530457
Neighbor list builds = 0
Dangerous builds = 0
The dot product: 1.56820887342532e-09
Setting atom values ...
  1 settings made for x
  1 settings made for y
  1 settings made for z
Setting up cg style minimization ...
  Unit style    : metal
  Current step  : 1109
Per MPI rank memory allocation (min/avg/max) = 5.441 | 5.816 | 6.074 Mbytes
Step PotEng KinEng TotEng v_fx v_fy v_fz 
    1109   -1152449.4            0   -1152449.4 -0.012808183  0.013892909  0.007592747 
    1210   -1152449.4            0   -1152449.4 -5.0927191e-06 -5.9840412e-06 -5.6863807e-05 
Loop time of 1.17174 on 104 procs for 101 steps with 288751 atoms

99.9% CPU use with 104 MPI tasks x 1 OpenMP threads

Minimization stats:
  Stopping criterion = energy tolerance
  Energy initial, next-to-last, final = 
     -1152449.41577589  -1152449.41744846  -1152449.41744846
  Force two-norm initial, final = 0.1893167 0.00026965291
  Force max component initial, final = 0.086079224 5.6863807e-05
  Final line search alpha, max atom move = 1.0000000 5.6863807e-05
  Iterations, force evaluations = 101 202

MPI task timing breakdown:
Section |  min time  |  avg time  |  max time  |%varavg| %total
---------------------------------------------------------------
Pair    | 0.30789    | 0.85097    | 1.1036     |  24.8 | 72.62
Neigh   | 0          | 0          | 0          |   0.0 |  0.00
Comm    | 0.022208   | 0.18842    | 0.57201    |  37.2 | 16.08
Output  | 0          | 0          | 0          |   0.0 |  0.00
Modify  | 1.1811e-05 | 0.0016724  | 0.0035539  |   1.9 |  0.14
Other   |            | 0.1307     |            |       | 11.15

Nlocal:        2776.45 ave        3953 max           0 min
Histogram: 8 4 4 0 4 12 8 1 29 34
Nghost:        3879.01 ave        5424 max         232 min
Histogram: 8 0 8 0 16 0 8 8 16 40
Neighs:        79213.5 ave      115202 max           0 min
Histogram: 8 4 4 0 10 6 8 8 24 32

Total # of neighbors = 8238202
Ave neighs/atom = 28.530471
Neighbor list builds = 0
Dangerous builds = 0
The dot product: -3.56869300552864e-08
Setting atom values ...
  1 settings made for x
  1 settings made for y
  1 settings made for z
Setting up cg style minimization ...
  Unit style    : metal
  Current step  : 1210
Per MPI rank memory allocation (min/avg/max) = 5.441 | 5.816 | 6.074 Mbytes
Step PotEng KinEng TotEng v_fx v_fy v_fz 
    1210   -1152449.4            0   -1152449.4 -0.0093364279  0.011242405  0.010096715 
    1374   -1152449.4            0   -1152449.4 -2.1702938e-07 4.6533245e-06 2.2150771e-05 
Loop time of 1.88488 on 104 procs for 164 steps with 288751 atoms

99.9% CPU use with 104 MPI tasks x 1 OpenMP threads

Minimization stats:
  Stopping criterion = energy tolerance
  Energy initial, next-to-last, final = 
     -1152449.40572351  -1152449.40739174  -1152449.40739174
  Force two-norm initial, final = 0.18789244 0.00016967069
  Force max component initial, final = 0.086966355 2.2150771e-05
  Final line search alpha, max atom move = 1.0000000 2.2150771e-05
  Iterations, force evaluations = 164 328

MPI task timing breakdown:
Section |  min time  |  avg time  |  max time  |%varavg| %total
---------------------------------------------------------------
Pair    | 0.49773    | 1.3735     | 1.7846     |  31.6 | 72.87
Neigh   | 0          | 0          | 0          |   0.0 |  0.00
Comm    | 0.030078   | 0.30373    | 0.9219     |  47.3 | 16.11
Output  | 0          | 0          | 0          |   0.0 |  0.00
Modify  | 1.8968e-05 | 0.0027077  | 0.0057468  |   2.5 |  0.14
Other   |            | 0.2049     |            |       | 10.87

Nlocal:        2776.45 ave        3951 max           0 min
Histogram: 8 4 4 0 4 12 8 1 29 34
Nghost:        3879.01 ave        5424 max         232 min
Histogram: 8 0 8 0 16 0 8 8 16 40
Neighs:        79213.5 ave      115129 max           0 min
Histogram: 8 4 4 0 10 6 8 8 24 32

Total # of neighbors = 8238206
Ave neighs/atom = 28.530485
Neighbor list builds = 0
Dangerous builds = 0
The dot product: 3.3786286307317e-08
Setting atom values ...
  1 settings made for x
  1 settings made for y
  1 settings made for z
Setting up cg style minimization ...
  Unit style    : metal
  Current step  : 1374
Per MPI rank memory allocation (min/avg/max) = 5.441 | 5.816 | 6.074 Mbytes
Step PotEng KinEng TotEng v_fx v_fy v_fz 
    1374   -1152449.4            0   -1152449.4 -0.005695273 0.0083492845  0.012734984 
    1594   -1152449.4            0   -1152449.4 -1.5346899e-07 -8.9492404e-07 -4.8744998e-06 
Loop time of 2.56312 on 104 procs for 220 steps with 288751 atoms

99.9% CPU use with 104 MPI tasks x 1 OpenMP threads

Minimization stats:
  Stopping criterion = energy tolerance
  Energy initial, next-to-last, final = 
      -1152449.3943393  -1152449.39603353  -1152449.39603353
  Force two-norm initial, final = 0.18662934 2.9217629e-05
  Force max component initial, final = 0.088499376 7.4642692e-06
  Final line search alpha, max atom move = 1.0000000 7.4642692e-06
  Iterations, force evaluations = 220 440

MPI task timing breakdown:
Section |  min time  |  avg time  |  max time  |%varavg| %total
---------------------------------------------------------------
Pair    | 0.66717    | 1.8546     | 2.4084     |  36.7 | 72.36
Neigh   | 0          | 0          | 0          |   0.0 |  0.00
Comm    | 0.041666   | 0.41839    | 1.2659     |  54.4 | 16.32
Output  | 0          | 0          | 0          |   0.0 |  0.00
Modify  | 2.5528e-05 | 0.0036321  | 0.0077352  |   2.8 |  0.14
Other   |            | 0.2865     |            |       | 11.18

Nlocal:        2776.45 ave        3951 max           0 min
Histogram: 8 4 4 0 4 12 8 2 28 34
Nghost:        3878.99 ave        5424 max         232 min
Histogram: 8 0 8 0 16 0 8 8 16 40
Neighs:        79213.5 ave      115129 max           0 min
Histogram: 8 4 4 0 10 6 8 8 24 32

Total # of neighbors = 8238204
Ave neighs/atom = 28.530478
Neighbor list builds = 0
Dangerous builds = 0
The dot product: -1.48164446328047e-08
Setting atom values ...
  1 settings made for x
  1 settings made for y
  1 settings made for z
Setting up cg style minimization ...
  Unit style    : metal
  Current step  : 1594
Per MPI rank memory allocation (min/avg/max) = 5.441 | 5.816 | 6.074 Mbytes
Step PotEng KinEng TotEng v_fx v_fy v_fz 
    1594   -1152449.4            0   -1152449.4 -0.0013958408 0.0054066463  0.016953256 
    1779   -1152449.4            0   -1152449.4 -2.7208436e-08 -3.3019584e-06 -1.392294e-05 
Loop time of 2.13219 on 104 procs for 185 steps with 288751 atoms

99.9% CPU use with 104 MPI tasks x 1 OpenMP threads

Minimization stats:
  Stopping criterion = energy tolerance
  Energy initial, next-to-last, final = 
     -1152449.38171465  -1152449.38356338  -1152449.38356338
  Force two-norm initial, final = 0.185372 0.00011234668
  Force max component initial, final = 0.090743769 1.3922940e-05
  Final line search alpha, max atom move = 1.0000000 1.3922940e-05
  Iterations, force evaluations = 185 370

MPI task timing breakdown:
Section |  min time  |  avg time  |  max time  |%varavg| %total
---------------------------------------------------------------
Pair    | 0.56086    | 1.5524     | 2.018      |  33.7 | 72.81
Neigh   | 0          | 0          | 0          |   0.0 |  0.00
Comm    | 0.035791   | 0.3441     | 1.0469     |  50.3 | 16.14
Output  | 0          | 0          | 0          |   0.0 |  0.00
Modify  | 2.1086e-05 | 0.0030511  | 0.0064853  |   2.6 |  0.14
Other   |            | 0.2327     |            |       | 10.91

Nlocal:        2776.45 ave        3949 max           0 min
Histogram: 8 4 4 0 4 12 8 2 26 36
Nghost:        3879.03 ave        5424 max         232 min
Histogram: 8 0 8 0 16 0 8 8 16 40
Neighs:        79213.5 ave      115048 max           0 min
Histogram: 8 4 4 0 10 6 8 8 24 32

Total # of neighbors = 8238203
Ave neighs/atom = 28.530474
Neighbor list builds = 0
Dangerous builds = 0
The dot product: -8.50843135295314e-08
Setting atom values ...
  1 settings made for x
  1 settings made for y
  1 settings made for z
Setting up cg style minimization ...
  Unit style    : metal
  Current step  : 1779
Per MPI rank memory allocation (min/avg/max) = 5.441 | 5.816 | 6.074 Mbytes
Step PotEng KinEng TotEng v_fx v_fy v_fz 
    1779   -1152449.4            0   -1152449.4 0.0044497228 0.0029831606  0.025286456 
    1977   -1152449.4            0   -1152449.4 1.7135966e-06 3.7716973e-06 1.8989688e-05 
Loop time of 2.30174 on 104 procs for 198 steps with 288751 atoms

99.9% CPU use with 104 MPI tasks x 1 OpenMP threads

Minimization stats:
  Stopping criterion = energy tolerance
  Energy initial, next-to-last, final = 
     -1152449.36816332  -1152449.37002777  -1152449.37002777
  Force two-norm initial, final = 0.18425703 8.6530426e-05
  Force max component initial, final = 0.093958515 1.8989688e-05
  Final line search alpha, max atom move = 1.0000000 1.8989688e-05
  Iterations, force evaluations = 198 396

MPI task timing breakdown:
Section |  min time  |  avg time  |  max time  |%varavg| %total
---------------------------------------------------------------
Pair    | 0.60155    | 1.6666     | 2.1626     |  34.8 | 72.40
Neigh   | 0          | 0          | 0          |   0.0 |  0.00
Comm    | 0.034302   | 0.37356    | 1.1227     |  51.7 | 16.23
Output  | 0          | 0          | 0          |   0.0 |  0.00
Modify  | 2.3197e-05 | 0.00327    | 0.0069932  |   2.7 |  0.14
Other   |            | 0.2583     |            |       | 11.22

Nlocal:        2776.45 ave        3948 max           0 min
Histogram: 8 4 4 0 4 12 8 2 26 36
Nghost:        3879.01 ave        5424 max         232 min
Histogram: 8 0 8 0 16 0 8 8 16 40
Neighs:        79213.5 ave      115027 max           0 min
Histogram: 8 4 4 0 10 6 8 8 24 32

Total # of neighbors = 8238205
Ave neighs/atom = 28.530481
Neighbor list builds = 0
Dangerous builds = 0
The dot product: 1.58013266448016e-07
Setting atom values ...
  1 settings made for x
  1 settings made for y
  1 settings made for z
Setting up cg style minimization ...
  Unit style    : metal
  Current step  : 1977
Per MPI rank memory allocation (min/avg/max) = 5.441 | 5.816 | 6.074 Mbytes
Step PotEng KinEng TotEng v_fx v_fy v_fz 
    1977   -1152449.4            0   -1152449.4 0.0080564785 0.0019853109  0.027753006 
    2000   -1152449.4            0   -1152449.4 -0.00024921148 -0.00024377821 -0.0014030077 
    2153   -1152449.4            0   -1152449.4 6.0913383e-06 8.3275105e-06 4.136639e-05 
Loop time of 2.03115 on 104 procs for 176 steps with 288751 atoms

99.9% CPU use with 104 MPI tasks x 1 OpenMP threads

Minimization stats:
  Stopping criterion = energy tolerance
  Energy initial, next-to-last, final = 
     -1152449.35355047  -1152449.35549774  -1152449.35549774
  Force two-norm initial, final = 0.18290898 0.00021192523
  Force max component initial, final = 0.097953369 4.1366390e-05
  Final line search alpha, max atom move = 1.0000000 4.1366390e-05
  Iterations, force evaluations = 176 352

MPI task timing breakdown:
Section |  min time  |  avg time  |  max time  |%varavg| %total
---------------------------------------------------------------
Pair    | 0.5323     | 1.4722     | 1.9179     |  32.7 | 72.48
Neigh   | 0          | 0          | 0          |   0.0 |  0.00
Comm    | 0.031373   | 0.32649    | 0.98994    |  48.8 | 16.07
Output  | 0.00010676 | 0.00010924 | 0.00018529 |   0.0 |  0.01
Modify  | 2.0217e-05 | 0.0029026  | 0.0061773  |   2.5 |  0.14
Other   |            | 0.2294     |            |       | 11.29

Nlocal:        2776.45 ave        3946 max           0 min
Histogram: 8 4 4 0 4 12 8 2 26 36
Nghost:        3879.05 ave        5424 max         232 min
Histogram: 8 0 8 0 16 0 8 8 16 40
Neighs:        79213.5 ave      114958 max           0 min
Histogram: 8 4 4 0 10 6 8 8 24 32

Total # of neighbors = 8238203
Ave neighs/atom = 28.530474
Neighbor list builds = 0
Dangerous builds = 0
The dot product: 3.93571176533105e-07
Setting atom values ...
  1 settings made for x
  1 settings made for y
  1 settings made for z
Setting up cg style minimization ...
  Unit style    : metal
  Current step  : 2153
Per MPI rank memory allocation (min/avg/max) = 5.441 | 5.816 | 6.074 Mbytes
Step PotEng KinEng TotEng v_fx v_fy v_fz 
    2153   -1152449.3            0   -1152449.3 0.0098054224 0.0017909526  0.026818286 
    2352   -1152449.3            0   -1152449.3 -5.9679897e-06 -6.2552305e-06 -2.968093e-05 
Loop time of 2.29319 on 104 procs for 199 steps with 288751 atoms

99.9% CPU use with 104 MPI tasks x 1 OpenMP threads

Minimization stats:
  Stopping criterion = energy tolerance
  Energy initial, next-to-last, final = 
     -1152449.33794257  -1152449.33978305  -1152449.33978305
  Force two-norm initial, final = 0.18117198 0.00010965306
  Force max component initial, final = 0.10200902 3.0471403e-05
  Final line search alpha, max atom move = 1.0000000 3.0471403e-05
  Iterations, force evaluations = 199 398

MPI task timing breakdown:
Section |  min time  |  avg time  |  max time  |%varavg| %total
---------------------------------------------------------------
Pair    | 0.60124    | 1.6718     | 2.1662     |  34.9 | 72.90
Neigh   | 0          | 0          | 0          |   0.0 |  0.00
Comm    | 0.036795   | 0.37003    | 1.1297     |  52.3 | 16.14
Output  | 0          | 0          | 0          |   0.0 |  0.00
Modify  | 2.2792e-05 | 0.0032875  | 0.0069882  |   2.7 |  0.14
Other   |            | 0.2481     |            |       | 10.82

Nlocal:        2776.45 ave        3945 max           0 min
Histogram: 8 4 4 0 4 12 8 2 26 36
Nghost:        3879.07 ave        5424 max         232 min
Histogram: 8 0 8 0 16 0 8 8 16 40
Neighs:        79213.5 ave      114935 max           0 min
Histogram: 8 4 4 0 10 6 8 8 22 34

Total # of neighbors = 8238207
Ave neighs/atom = 28.530488
Neighbor list builds = 0
Dangerous builds = 0
The dot product: -2.62951438371804e-07
Setting atom values ...
  1 settings made for x
  1 settings made for y
  1 settings made for z
Setting up cg style minimization ...
  Unit style    : metal
  Current step  : 2352
Per MPI rank memory allocation (min/avg/max) = 5.441 | 5.816 | 6.074 Mbytes
Step PotEng KinEng TotEng v_fx v_fy v_fz 
    2352   -1152449.3            0   -1152449.3 0.0085527341 0.0017785198  0.021028773 
    2537   -1152449.3            0   -1152449.3 7.0709629e-06 6.5031519e-06 2.9099031e-05 
Loop time of 2.12768 on 104 procs for 185 steps with 288751 atoms

99.9% CPU use with 104 MPI tasks x 1 OpenMP threads

Minimization stats:
  Stopping criterion = energy tolerance
  Energy initial, next-to-last, final = 
     -1152449.32099597  -1152449.32276987  -1152449.32276987
  Force two-norm initial, final = 0.17904769 0.00014105756
  Force max component initial, final = 0.10574712 2.9099031e-05
  Final line search alpha, max atom move = 1.0000000 2.9099031e-05
  Iterations, force evaluations = 185 370

MPI task timing breakdown:
Section |  min time  |  avg time  |  max time  |%varavg| %total
---------------------------------------------------------------
Pair    | 0.56296    | 1.5485     | 2.0127     |  33.5 | 72.78
Neigh   | 0          | 0          | 0          |   0.0 |  0.00
Comm    | 0.036626   | 0.34406    | 1.0403     |  50.1 | 16.17
Output  | 0          | 0          | 0          |   0.0 |  0.00
Modify  | 2.1303e-05 | 0.0030484  | 0.0065137  |   2.6 |  0.14
Other   |            | 0.2321     |            |       | 10.91

Nlocal:        2776.45 ave        3943 max           0 min
Histogram: 8 4 4 0 4 12 8 2 26 36
Nghost:        3879.07 ave        5424 max         232 min
Histogram: 8 0 8 0 16 0 8 8 16 40
Neighs:        79213.6 ave      114890 max           0 min
Histogram: 8 4 4 0 10 6 8 8 22 34

Total # of neighbors = 8238210
Ave neighs/atom = 28.530499
Neighbor list builds = 0
Dangerous builds = 0
The dot product: 2.34858627025881e-07
Setting atom values ...
  1 settings made for x
  1 settings made for y
  1 settings made for z
Setting up cg style minimization ...
  Unit style    : metal
  Current step  : 2537
Per MPI rank memory allocation (min/avg/max) = 5.441 | 5.816 | 6.074 Mbytes
Step PotEng KinEng TotEng v_fx v_fy v_fz 
    2537   -1152449.3            0   -1152449.3  0.006838996  0.001879256  0.016203423 
    2769   -1152449.3            0   -1152449.3 -1.4015894e-06 -9.827649e-07 -4.6049105e-06 
Loop time of 2.67127 on 104 procs for 232 steps with 288751 atoms

99.9% CPU use with 104 MPI tasks x 1 OpenMP threads

Minimization stats:
  Stopping criterion = energy tolerance
  Energy initial, next-to-last, final = 
     -1152449.30270331  -1152449.30445389  -1152449.30445389
  Force two-norm initial, final = 0.17735884 2.7458628e-05
  Force max component initial, final = 0.10894685 7.3975845e-06
  Final line search alpha, max atom move = 1.0000000 7.3975845e-06
  Iterations, force evaluations = 232 464

MPI task timing breakdown:
Section |  min time  |  avg time  |  max time  |%varavg| %total
---------------------------------------------------------------
Pair    | 0.70258    | 1.9484     | 2.526      |  37.6 | 72.94
Neigh   | 0          | 0          | 0          |   0.0 |  0.00
Comm    | 0.04152    | 0.4322     | 1.3206     |  56.3 | 16.18
Output  | 0          | 0          | 0          |   0.0 |  0.00
Modify  | 2.6573e-05 | 0.0038266  | 0.0081553  |   2.9 |  0.14
Other   |            | 0.2869     |            |       | 10.74

Nlocal:        2776.45 ave        3940 max           0 min
Histogram: 8 4 4 0 4 12 8 2 26 36
Nghost:        3879.07 ave        5424 max         232 min
Histogram: 8 0 8 0 16 0 8 8 16 40
Neighs:        79213.6 ave      114819 max           0 min
Histogram: 8 4 4 0 10 6 8 8 22 34

Total # of neighbors = 8238211
Ave neighs/atom = 28.530502
Neighbor list builds = 0
Dangerous builds = 0
The dot product: -3.66806357229066e-08
Setting atom values ...
  1 settings made for x
  1 settings made for y
  1 settings made for z
Setting up cg style minimization ...
  Unit style    : metal
  Current step  : 2769
Per MPI rank memory allocation (min/avg/max) = 5.441 | 5.816 | 6.074 Mbytes
Step PotEng KinEng TotEng v_fx v_fy v_fz 
    2769   -1152449.3            0   -1152449.3 0.0060160617 0.0020743046  0.013970739 
    2952   -1152449.3            0   -1152449.3 -1.5108849e-06 -1.2004196e-05 -2.6573669e-05 
Loop time of 2.12473 on 104 procs for 183 steps with 288751 atoms

99.9% CPU use with 104 MPI tasks x 1 OpenMP threads

Minimization stats:
  Stopping criterion = energy tolerance
  Energy initial, next-to-last, final = 
      -1152449.2831255  -1152449.28491074  -1152449.28491074
  Force two-norm initial, final = 0.17604849 0.00017096717
  Force max component initial, final = 0.11175831 3.8179778e-05
  Final line search alpha, max atom move = 1.0000000 3.8179778e-05
  Iterations, force evaluations = 183 366

MPI task timing breakdown:
Section |  min time  |  avg time  |  max time  |%varavg| %total
---------------------------------------------------------------
Pair    | 0.55344    | 1.5308     | 1.9886     |  33.3 | 72.05
Neigh   | 0          | 0          | 0          |   0.0 |  0.00
Comm    | 0.034595   | 0.34118    | 1.0336     |  49.6 | 16.06
Output  | 0          | 0          | 0          |   0.0 |  0.00
Modify  | 2.1047e-05 | 0.003016   | 0.0064229  |   2.6 |  0.14
Other   |            | 0.2497     |            |       | 11.75

Nlocal:        2776.45 ave        3940 max           0 min
Histogram: 8 4 4 0 4 12 8 2 26 36
Nghost:        3879.10 ave        5424 max         232 min
Histogram: 8 0 8 0 16 0 8 8 16 40
Neighs:        79213.6 ave      114820 max           0 min
Histogram: 8 4 4 0 10 6 8 8 22 34

Total # of neighbors = 8238215
Ave neighs/atom = 28.530516
Neighbor list builds = 0
Dangerous builds = 0
The dot product: -2.05007337691892e-07
Setting atom values ...
  1 settings made for x
  1 settings made for y
  1 settings made for z
Setting up cg style minimization ...
  Unit style    : metal
  Current step  : 2952
Per MPI rank memory allocation (min/avg/max) = 5.441 | 5.816 | 6.074 Mbytes
Step PotEng KinEng TotEng v_fx v_fy v_fz 
    2952   -1152449.3            0   -1152449.3  0.006524688 0.0025241656  0.014544878 
    3000   -1152449.3            0   -1152449.3 -3.6981862e-05 -5.7443588e-05 -0.00016365529 
    3147   -1152449.3            0   -1152449.3 7.8908083e-06 1.3172093e-05 3.6642486e-05 
Loop time of 2.27733 on 104 procs for 195 steps with 288751 atoms

99.9% CPU use with 104 MPI tasks x 1 OpenMP threads

Minimization stats:
  Stopping criterion = energy tolerance
  Energy initial, next-to-last, final = 
     -1152449.26240277  -1152449.26418233  -1152449.26418233
  Force two-norm initial, final = 0.17499724 0.00011547566
  Force max component initial, final = 0.11435931 3.6642486e-05
  Final line search alpha, max atom move = 1.0000000 3.6642486e-05
  Iterations, force evaluations = 195 390

MPI task timing breakdown:
Section |  min time  |  avg time  |  max time  |%varavg| %total
---------------------------------------------------------------
Pair    | 0.59036    | 1.6492     | 2.1367     |  34.6 | 72.42
Neigh   | 0          | 0          | 0          |   0.0 |  0.00
Comm    | 0.034734   | 0.36985    | 1.1142     |  51.2 | 16.24
Output  | 9.4927e-05 | 0.00010189 | 0.00019947 |   0.0 |  0.00
Modify  | 2.234e-05  | 0.0032184  | 0.006861   |   2.7 |  0.14
Other   |            | 0.255      |            |       | 11.20

Nlocal:        2776.45 ave        3940 max           0 min
Histogram: 8 4 4 0 4 12 8 2 26 36
Nghost:        3879.12 ave        5424 max         232 min
Histogram: 8 0 8 0 16 0 8 8 16 40
Neighs:        79213.6 ave      114819 max           0 min
Histogram: 8 4 4 0 10 6 8 8 22 34

Total # of neighbors = 8238215
Ave neighs/atom = 28.530516
Neighbor list builds = 0
Dangerous builds = 0
The dot product: 3.17299687625185e-07
Setting atom values ...
  1 settings made for x
  1 settings made for y
  1 settings made for z
Setting up cg style minimization ...
  Unit style    : metal
  Current step  : 3147
Per MPI rank memory allocation (min/avg/max) = 5.441 | 5.816 | 6.074 Mbytes
Step PotEng KinEng TotEng v_fx v_fy v_fz 
    3147   -1152449.2            0   -1152449.2 0.0074139745  0.002739412  0.015154807 
    3324   -1152449.2            0   -1152449.2 6.9852142e-06 1.5247498e-05 3.6717095e-05 
Loop time of 2.04426 on 104 procs for 177 steps with 288751 atoms

99.9% CPU use with 104 MPI tasks x 1 OpenMP threads

Minimization stats:
  Stopping criterion = energy tolerance
  Energy initial, next-to-last, final = 
     -1152449.24048281  -1152449.24228739  -1152449.24228739
  Force two-norm initial, final = 0.17414499 0.00019818775
  Force max component initial, final = 0.11690649 3.6717095e-05
  Final line search alpha, max atom move = 1.0000000 3.6717095e-05
  Iterations, force evaluations = 177 354

MPI task timing breakdown:
Section |  min time  |  avg time  |  max time  |%varavg| %total
---------------------------------------------------------------
Pair    | 0.53784    | 1.4855     | 1.9294     |  32.9 | 72.67
Neigh   | 0          | 0          | 0          |   0.0 |  0.00
Comm    | 0.031674   | 0.33046    | 1.0004     |  49.1 | 16.17
Output  | 0          | 0          | 0          |   0.0 |  0.00
Modify  | 2.0432e-05 | 0.0029175  | 0.0061988  |   2.6 |  0.14
Other   |            | 0.2254     |            |       | 11.03

Nlocal:        2776.45 ave        3940 max           0 min
Histogram: 8 4 4 0 4 12 8 2 26 36
Nghost:        3879.12 ave        5424 max         232 min
Histogram: 8 0 8 0 16 0 8 8 16 40
Neighs:        79213.6 ave      114818 max           0 min
Histogram: 8 4 4 0 10 6 8 8 22 34

Total # of neighbors = 8238215
Ave neighs/atom = 28.530516
Neighbor list builds = 0
Dangerous builds = 0
The dot product: 3.52153397107893e-07
Setting atom values ...
  1 settings made for x
  1 settings made for y
  1 settings made for z
Setting up cg style minimization ...
  Unit style    : metal
  Current step  : 3324
Per MPI rank memory allocation (min/avg/max) = 5.441 | 5.816 | 6.074 Mbytes
Step PotEng KinEng TotEng v_fx v_fy v_fz 
    3324   -1152449.2            0   -1152449.2 0.0099688602  0.002876414  0.017608871 
    3495   -1152449.2            0   -1152449.2 -7.2705428e-06 -2.4987067e-05 -5.0999317e-05 
Loop time of 2.00507 on 104 procs for 171 steps with 288751 atoms

99.9% CPU use with 104 MPI tasks x 1 OpenMP threads

Minimization stats:
  Stopping criterion = energy tolerance
  Energy initial, next-to-last, final = 
      -1152449.2174669  -1152449.21945291  -1152449.21945291
  Force two-norm initial, final = 0.17367766 0.00022049307
  Force max component initial, final = 0.11947726 5.0999317e-05
  Final line search alpha, max atom move = 1.0000000 5.0999317e-05
  Iterations, force evaluations = 171 342

MPI task timing breakdown:
Section |  min time  |  avg time  |  max time  |%varavg| %total
---------------------------------------------------------------
Pair    | 0.51683    | 1.4463     | 1.8751     |  32.4 | 72.13
Neigh   | 0          | 0          | 0          |   0.0 |  0.00
Comm    | 0.030084   | 0.32793    | 0.98087    |  47.7 | 16.35
Output  | 0          | 0          | 0          |   0.0 |  0.00
Modify  | 1.9838e-05 | 0.0028185  | 0.0060154  |   2.5 |  0.14
Other   |            | 0.228      |            |       | 11.37

Nlocal:        2776.45 ave        3939 max           0 min
Histogram: 8 4 4 0 4 12 8 2 26 36
Nghost:        3879.12 ave        5424 max         232 min
Histogram: 8 0 8 0 16 0 8 8 16 40
Neighs:        79213.6 ave      114778 max           0 min
Histogram: 8 4 4 0 10 6 8 8 22 34

Total # of neighbors = 8238212
Ave neighs/atom = 28.530506
Neighbor list builds = 0
Dangerous builds = 0
The dot product: -6.35661192498647e-07
Setting atom values ...
  1 settings made for x
  1 settings made for y
  1 settings made for z
Setting up cg style minimization ...
  Unit style    : metal
  Current step  : 3495
Per MPI rank memory allocation (min/avg/max) = 5.441 | 5.816 | 6.074 Mbytes
Step PotEng KinEng TotEng v_fx v_fy v_fz 
    3495   -1152449.2            0   -1152449.2   0.01643385 0.0036209855   0.02482448 
    3675   -1152449.2            0   -1152449.2 2.1971333e-06 -1.2891431e-06 5.6625724e-07 
Loop time of 2.0722 on 104 procs for 180 steps with 288751 atoms

99.9% CPU use with 104 MPI tasks x 1 OpenMP threads

Minimization stats:
  Stopping criterion = energy tolerance
  Energy initial, next-to-last, final = 
     -1152449.19382193  -1152449.19600559  -1152449.19600559
  Force two-norm initial, final = 0.17402505 0.00015281037
  Force max component initial, final = 0.12199184 1.7225764e-05
  Final line search alpha, max atom move = 1.0000000 1.7225764e-05
  Iterations, force evaluations = 180 360

MPI task timing breakdown:
Section |  min time  |  avg time  |  max time  |%varavg| %total
---------------------------------------------------------------
Pair    | 0.54663    | 1.5123     | 1.9635     |  33.2 | 72.98
Neigh   | 0          | 0          | 0          |   0.0 |  0.00
Comm    | 0.031817   | 0.33673    | 1.0231     |  49.6 | 16.25
Output  | 0          | 0          | 0          |   0.0 |  0.00
Modify  | 2.0521e-05 | 0.002971   | 0.006334   |   2.6 |  0.14
Other   |            | 0.2202     |            |       | 10.63

Nlocal:        2776.45 ave        3939 max           0 min
Histogram: 8 4 4 0 4 12 8 2 26 36
Nghost:        3879.09 ave        5424 max         232 min
Histogram: 8 0 8 0 16 0 8 8 16 40
Neighs:        79213.6 ave      114778 max           0 min
Histogram: 8 4 4 0 10 6 8 8 22 34

Total # of neighbors = 8238212
Ave neighs/atom = 28.530506
Neighbor list builds = 0
Dangerous builds = 0
The dot product: 2.20061011178373e-08
Setting atom values ...
  1 settings made for x
  1 settings made for y
  1 settings made for z
Setting up cg style minimization ...
  Unit style    : metal
  Current step  : 3675
Per MPI rank memory allocation (min/avg/max) = 5.441 | 5.816 | 6.074 Mbytes
Step PotEng KinEng TotEng v_fx v_fy v_fz 
    3675   -1152449.2            0   -1152449.2  0.021983441 0.0047283961  0.029863776 
    3846   -1152449.2            0   -1152449.2 -1.1767406e-06 -1.4872206e-05 -2.2613277e-05 
Loop time of 1.96844 on 104 procs for 171 steps with 288751 atoms

99.9% CPU use with 104 MPI tasks x 1 OpenMP threads

Minimization stats:
  Stopping criterion = energy tolerance
  Energy initial, next-to-last, final = 
     -1152449.16972183  -1152449.17185289  -1152449.17185289
  Force two-norm initial, final = 0.17453807 0.0001838871
  Force max component initial, final = 0.12451181 2.4474453e-05
  Final line search alpha, max atom move = 1.0000000 2.4474453e-05
  Iterations, force evaluations = 171 342

MPI task timing breakdown:
Section |  min time  |  avg time  |  max time  |%varavg| %total
---------------------------------------------------------------
Pair    | 0.51699    | 1.4346     | 1.8585     |  32.3 | 72.88
Neigh   | 0          | 0          | 0          |   0.0 |  0.00
Comm    | 0.036686   | 0.31778    | 0.96227    |  48.3 | 16.14
Output  | 0          | 0          | 0          |   0.0 |  0.00
Modify  | 1.9728e-05 | 0.002821   | 0.0060063  |   2.5 |  0.14
Other   |            | 0.2133     |            |       | 10.84

Nlocal:        2776.45 ave        3939 max           0 min
Histogram: 8 4 4 0 4 12 8 2 26 36
Nghost:        3879.12 ave        5425 max         232 min
Histogram: 8 0 8 0 16 0 8 8 16 40
Neighs:        79213.6 ave      114775 max           0 min
Histogram: 8 4 4 0 10 6 8 8 22 34

Total # of neighbors = 8238216
Ave neighs/atom = 28.530519
Neighbor list builds = 0
Dangerous builds = 0
The dot product: -3.2769976132243e-07
Setting atom values ...
  1 settings made for x
  1 settings made for y
  1 settings made for z
Setting up cg style minimization ...
  Unit style    : metal
  Current step  : 3846
Per MPI rank memory allocation (min/avg/max) = 5.441 | 5.816 | 6.074 Mbytes
Step PotEng KinEng TotEng v_fx v_fy v_fz 
    3846   -1152449.1            0   -1152449.1  0.022271853  0.004688375  0.027460417 
    4000   -1152449.1            0   -1152449.1 -5.3177388e-07 5.1521637e-06 6.4138257e-06 
    4036   -1152449.1            0   -1152449.1 6.760731e-06 2.0174978e-05 3.3518664e-05 
Loop time of 2.18084 on 104 procs for 190 steps with 288751 atoms

99.9% CPU use with 104 MPI tasks x 1 OpenMP threads

Minimization stats:
  Stopping criterion = energy tolerance
  Energy initial, next-to-last, final = 
     -1152449.14469832  -1152449.14670864  -1152449.14670864
  Force two-norm initial, final = 0.17403828 0.00011437034
  Force max component initial, final = 0.1274243 3.3518664e-05
  Final line search alpha, max atom move = 1.0000000 3.3518664e-05
  Iterations, force evaluations = 190 380

MPI task timing breakdown:
Section |  min time  |  avg time  |  max time  |%varavg| %total
---------------------------------------------------------------
Pair    | 0.57529    | 1.5895     | 2.0654     |  34.0 | 72.88
Neigh   | 0          | 0          | 0          |   0.0 |  0.00
Comm    | 0.034536   | 0.35272    | 1.0721     |  50.9 | 16.17
Output  | 9.7322e-05 | 0.00010701 | 0.00023709 |   0.0 |  0.00
Modify  | 2.1899e-05 | 0.0031319  | 0.0066509  |   2.6 |  0.14
Other   |            | 0.2354     |            |       | 10.79

Nlocal:        2776.45 ave        3939 max           0 min
Histogram: 8 4 4 0 4 12 8 2 26 36
Nghost:        3879.12 ave        5425 max         232 min
Histogram: 8 0 8 0 16 0 8 8 16 40
Neighs:        79213.6 ave      114775 max           0 min
Histogram: 8 4 4 0 10 6 8 8 22 34

Total # of neighbors = 8238215
Ave neighs/atom = 28.530516
Neighbor list builds = 0
Dangerous builds = 0
The dot product: 4.78892552794038e-07
Setting atom values ...
  1 settings made for x
  1 settings made for y
  1 settings made for z
Setting up cg style minimization ...
  Unit style    : metal
  Current step  : 4036
Per MPI rank memory allocation (min/avg/max) = 5.441 | 5.816 | 6.074 Mbytes
Step PotEng KinEng TotEng v_fx v_fy v_fz 
    4036   -1152449.1            0   -1152449.1  0.019800501 0.0044080891  0.022882925 
    4243   -1152449.1            0   -1152449.1 3.4215479e-06 1.0971122e-05 1.6904638e-05 
Loop time of 2.39018 on 104 procs for 207 steps with 288751 atoms

99.9% CPU use with 104 MPI tasks x 1 OpenMP threads

Minimization stats:
  Stopping criterion = energy tolerance
  Energy initial, next-to-last, final = 
     -1152449.11856157  -1152449.12039615  -1152449.12039615
  Force two-norm initial, final = 0.17335765 7.8894557e-05
  Force max component initial, final = 0.13019934 1.6904638e-05
  Final line search alpha, max atom move = 1.0000000 1.6904638e-05
  Iterations, force evaluations = 207 414

MPI task timing breakdown:
Section |  min time  |  avg time  |  max time  |%varavg| %total
---------------------------------------------------------------
Pair    | 0.63076    | 1.7419     | 2.2541     |  35.4 | 72.88
Neigh   | 0          | 0          | 0          |   0.0 |  0.00
Comm    | 0.043603   | 0.38676    | 1.1786     |  53.3 | 16.18
Output  | 0          | 0          | 0          |   0.0 |  0.00
Modify  | 2.3373e-05 | 0.0034173  | 0.0072555  |   2.8 |  0.14
Other   |            | 0.2581     |            |       | 10.80

Nlocal:        2776.45 ave        3939 max           0 min
Histogram: 8 4 4 0 4 12 8 2 26 36
Nghost:        3879.12 ave        5425 max         232 min
Histogram: 8 0 8 0 16 0 8 8 16 40
Neighs:        79213.6 ave      114766 max           0 min
Histogram: 8 4 4 0 10 6 8 8 22 34

Total # of neighbors = 8238212
Ave neighs/atom = 28.530506
Neighbor list builds = 0
Dangerous builds = 0
The dot product: 2.07951201666206e-07
Setting atom values ...
  1 settings made for x
  1 settings made for y
  1 settings made for z
Setting up cg style minimization ...
  Unit style    : metal
  Current step  : 4243
Per MPI rank memory allocation (min/avg/max) = 5.441 | 5.816 | 6.074 Mbytes
Step PotEng KinEng TotEng v_fx v_fy v_fz 
    4243   -1152449.1            0   -1152449.1  0.015620089 0.0034717249  0.016965983 
    4422   -1152449.1            0   -1152449.1 3.5402895e-06 6.2845805e-06 1.051028e-05 
Loop time of 2.06118 on 104 procs for 179 steps with 288751 atoms

99.9% CPU use with 104 MPI tasks x 1 OpenMP threads

Minimization stats:
  Stopping criterion = energy tolerance
  Energy initial, next-to-last, final = 
     -1152449.09109581   -1152449.0928104   -1152449.0928104
  Force two-norm initial, final = 0.17299969 0.00014949801
  Force max component initial, final = 0.13298139 1.6222847e-05
  Final line search alpha, max atom move = 1.0000000 1.6222847e-05
  Iterations, force evaluations = 179 358

MPI task timing breakdown:
Section |  min time  |  avg time  |  max time  |%varavg| %total
---------------------------------------------------------------
Pair    | 0.54148    | 1.4974     | 1.9506     |  33.0 | 72.65
Neigh   | 0          | 0          | 0          |   0.0 |  0.00
Comm    | 0.032792   | 0.33259    | 1.0045     |  49.1 | 16.14
Output  | 0          | 0          | 0          |   0.0 |  0.00
Modify  | 2.0373e-05 | 0.0029508  | 0.006266   |   2.6 |  0.14
Other   |            | 0.2282     |            |       | 11.07

Nlocal:        2776.45 ave        3939 max           0 min
Histogram: 8 4 4 0 4 12 8 2 26 36
Nghost:        3879.12 ave        5425 max         232 min
Histogram: 8 0 8 0 16 0 8 8 16 40
Neighs:        79213.6 ave      114767 max           0 min
Histogram: 8 4 4 0 10 6 8 8 22 34

Total # of neighbors = 8238212
Ave neighs/atom = 28.530506
Neighbor list builds = 0
Dangerous builds = 0
The dot product: 1.14088384726915e-07
Setting atom values ...
  1 settings made for x
  1 settings made for y
  1 settings made for z
Setting up cg style minimization ...
  Unit style    : metal
  Current step  : 4422
Per MPI rank memory allocation (min/avg/max) = 5.441 | 5.816 | 6.074 Mbytes
Step PotEng KinEng TotEng v_fx v_fy v_fz 
    4422   -1152449.1            0   -1152449.1  0.011146646 0.0025954818  0.011683262 
    4636   -1152449.1            0   -1152449.1 -2.0677364e-06 -8.4228765e-06 -1.1454515e-05 
Loop time of 2.47762 on 104 procs for 214 steps with 288751 atoms

99.9% CPU use with 104 MPI tasks x 1 OpenMP threads

Minimization stats:
  Stopping criterion = energy tolerance
  Energy initial, next-to-last, final = 
     -1152449.06229686   -1152449.0639429   -1152449.0639429
  Force two-norm initial, final = 0.1731936 5.7097957e-05
  Force max component initial, final = 0.13558119 1.1568371e-05
  Final line search alpha, max atom move = 1.0000000 1.1568371e-05
  Iterations, force evaluations = 214 428

MPI task timing breakdown:
Section |  min time  |  avg time  |  max time  |%varavg| %total
---------------------------------------------------------------
Pair    | 0.64897    | 1.806      | 2.3415     |  36.3 | 72.89
Neigh   | 0          | 0          | 0          |   0.0 |  0.00
Comm    | 0.042672   | 0.40564    | 1.2372     |  54.0 | 16.37
Output  | 0          | 0          | 0          |   0.0 |  0.00
Modify  | 2.4827e-05 | 0.0035403  | 0.0075439  |   2.8 |  0.14
Other   |            | 0.2624     |            |       | 10.59

Nlocal:        2776.45 ave        3938 max           0 min
Histogram: 8 4 4 0 4 12 8 2 26 36
Nghost:        3879.12 ave        5425 max         232 min
Histogram: 8 0 8 0 16 0 8 8 16 40
Neighs:        79213.6 ave      114719 max           0 min
Histogram: 8 4 4 0 9 7 8 8 22 34

Total # of neighbors = 8238214
Ave neighs/atom = 28.530512
Neighbor list builds = 0
Dangerous builds = 0
The dot product: -1.01734499091011e-07
Setting atom values ...
  1 settings made for x
  1 settings made for y
  1 settings made for z
Setting up cg style minimization ...
  Unit style    : metal
  Current step  : 4636
Per MPI rank memory allocation (min/avg/max) = 5.441 | 5.816 | 6.074 Mbytes
Step PotEng KinEng TotEng v_fx v_fy v_fz 
    4636     -1152449            0     -1152449 0.0071351874 0.0019448868 0.0075320191 
    4833     -1152449            0     -1152449 2.6890975e-06 8.2637333e-06 1.1390614e-05 
Loop time of 2.26537 on 104 procs for 197 steps with 288751 atoms

99.9% CPU use with 104 MPI tasks x 1 OpenMP threads

Minimization stats:
  Stopping criterion = energy tolerance
  Energy initial, next-to-last, final = 
     -1152449.03221204  -1152449.03384271  -1152449.03384271
  Force two-norm initial, final = 0.17381564 9.8551676e-05
  Force max component initial, final = 0.13795786 1.1390614e-05
  Final line search alpha, max atom move = 1.0000000 1.1390614e-05
  Iterations, force evaluations = 197 394

MPI task timing breakdown:
Section |  min time  |  avg time  |  max time  |%varavg| %total
---------------------------------------------------------------
Pair    | 0.59835    | 1.6472     | 2.1415     |  34.6 | 72.71
Neigh   | 0          | 0          | 0          |   0.0 |  0.00
Comm    | 0.037928   | 0.36588    | 1.1054     |  51.5 | 16.15
Output  | 0          | 0          | 0          |   0.0 |  0.00
Modify  | 2.3046e-05 | 0.0032483  | 0.0069027  |   2.7 |  0.14
Other   |            | 0.249      |            |       | 10.99

Nlocal:        2776.45 ave        3938 max           0 min
Histogram: 8 4 4 0 4 12 8 2 26 36
Nghost:        3879.18 ave        5426 max         232 min
Histogram: 8 0 8 0 16 0 8 8 16 40
Neighs:        79213.6 ave      114708 max           0 min
Histogram: 8 4 4 0 9 7 8 8 22 34

Total # of neighbors = 8238218
Ave neighs/atom = 28.530526
Neighbor list builds = 0
Dangerous builds = 0
The dot product: 9.15445105945635e-08
Setting atom values ...
  1 settings made for x
  1 settings made for y
  1 settings made for z
Setting up cg style minimization ...
  Unit style    : metal
  Current step  : 4833
Per MPI rank memory allocation (min/avg/max) = 5.441 | 5.816 | 6.074 Mbytes
Step PotEng KinEng TotEng v_fx v_fy v_fz 
    4833     -1152449            0     -1152449  0.004163583 0.0014805024 0.0046515313 
    5000     -1152449            0     -1152449 5.3853731e-07 1.423558e-05 1.6152655e-05 
    5020     -1152449            0     -1152449 2.8448006e-06 1.5559245e-05 1.928683e-05 
Loop time of 2.17289 on 104 procs for 187 steps with 288751 atoms

99.9% CPU use with 104 MPI tasks x 1 OpenMP threads

Minimization stats:
  Stopping criterion = energy tolerance
  Energy initial, next-to-last, final = 
     -1152449.00097916  -1152449.00262421  -1152449.00262421
  Force two-norm initial, final = 0.17458977 0.00013951973
  Force max component initial, final = 0.14002933 2.8641421e-05
  Final line search alpha, max atom move = 1.0000000 2.8641421e-05
  Iterations, force evaluations = 187 374

MPI task timing breakdown:
Section |  min time  |  avg time  |  max time  |%varavg| %total
---------------------------------------------------------------
Pair    | 0.56761    | 1.5772     | 2.0532     |  33.8 | 72.58
Neigh   | 0          | 0          | 0          |   0.0 |  0.00
Comm    | 0.032837   | 0.35736    | 1.0771     |  50.2 | 16.45
Output  | 0.00012431 | 0.00013036 | 0.00026939 |   0.0 |  0.01
Modify  | 2.1531e-05 | 0.0030854  | 0.0065611  |   2.6 |  0.14
Other   |            | 0.2351     |            |       | 10.82

Nlocal:        2776.45 ave        3937 max           0 min
Histogram: 8 4 4 0 4 12 8 0 28 36
Nghost:        3879.18 ave        5426 max         232 min
Histogram: 8 0 8 0 16 0 8 8 16 40
Neighs:        79213.6 ave      114669 max           0 min
Histogram: 8 4 4 0 8 8 8 8 22 34

Total # of neighbors = 8238218
Ave neighs/atom = 28.530526
Neighbor list builds = 0
Dangerous builds = 0
The dot product: 1.4030459897657e-07
Setting atom values ...
  1 settings made for x
  1 settings made for y
  1 settings made for z
Setting up cg style minimization ...
  Unit style    : metal
  Current step  : 5020
Per MPI rank memory allocation (min/avg/max) = 5.441 | 5.816 | 6.074 Mbytes
Step PotEng KinEng TotEng v_fx v_fy v_fz 
    5020     -1152449            0     -1152449 0.0019437002 0.00080532678  0.002243935 
    5224     -1152449            0     -1152449 -5.8755193e-07 3.2466786e-06 3.1014601e-06 
Loop time of 2.3552 on 104 procs for 204 steps with 288751 atoms

99.9% CPU use with 104 MPI tasks x 1 OpenMP threads

Minimization stats:
  Stopping criterion = linesearch alpha is zero
  Energy initial, next-to-last, final = 
     -1152448.96869102  -1152448.97034279  -1152448.97034279
  Force two-norm initial, final = 0.17544292 9.3578207e-05
  Force max component initial, final = 0.14190144 1.7683884e-05
  Final line search alpha, max atom move = 0.5 8.8419422e-06
  Iterations, force evaluations = 204 409

MPI task timing breakdown:
Section |  min time  |  avg time  |  max time  |%varavg| %total
---------------------------------------------------------------
Pair    | 0.61906    | 1.7169     | 2.232      |  35.5 | 72.90
Neigh   | 0          | 0          | 0          |   0.0 |  0.00
Comm    | 0.035536   | 0.38218    | 1.16       |  52.9 | 16.23
Output  | 0          | 0          | 0          |   0.0 |  0.00
Modify  | 2.356e-05  | 0.0033732  | 0.0071932  |   2.8 |  0.14
Other   |            | 0.2528     |            |       | 10.73

Nlocal:        2776.45 ave        3936 max           0 min
Histogram: 8 4 4 0 4 12 8 0 28 36
Nghost:        3879.16 ave        5426 max         232 min
Histogram: 8 0 8 0 16 0 8 8 16 40
Neighs:        79213.6 ave      114643 max           0 min
Histogram: 8 4 4 0 8 8 8 8 22 34

Total # of neighbors = 8238219
Ave neighs/atom = 28.530530
Neighbor list builds = 0
Dangerous builds = 0
The dot product: 2.10333128175552e-08
Setting atom values ...
  1 settings made for x
  1 settings made for y
  1 settings made for z
Setting up cg style minimization ...
  Unit style    : metal
  Current step  : 5224
Per MPI rank memory allocation (min/avg/max) = 5.441 | 5.816 | 6.074 Mbytes
Step PotEng KinEng TotEng v_fx v_fy v_fz 
    5224   -1152448.9            0   -1152448.9 0.00040745635 -4.9708909e-05 0.00022892837 
    5414   -1152448.9            0   -1152448.9 -6.3468289e-06 -1.8884831e-05 -2.4435086e-05 
Loop time of 2.18876 on 104 procs for 190 steps with 288751 atoms

99.9% CPU use with 104 MPI tasks x 1 OpenMP threads

Minimization stats:
  Stopping criterion = energy tolerance
  Energy initial, next-to-last, final = 
     -1152448.93542272  -1152448.93713691  -1152448.93713691
  Force two-norm initial, final = 0.17631463 0.00014362796
  Force max component initial, final = 0.14360798 2.4435086e-05
  Final line search alpha, max atom move = 1.0000000 2.4435086e-05
  Iterations, force evaluations = 190 380

MPI task timing breakdown:
Section |  min time  |  avg time  |  max time  |%varavg| %total
---------------------------------------------------------------
Pair    | 0.57478    | 1.5979     | 2.0667     |  34.1 | 73.00
Neigh   | 0          | 0          | 0          |   0.0 |  0.00
Comm    | 0.034238   | 0.35597    | 1.0795     |  50.8 | 16.26
Output  | 0          | 0          | 0          |   0.0 |  0.00
Modify  | 2.1818e-05 | 0.0031366  | 0.0066616  |   2.6 |  0.14
Other   |            | 0.2318     |            |       | 10.59

Nlocal:        2776.45 ave        3936 max           0 min
Histogram: 8 4 4 0 4 12 8 0 28 36
Nghost:        3879.17 ave        5425 max         232 min
Histogram: 8 0 8 0 16 0 8 8 16 40
Neighs:        79213.6 ave      114624 max           0 min
Histogram: 8 4 4 0 8 8 8 8 20 36

Total # of neighbors = 8238216
Ave neighs/atom = 28.530519
Neighbor list builds = 0
Dangerous builds = 0
The dot product: -1.61096244247861e-07
Setting atom values ...
  1 settings made for x
  1 settings made for y
  1 settings made for z
Setting up cg style minimization ...
  Unit style    : metal
  Current step  : 5414
Per MPI rank memory allocation (min/avg/max) = 5.441 | 5.816 | 6.074 Mbytes
Step PotEng KinEng TotEng v_fx v_fy v_fz 
    5414   -1152448.9            0   -1152448.9 -0.00058871819 -0.0009873737 -0.0014286243 
    5617   -1152448.9            0   -1152448.9 -1.3130182e-06 4.5072521e-07 -4.2194282e-07 
Loop time of 2.37932 on 104 procs for 203 steps with 288751 atoms

99.9% CPU use with 104 MPI tasks x 1 OpenMP threads

Minimization stats:
  Stopping criterion = energy tolerance
  Energy initial, next-to-last, final = 
     -1152448.90134725  -1152448.90299245  -1152448.90299245
  Force two-norm initial, final = 0.17704262 9.1267014e-05
  Force max component initial, final = 0.14504456 1.0506744e-05
  Final line search alpha, max atom move = 1.0000000 1.0506744e-05
  Iterations, force evaluations = 203 406

MPI task timing breakdown:
Section |  min time  |  avg time  |  max time  |%varavg| %total
---------------------------------------------------------------
Pair    | 0.61588    | 1.7071     | 2.2075     |  35.2 | 71.75
Neigh   | 0          | 0          | 0          |   0.0 |  0.00
Comm    | 0.036594   | 0.38422    | 1.1464     |  52.3 | 16.15
Output  | 0          | 0          | 0          |   0.0 |  0.00
Modify  | 2.3459e-05 | 0.0033517  | 0.0071204  |   2.7 |  0.14
Other   |            | 0.2846     |            |       | 11.96

Nlocal:        2776.45 ave        3936 max           0 min
Histogram: 8 4 4 0 4 12 8 0 28 36
Nghost:        3879.15 ave        5425 max         232 min
Histogram: 8 0 8 0 16 0 8 8 16 40
Neighs:        79213.6 ave      114624 max           0 min
Histogram: 8 4 4 0 8 8 8 8 20 36

Total # of neighbors = 8238214
Ave neighs/atom = 28.530512
Neighbor list builds = 0
Dangerous builds = 0
The dot product: -1.94106205601648e-09
Setting atom values ...
  1 settings made for x
  1 settings made for y
  1 settings made for z
Setting up cg style minimization ...
  Unit style    : metal
  Current step  : 5617
Per MPI rank memory allocation (min/avg/max) = 5.441 | 5.816 | 6.074 Mbytes
Step PotEng KinEng TotEng v_fx v_fy v_fz 
    5617   -1152448.9            0   -1152448.9 -0.0019237007 -0.0029108322 -0.0042750814 
    5836   -1152448.9            0   -1152448.9 2.787502e-06 6.2876924e-06 8.3185853e-06 
Loop time of 2.52814 on 104 procs for 219 steps with 288751 atoms

99.9% CPU use with 104 MPI tasks x 1 OpenMP threads

Minimization stats:
  Stopping criterion = energy tolerance
  Energy initial, next-to-last, final = 
     -1152448.86618705  -1152448.86779556  -1152448.86779556
  Force two-norm initial, final = 0.17821832 6.0821895e-05
  Force max component initial, final = 0.14667833 1.0386530e-05
  Final line search alpha, max atom move = 1.0000000 1.0386530e-05
  Iterations, force evaluations = 219 438

MPI task timing breakdown:
Section |  min time  |  avg time  |  max time  |%varavg| %total
---------------------------------------------------------------
Pair    | 0.66491    | 1.839      | 2.3778     |  36.5 | 72.74
Neigh   | 0          | 0          | 0          |   0.0 |  0.00
Comm    | 0.043882   | 0.40623    | 1.2349     |  54.7 | 16.07
Output  | 0          | 0          | 0          |   0.0 |  0.00
Modify  | 2.5377e-05 | 0.0036043  | 0.0076634  |   2.8 |  0.14
Other   |            | 0.2793     |            |       | 11.05

Nlocal:        2776.45 ave        3936 max           0 min
Histogram: 8 4 4 0 4 12 8 0 28 36
Nghost:        3879.12 ave        5425 max         232 min
Histogram: 8 0 8 0 16 0 8 8 16 40
Neighs:        79213.6 ave      114621 max           0 min
Histogram: 8 4 4 0 8 8 8 8 20 36

Total # of neighbors = 8238213
Ave neighs/atom = 28.530509
Neighbor list builds = 0
Dangerous builds = 0
The dot product: 3.82805207013676e-08
Setting atom values ...
  1 settings made for x
  1 settings made for y
  1 settings made for z
Setting up cg style minimization ...
  Unit style    : metal
  Current step  : 5836
Per MPI rank memory allocation (min/avg/max) = 5.441 | 5.816 | 6.074 Mbytes
Step PotEng KinEng TotEng v_fx v_fy v_fz 
    5836   -1152448.8            0   -1152448.8 -0.003108347 -0.005124588 -0.0072545763 
    6000   -1152448.8            0   -1152448.8 -2.2332925e-06 -1.262996e-05 -1.4282062e-05 
    6048   -1152448.8            0   -1152448.8 -1.8178111e-06 -9.1098994e-07 -2.1282607e-06 
Loop time of 2.43089 on 104 procs for 212 steps with 288751 atoms

99.9% CPU use with 104 MPI tasks x 1 OpenMP threads

Minimization stats:
  Stopping criterion = energy tolerance
  Energy initial, next-to-last, final = 
     -1152448.82994123  -1152448.83164137  -1152448.83164137
  Force two-norm initial, final = 0.17953665 7.2763607e-05
  Force max component initial, final = 0.14831031 1.0569196e-05
  Final line search alpha, max atom move = 1.0000000 1.0569196e-05
  Iterations, force evaluations = 212 424

MPI task timing breakdown:
Section |  min time  |  avg time  |  max time  |%varavg| %total
---------------------------------------------------------------
Pair    | 0.64167    | 1.7702     | 2.2995     |  35.9 | 72.82
Neigh   | 0          | 0          | 0          |   0.0 |  0.00
Comm    | 0.038896   | 0.39234    | 1.1863     |  53.5 | 16.14
Output  | 9.9691e-05 | 0.00011063 | 0.00025831 |   0.0 |  0.00
Modify  | 2.4404e-05 | 0.0034897  | 0.007426   |   2.8 |  0.14
Other   |            | 0.2648     |            |       | 10.89

Nlocal:        2776.45 ave        3934 max           0 min
Histogram: 8 4 4 0 4 12 8 0 28 36
Nghost:        3879.13 ave        5425 max         232 min
Histogram: 8 0 8 0 16 0 8 8 16 40
Neighs:        79213.6 ave      114561 max           0 min
Histogram: 8 4 4 0 8 8 8 8 20 36

Total # of neighbors = 8238216
Ave neighs/atom = 28.530519
Neighbor list builds = 0
Dangerous builds = 0
The dot product: -8.32601643083063e-09
Setting atom values ...
  1 settings made for x
  1 settings made for y
  1 settings made for z
Setting up cg style minimization ...
  Unit style    : metal
  Current step  : 6048
Per MPI rank memory allocation (min/avg/max) = 5.441 | 5.816 | 6.074 Mbytes
Step PotEng KinEng TotEng v_fx v_fy v_fz 
    6048   -1152448.8            0   -1152448.8 -0.0036779999 -0.0067974925 -0.0092312018 
    6232   -1152448.8            0   -1152448.8 -6.0512945e-06 -1.5669942e-05 -1.9685088e-05 
Loop time of 2.13156 on 104 procs for 184 steps with 288751 atoms

99.9% CPU use with 104 MPI tasks x 1 OpenMP threads

Minimization stats:
  Stopping criterion = energy tolerance
  Energy initial, next-to-last, final = 
     -1152448.79296828  -1152448.79459598  -1152448.79459598
  Force two-norm initial, final = 0.18010892 0.00016836247
  Force max component initial, final = 0.14934236 1.9685088e-05
  Final line search alpha, max atom move = 1.0000000 1.9685088e-05
  Iterations, force evaluations = 184 368

MPI task timing breakdown:
Section |  min time  |  avg time  |  max time  |%varavg| %total
---------------------------------------------------------------
Pair    | 0.55645    | 1.551      | 2.0148     |  33.6 | 72.77
Neigh   | 0          | 0          | 0          |   0.0 |  0.00
Comm    | 0.037076   | 0.34652    | 1.0481     |  50.1 | 16.26
Output  | 0          | 0          | 0          |   0.0 |  0.00
Modify  | 2.1694e-05 | 0.0030386  | 0.0064774  |   2.6 |  0.14
Other   |            | 0.231      |            |       | 10.84

Nlocal:        2776.45 ave        3934 max           0 min
Histogram: 8 4 4 0 4 12 8 0 28 36
Nghost:        3879.12 ave        5425 max         232 min
Histogram: 8 0 8 0 16 0 8 8 16 40
Neighs:        79213.6 ave      114589 max           0 min
Histogram: 8 4 4 0 8 8 8 8 20 36

Total # of neighbors = 8238215
Ave neighs/atom = 28.530516
Neighbor list builds = 0
Dangerous builds = 0
The dot product: -5.9050968158429e-08
Setting atom values ...
  1 settings made for x
  1 settings made for y
  1 settings made for z
Setting up cg style minimization ...
  Unit style    : metal
  Current step  : 6232
Per MPI rank memory allocation (min/avg/max) = 5.441 | 5.816 | 6.074 Mbytes
Step PotEng KinEng TotEng v_fx v_fy v_fz 
    6232   -1152448.8            0   -1152448.8 -0.004653734 -0.0097049298 -0.012697191 
    6414   -1152448.8            0   -1152448.8 -6.6769659e-06 -2.0663394e-05 -2.4921527e-05 
Loop time of 2.09482 on 104 procs for 182 steps with 288751 atoms

99.9% CPU use with 104 MPI tasks x 1 OpenMP threads

Minimization stats:
  Stopping criterion = energy tolerance
  Energy initial, next-to-last, final = 
     -1152448.75490885   -1152448.7565355   -1152448.7565355
  Force two-norm initial, final = 0.1811686 0.00016990758
  Force max component initial, final = 0.1507322 2.4921527e-05
  Final line search alpha, max atom move = 1.0000000 2.4921527e-05
  Iterations, force evaluations = 182 364

MPI task timing breakdown:
Section |  min time  |  avg time  |  max time  |%varavg| %total
---------------------------------------------------------------
Pair    | 0.55106    | 1.5238     | 1.9782     |  33.3 | 72.74
Neigh   | 0          | 0          | 0          |   0.0 |  0.00
Comm    | 0.036997   | 0.33887    | 1.0239     |  49.6 | 16.18
Output  | 0          | 0          | 0          |   0.0 |  0.00
Modify  | 2.1119e-05 | 0.0029957  | 0.0063679  |   2.6 |  0.14
Other   |            | 0.2291     |            |       | 10.94

Nlocal:        2776.45 ave        3934 max           0 min
Histogram: 8 4 4 0 4 12 8 0 28 36
Nghost:        3879.12 ave        5425 max         232 min
Histogram: 8 0 8 0 16 0 8 8 16 40
Neighs:        79213.6 ave      114583 max           0 min
Histogram: 8 4 4 0 8 8 8 8 20 36

Total # of neighbors = 8238212
Ave neighs/atom = 28.530506
Neighbor list builds = 0
Dangerous builds = 0
The dot product: -4.61207946696288e-08
Setting atom values ...
  1 settings made for x
  1 settings made for y
  1 settings made for z
Setting up cg style minimization ...
  Unit style    : metal
  Current step  : 6414
Per MPI rank memory allocation (min/avg/max) = 5.441 | 5.816 | 6.074 Mbytes
Step PotEng KinEng TotEng v_fx v_fy v_fz 
    6414   -1152448.7            0   -1152448.7 -0.0052867889 -0.012580476 -0.015905559 
    6572   -1152448.7            0   -1152448.7 -3.7605204e-06 3.4752982e-07 -2.1096201e-06 
Loop time of 1.81949 on 104 procs for 158 steps with 288751 atoms

99.9% CPU use with 104 MPI tasks x 1 OpenMP threads

Minimization stats:
  Stopping criterion = energy tolerance
  Energy initial, next-to-last, final = 
     -1152448.71589984  -1152448.71766935  -1152448.71766935
  Force two-norm initial, final = 0.18172453 0.00015023187
  Force max component initial, final = 0.15185923 1.5241701e-05
  Final line search alpha, max atom move = 1.0000000 1.5241701e-05
  Iterations, force evaluations = 158 316

MPI task timing breakdown:
Section |  min time  |  avg time  |  max time  |%varavg| %total
---------------------------------------------------------------
Pair    | 0.47779    | 1.3312     | 1.7247     |  31.2 | 73.16
Neigh   | 0          | 0          | 0          |   0.0 |  0.00
Comm    | 0.028857   | 0.29624    | 0.90495    |  46.8 | 16.28
Output  | 0          | 0          | 0          |   0.0 |  0.00
Modify  | 1.818e-05  | 0.0026046  | 0.0055256  |   2.4 |  0.14
Other   |            | 0.1894     |            |       | 10.41

Nlocal:        2776.45 ave        3934 max           0 min
Histogram: 8 4 4 0 4 12 8 0 28 36
Nghost:        3879.12 ave        5425 max         232 min
Histogram: 8 0 8 0 16 0 8 8 16 40
Neighs:        79213.6 ave      114579 max           0 min
Histogram: 8 4 4 0 8 8 8 8 20 36

Total # of neighbors = 8238212
Ave neighs/atom = 28.530506
Neighbor list builds = 0
Dangerous builds = 0
The dot product: 6.98031576384749e-10
Setting atom values ...
  1 settings made for x
  1 settings made for y
  1 settings made for z
Setting up cg style minimization ...
  Unit style    : metal
  Current step  : 6572
Per MPI rank memory allocation (min/avg/max) = 5.441 | 5.816 | 6.074 Mbytes
Step PotEng KinEng TotEng v_fx v_fy v_fz 
    6572   -1152448.7            0   -1152448.7 -0.0056446531 -0.014586447 -0.018075249 
    6729   -1152448.7            0   -1152448.7 1.022178e-05 3.4584229e-05 4.0792905e-05 
Loop time of 1.80987 on 104 procs for 157 steps with 288751 atoms

99.9% CPU use with 104 MPI tasks x 1 OpenMP threads

Minimization stats:
  Stopping criterion = energy tolerance
  Energy initial, next-to-last, final = 
     -1152448.67654352  -1152448.67828222  -1152448.67828222
  Force two-norm initial, final = 0.18064399 0.00019679961
  Force max component initial, final = 0.15188593 4.0792905e-05
  Final line search alpha, max atom move = 1.0000000 4.0792905e-05
  Iterations, force evaluations = 157 314

MPI task timing breakdown:
Section |  min time  |  avg time  |  max time  |%varavg| %total
---------------------------------------------------------------
Pair    | 0.4757     | 1.3156     | 1.7075     |  31.0 | 72.69
Neigh   | 0          | 0          | 0          |   0.0 |  0.00
Comm    | 0.027066   | 0.29348    | 0.88882    |  46.2 | 16.22
Output  | 0          | 0          | 0          |   0.0 |  0.00
Modify  | 1.8312e-05 | 0.0025896  | 0.0055284  |   2.4 |  0.14
Other   |            | 0.1982     |            |       | 10.95

Nlocal:        2776.45 ave        3935 max           0 min
Histogram: 8 4 4 0 4 12 8 0 28 36
Nghost:        3879.12 ave        5425 max         232 min
Histogram: 8 0 8 0 16 0 8 8 16 40
Neighs:        79213.5 ave      114604 max           0 min
Histogram: 8 4 4 0 8 8 8 8 20 36

Total # of neighbors = 8238205
Ave neighs/atom = 28.530481
Neighbor list builds = 0
Dangerous builds = 0
The dot product: -4.49520063475556e-09
Setting atom values ...
  1 settings made for x
  1 settings made for y
  1 settings made for z
Setting up cg style minimization ...
  Unit style    : metal
  Current step  : 6729
Per MPI rank memory allocation (min/avg/max) = 5.441 | 5.816 | 6.074 Mbytes
Step PotEng KinEng TotEng v_fx v_fy v_fz 
    6729   -1152448.6            0   -1152448.6 -0.0058837485 -0.017533415 -0.021145547 
    6971   -1152448.6            0   -1152448.6 -2.6327537e-06 8.5484354e-06 6.7059083e-06 
Loop time of 2.79619 on 104 procs for 242 steps with 288751 atoms

99.9% CPU use with 104 MPI tasks x 1 OpenMP threads

Minimization stats:
  Stopping criterion = energy tolerance
  Energy initial, next-to-last, final = 
     -1152448.63678791  -1152448.63874024  -1152448.63874024
  Force two-norm initial, final = 0.17972458 0.00017644117
  Force max component initial, final = 0.15173078 2.7874144e-05
  Final line search alpha, max atom move = 1.0000000 2.7874144e-05
  Iterations, force evaluations = 242 484

MPI task timing breakdown:
Section |  min time  |  avg time  |  max time  |%varavg| %total
---------------------------------------------------------------
Pair    | 0.73105    | 2.0353     | 2.6323     |  38.5 | 72.79
Neigh   | 0          | 0          | 0          |   0.0 |  0.00
Comm    | 0.042251   | 0.454      | 1.3735     |  57.2 | 16.24
Output  | 0          | 0          | 0          |   0.0 |  0.00
Modify  | 2.8025e-05 | 0.0039913  | 0.0085128  |   3.0 |  0.14
Other   |            | 0.3029     |            |       | 10.83

Nlocal:        2776.45 ave        3935 max           0 min
Histogram: 8 4 4 0 4 12 8 0 28 36
Nghost:        3879.14 ave        5425 max         232 min
Histogram: 8 0 8 0 16 0 8 8 16 40
Neighs:        79213.5 ave      114602 max           0 min
Histogram: 8 4 4 0 8 8 8 8 20 36

Total # of neighbors = 8238200
Ave neighs/atom = 28.530464
Neighbor list builds = 0
Dangerous builds = 0
The dot product: 3.54972747042062e-09
Setting atom values ...
  1 settings made for x
  1 settings made for y
  1 settings made for z
Setting up cg style minimization ...
  Unit style    : metal
  Current step  : 6971
Per MPI rank memory allocation (min/avg/max) = 5.441 | 5.816 | 6.074 Mbytes
Step PotEng KinEng TotEng v_fx v_fy v_fz 
    6971   -1152448.6            0   -1152448.6 -0.0090872189 -0.018797349 -0.024534928 
    7000   -1152448.6            0   -1152448.6 0.00040293048 0.00089694396 0.0011504989 
    7223   -1152448.6            0   -1152448.6 -8.8099733e-07 -2.4942294e-06 -3.0414699e-06 
Loop time of 2.90348 on 104 procs for 252 steps with 288751 atoms

99.9% CPU use with 104 MPI tasks x 1 OpenMP threads

Minimization stats:
  Stopping criterion = energy tolerance
  Energy initial, next-to-last, final = 
     -1152448.59792238  -1152448.60003926  -1152448.60003926
  Force two-norm initial, final = 0.17776464 2.4076805e-05
  Force max component initial, final = 0.14935329 3.1400779e-06
  Final line search alpha, max atom move = 1.0000000 3.1400779e-06
  Iterations, force evaluations = 252 504

MPI task timing breakdown:
Section |  min time  |  avg time  |  max time  |%varavg| %total
---------------------------------------------------------------
Pair    | 0.76336    | 2.1108     | 2.7433     |  39.3 | 72.70
Neigh   | 0          | 0          | 0          |   0.0 |  0.00
Comm    | 0.049417   | 0.47072    | 1.4221     |  58.5 | 16.21
Output  | 0.00013315 | 0.0001406  | 0.00024022 |   0.0 |  0.00
Modify  | 2.8917e-05 | 0.0041507  | 0.0088641  |   3.0 |  0.14
Other   |            | 0.3176     |            |       | 10.94

Nlocal:        2776.45 ave        3936 max           0 min
Histogram: 8 4 4 0 4 12 8 0 28 36
Nghost:        3879.14 ave        5425 max         232 min
Histogram: 8 0 8 0 16 0 8 8 16 40
Neighs:        79213.5 ave      114632 max           0 min
Histogram: 8 4 4 0 8 8 8 8 20 36

Total # of neighbors = 8238205
Ave neighs/atom = 28.530481
Neighbor list builds = 0
Dangerous builds = 0
The dot product: 1.93596878390587e-09
Setting atom values ...
  1 settings made for x
  1 settings made for y
  1 settings made for z
Setting up cg style minimization ...
  Unit style    : metal
  Current step  : 7223
Per MPI rank memory allocation (min/avg/max) = 5.441 | 5.816 | 6.074 Mbytes
Step PotEng KinEng TotEng v_fx v_fy v_fz 
    7223   -1152448.6            0   -1152448.6 -0.011448091 -0.018987992 -0.026330841 
    7450   -1152448.6            0   -1152448.6 3.7016705e-07 -4.258692e-06 -3.9559282e-06 
Loop time of 2.61225 on 104 procs for 227 steps with 288751 atoms

99.9% CPU use with 104 MPI tasks x 1 OpenMP threads

Minimization stats:
  Stopping criterion = energy tolerance
  Energy initial, next-to-last, final = 
     -1152448.56072916  -1152448.57174812  -1152448.57174812
  Force two-norm initial, final = 0.18337512 0.00020742836
  Force max component initial, final = 0.14680621 9.5239755e-06
  Final line search alpha, max atom move = 1.0000000 9.5239755e-06
  Iterations, force evaluations = 227 454

MPI task timing breakdown:
Section |  min time  |  avg time  |  max time  |%varavg| %total
---------------------------------------------------------------
Pair    | 0.69112    | 1.9111     | 2.4703     |  37.2 | 73.16
Neigh   | 1.0248e-05 | 0.0029652  | 0.0042636  |   2.2 |  0.11
Comm    | 0.039438   | 0.42382    | 1.2885     |  55.7 | 16.22
Output  | 0          | 0          | 0          |   0.0 |  0.00
Modify  | 2.6295e-05 | 0.0037429  | 0.0079715  |   2.9 |  0.14
Other   |            | 0.2706     |            |       | 10.36

Nlocal:        2776.45 ave        3936 max           0 min
Histogram: 8 4 4 0 4 12 8 0 28 36
Nghost:        3879.12 ave        5425 max         232 min
Histogram: 8 0 8 0 16 0 8 8 16 40
Neighs:        79213.4 ave      114629 max           0 min
Histogram: 8 4 4 0 8 8 8 8 20 36

Total # of neighbors = 8238194
Ave neighs/atom = 28.530443
Neighbor list builds = 1
Dangerous builds = 0
The dot product: -8.01453817376036e-08
Setting atom values ...
  1 settings made for x
  1 settings made for y
  1 settings made for z
Setting up cg style minimization ...
  Unit style    : metal
  Current step  : 7450
Per MPI rank memory allocation (min/avg/max) = 5.441 | 5.816 | 6.074 Mbytes
Step PotEng KinEng TotEng v_fx v_fy v_fz 
    7450   -1152448.5            0   -1152448.5 -0.0056509164 -0.013055668 -0.016024842 
    7646   -1152448.5            0   -1152448.5 -3.9792898e-06 -1.0004351e-05 -1.2053096e-05 
[...]
Histogram: 8 0 8 0 16 0 8 8 16 40
Neighs:        79213.5 ave      115094 max           0 min
Histogram: 8 4 4 0 10 6 8 8 24 32

Total # of neighbors = 8238200
Ave neighs/atom = 28.530464
Neighbor list builds = 0
Dangerous builds = 0
The dot product: -5.81896580887759e-09
Setting atom values ...
  1 settings made for x
  1 settings made for y
  1 settings made for z
Setting up cg style minimization ...
  Unit style    : metal
  Current step  : 26985
Per MPI rank memory allocation (min/avg/max) = 5.441 | 5.816 | 6.074 Mbytes
Step PotEng KinEng TotEng v_fx v_fy v_fz 
   26985   -1152449.4            0   -1152449.4 -0.023921125  0.019389929  0.040936182 
   27000   -1152449.4            0   -1152449.4 0.00045915403 -0.00024994911 -0.00063484787 
   27188   -1152449.4            0   -1152449.4 -1.5865013e-05 -1.3448063e-05 -5.328967e-06 
Loop time of 2.34159 on 104 procs for 203 steps with 288751 atoms

99.9% CPU use with 104 MPI tasks x 1 OpenMP threads

Minimization stats:
  Stopping criterion = energy tolerance
  Energy initial, next-to-last, final = 
     -1152449.42934006  -1152449.43075361  -1152449.43075361
  Force two-norm initial, final = 0.1716382 8.1803083e-05
  Force max component initial, final = 0.073735262 1.5865013e-05
  Final line search alpha, max atom move = 1.0000000 1.5865013e-05
  Iterations, force evaluations = 203 406

MPI task timing breakdown:
Section |  min time  |  avg time  |  max time  |%varavg| %total
---------------------------------------------------------------
Pair    | 0.61263    | 1.6969     | 2.2108     |  35.3 | 72.47
Neigh   | 0          | 0          | 0          |   0.0 |  0.00
Comm    | 0.035904   | 0.37796    | 1.1503     |  52.1 | 16.14
Output  | 0.00011105 | 0.00011347 | 0.00019883 |   0.0 |  0.00
Modify  | 2.5125e-05 | 0.0033414  | 0.007146   |   2.7 |  0.14
Other   |            | 0.2633     |            |       | 11.25

Nlocal:        2776.45 ave        3947 max           0 min
Histogram: 8 4 4 0 4 12 8 0 28 36
Nghost:        3878.80 ave        5423 max         232 min
Histogram: 8 0 8 0 16 0 8 8 16 40
Neighs:        79213.5 ave      115094 max           0 min
Histogram: 8 4 4 0 10 6 8 8 24 32

Total # of neighbors = 8238204
Ave neighs/atom = 28.530478
Neighbor list builds = 0
Dangerous builds = 0
The dot product: -3.51702429566529e-08
Setting atom values ...
  1 settings made for x
  1 settings made for y
  1 settings made for z
Setting up cg style minimization ...
  Unit style    : metal
  Current step  : 27188
Per MPI rank memory allocation (min/avg/max) = 5.441 | 5.816 | 6.074 Mbytes
Step PotEng KinEng TotEng v_fx v_fy v_fz 
   27188   -1152449.4            0   -1152449.4  -0.02707475   0.01580385  0.038836593 
   27385   -1152449.4            0   -1152449.4 1.5785747e-05 7.8237538e-06 -1.5549944e-06 
Loop time of 2.28473 on 104 procs for 197 steps with 288751 atoms

99.9% CPU use with 104 MPI tasks x 1 OpenMP threads

Minimization stats:
  Stopping criterion = energy tolerance
  Energy initial, next-to-last, final = 
     -1152449.42260989  -1152449.42397033  -1152449.42397033
  Force two-norm initial, final = 0.16892006 9.8126652e-05
  Force max component initial, final = 0.072955547 1.9280602e-05
  Final line search alpha, max atom move = 1.0000000 1.9280602e-05
  Iterations, force evaluations = 197 394

MPI task timing breakdown:
Section |  min time  |  avg time  |  max time  |%varavg| %total
---------------------------------------------------------------
Pair    | 0.59283    | 1.6524     | 2.168      |  34.9 | 72.32
Neigh   | 0          | 0          | 0          |   0.0 |  0.00
Comm    | 0.034739   | 0.37323    | 1.1195     |  51.1 | 16.34
Output  | 0          | 0          | 0          |   0.0 |  0.00
Modify  | 2.4115e-05 | 0.0032417  | 0.0069579  |   2.7 |  0.14
Other   |            | 0.2559     |            |       | 11.20

Nlocal:        2776.45 ave        3947 max           0 min
Histogram: 8 4 4 0 4 12 8 0 28 36
Nghost:        3878.81 ave        5423 max         232 min
Histogram: 8 0 8 0 16 0 8 8 16 40
Neighs:        79213.5 ave      115093 max           0 min
Histogram: 8 4 4 0 10 6 8 8 24 32

Total # of neighbors = 8238205
Ave neighs/atom = 28.530481
Neighbor list builds = 0
Dangerous builds = 0
The dot product: -2.94948761511284e-09
Setting atom values ...
  1 settings made for x
  1 settings made for y
  1 settings made for z
Setting up cg style minimization ...
  Unit style    : metal
  Current step  : 27385
Per MPI rank memory allocation (min/avg/max) = 5.441 | 5.816 | 6.074 Mbytes
Step PotEng KinEng TotEng v_fx v_fy v_fz 
   27385   -1152449.4            0   -1152449.4 -0.030913133  0.011477863   0.03629411 
   27568   -1152449.4            0   -1152449.4 2.080331e-05 1.0137305e-05 -2.2664956e-06 
Loop time of 2.11192 on 104 procs for 183 steps with 288751 atoms

99.9% CPU use with 104 MPI tasks x 1 OpenMP threads

Minimization stats:
  Stopping criterion = energy tolerance
  Energy initial, next-to-last, final = 
     -1152449.41432532  -1152449.41563095  -1152449.41563095
  Force two-norm initial, final = 0.16644709 0.00013464924
  Force max component initial, final = 0.07210262 2.3860014e-05
  Final line search alpha, max atom move = 1.0000000 2.3860014e-05
  Iterations, force evaluations = 183 366

MPI task timing breakdown:
Section |  min time  |  avg time  |  max time  |%varavg| %total
---------------------------------------------------------------
Pair    | 0.55309    | 1.5325     | 1.9986     |  33.5 | 72.56
Neigh   | 0          | 0          | 0          |   0.0 |  0.00
Comm    | 0.031786   | 0.34269    | 1.04       |  49.5 | 16.23
Output  | 0          | 0          | 0          |   0.0 |  0.00
Modify  | 2.2645e-05 | 0.0030128  | 0.0064633  |   2.6 |  0.14
Other   |            | 0.2337     |            |       | 11.07

Nlocal:        2776.45 ave        3947 max           0 min
Histogram: 8 4 4 0 4 12 8 0 28 36
Nghost:        3878.82 ave        5424 max         232 min
Histogram: 8 0 8 0 16 0 8 8 16 40
Neighs:        79213.5 ave      115095 max           0 min
Histogram: 8 4 4 0 10 6 8 8 24 32

Total # of neighbors = 8238207
Ave neighs/atom = 28.530488
Neighbor list builds = 0
Dangerous builds = 0
The dot product: -2.08320635657128e-08
Setting atom values ...
  1 settings made for x
  1 settings made for y
  1 settings made for z
Setting up cg style minimization ...
  Unit style    : metal
  Current step  : 27568
Per MPI rank memory allocation (min/avg/max) = 5.441 | 5.816 | 6.074 Mbytes
Step PotEng KinEng TotEng v_fx v_fy v_fz 
   27568   -1152449.4            0   -1152449.4 -0.036791598  0.004871708  0.032369165 
   27737   -1152449.4            0   -1152449.4 2.6446964e-05 5.1224853e-06 -1.2548323e-05 
Loop time of 1.9538 on 104 procs for 169 steps with 288751 atoms

99.9% CPU use with 104 MPI tasks x 1 OpenMP threads

Minimization stats:
  Stopping criterion = energy tolerance
  Energy initial, next-to-last, final = 
     -1152449.40462906  -1152449.40588694  -1152449.40588694
  Force two-norm initial, final = 0.16483629 0.00019704933
  Force max component initial, final = 0.071613311 2.6446964e-05
  Final line search alpha, max atom move = 1.0000000 2.6446964e-05
  Iterations, force evaluations = 169 338

MPI task timing breakdown:
Section |  min time  |  avg time  |  max time  |%varavg| %total
---------------------------------------------------------------
Pair    | 0.51062    | 1.417      | 1.8454     |  32.3 | 72.53
Neigh   | 0          | 0          | 0          |   0.0 |  0.00
Comm    | 0.035568   | 0.31852    | 0.96997    |  47.9 | 16.30
Output  | 0          | 0          | 0          |   0.0 |  0.00
Modify  | 2.112e-05  | 0.0027814  | 0.0059717  |   2.5 |  0.14
Other   |            | 0.2155     |            |       | 11.03

Nlocal:        2776.45 ave        3946 max           0 min
Histogram: 8 4 4 0 4 12 8 0 28 36
Nghost:        3878.82 ave        5424 max         232 min
Histogram: 8 0 8 0 16 0 8 8 16 40
Neighs:        79213.5 ave      115066 max           0 min
Histogram: 8 4 4 0 10 6 8 8 24 32

Total # of neighbors = 8238204
Ave neighs/atom = 28.530478
Neighbor list builds = 0
Dangerous builds = 0
The dot product: -9.50525255480369e-08
Setting atom values ...
  1 settings made for x
  1 settings made for y
  1 settings made for z
Setting up cg style minimization ...
  Unit style    : metal
  Current step  : 27737
Per MPI rank memory allocation (min/avg/max) = 5.441 | 5.816 | 6.074 Mbytes
Step PotEng KinEng TotEng v_fx v_fy v_fz 
   27737   -1152449.4            0   -1152449.4 -0.044314836 -0.0035531597  0.027379135 
   27928   -1152449.4            0   -1152449.4 -5.3222985e-06 -3.3244019e-06 -3.176871e-07 
Loop time of 2.20422 on 104 procs for 191 steps with 288751 atoms

99.9% CPU use with 104 MPI tasks x 1 OpenMP threads

Minimization stats:
  Stopping criterion = energy tolerance
  Energy initial, next-to-last, final = 
     -1152449.39386232  -1152449.39525158  -1152449.39525158
  Force two-norm initial, final = 0.16648253 2.9123234e-05
  Force max component initial, final = 0.071471741 5.3222985e-06
  Final line search alpha, max atom move = 1.0000000 5.3222985e-06
  Iterations, force evaluations = 191 382

MPI task timing breakdown:
Section |  min time  |  avg time  |  max time  |%varavg| %total
---------------------------------------------------------------
Pair    | 0.57797    | 1.598      | 2.09       |  34.2 | 72.50
Neigh   | 0          | 0          | 0          |   0.0 |  0.00
Comm    | 0.034115   | 0.35771    | 1.075      |  50.4 | 16.23
Output  | 0          | 0          | 0          |   0.0 |  0.00
Modify  | 2.3523e-05 | 0.0031472  | 0.0067304  |   2.6 |  0.14
Other   |            | 0.2454     |            |       | 11.13

Nlocal:        2776.45 ave        3946 max           0 min
Histogram: 8 4 4 0 4 12 8 0 28 36
Nghost:        3878.78 ave        5424 max         232 min
Histogram: 8 0 8 0 16 0 8 8 16 40
Neighs:        79213.5 ave      115066 max           0 min
Histogram: 8 4 4 0 10 6 8 8 24 32

Total # of neighbors = 8238203
Ave neighs/atom = 28.530474
Neighbor list builds = 0
Dangerous builds = 0
The dot product: 4.71763640041351e-08
Setting atom values ...
  1 settings made for x
  1 settings made for y
  1 settings made for z
Setting up cg style minimization ...
  Unit style    : metal
  Current step  : 27928
Per MPI rank memory allocation (min/avg/max) = 5.441 | 5.816 | 6.074 Mbytes
Step PotEng KinEng TotEng v_fx v_fy v_fz 
   27928   -1152449.4            0   -1152449.4 -0.052227683 -0.012092388   0.02267903 
   28000   -1152449.4            0   -1152449.4 -0.00010444439 8.3648627e-05 0.00017943017 
   28121   -1152449.4            0   -1152449.4 -5.3718774e-06 -9.1425826e-06 -7.4887403e-06 
Loop time of 2.23537 on 104 procs for 193 steps with 288751 atoms

99.9% CPU use with 104 MPI tasks x 1 OpenMP threads

Minimization stats:
  Stopping criterion = energy tolerance
  Energy initial, next-to-last, final = 
      -1152449.3830579  -1152449.38501599  -1152449.38501599
  Force two-norm initial, final = 0.17092072 7.5663867e-05
  Force max component initial, final = 0.070494274 1.3525049e-05
  Final line search alpha, max atom move = 1.0000000 1.3525049e-05
  Iterations, force evaluations = 193 386

MPI task timing breakdown:
Section |  min time  |  avg time  |  max time  |%varavg| %total
---------------------------------------------------------------
Pair    | 0.58232    | 1.6158     | 2.1133     |  34.5 | 72.29
Neigh   | 0          | 0          | 0          |   0.0 |  0.00
Comm    | 0.03426    | 0.36218    | 1.0897     |  50.8 | 16.20
Output  | 9.6293e-05 | 0.0001038  | 0.00025606 |   0.0 |  0.00
Modify  | 2.4279e-05 | 0.0031791  | 0.0067916  |   2.7 |  0.14
Other   |            | 0.2541     |            |       | 11.37

Nlocal:        2776.45 ave        3946 max           0 min
Histogram: 8 4 4 0 4 12 8 0 28 36
Nghost:        3878.78 ave        5424 max         232 min
Histogram: 8 0 8 0 16 0 8 8 16 40
Neighs:        79213.5 ave      115066 max           0 min
Histogram: 8 4 4 0 10 6 8 8 24 32

Total # of neighbors = 8238205
Ave neighs/atom = 28.530481
Neighbor list builds = 0
Dangerous builds = 0
The dot product: 1.61197330923641e-07
Setting atom values ...
  1 settings made for x
  1 settings made for y
  1 settings made for z
Setting up cg style minimization ...
  Unit style    : metal
  Current step  : 28121
Per MPI rank memory allocation (min/avg/max) = 5.441 | 5.816 | 6.074 Mbytes
Step PotEng KinEng TotEng v_fx v_fy v_fz 
   28121   -1152449.4            0   -1152449.4 -0.053392678 -0.013766199  0.021969922 
   28276   -1152449.4            0   -1152449.4 1.1585801e-06 -1.3077929e-05 -1.7040571e-05 
Loop time of 1.79019 on 104 procs for 155 steps with 288751 atoms

99.9% CPU use with 104 MPI tasks x 1 OpenMP threads

Minimization stats:
  Stopping criterion = energy tolerance
  Energy initial, next-to-last, final = 
     -1152449.37375606  -1152449.37546087  -1152449.37546087
  Force two-norm initial, final = 0.16830802 8.0772435e-05
  Force max component initial, final = 0.070115375 1.7040571e-05
  Final line search alpha, max atom move = 1.0000000 1.7040571e-05
  Iterations, force evaluations = 155 310

MPI task timing breakdown:
Section |  min time  |  avg time  |  max time  |%varavg| %total
---------------------------------------------------------------
Pair    | 0.46909    | 1.2978     | 1.6969     |  30.8 | 72.50
Neigh   | 0          | 0          | 0          |   0.0 |  0.00
Comm    | 0.026789   | 0.29125    | 0.88166    |  45.4 | 16.27
Output  | 0          | 0          | 0          |   0.0 |  0.00
Modify  | 1.9127e-05 | 0.0025537  | 0.0054607  |   2.4 |  0.14
Other   |            | 0.1986     |            |       | 11.09

Nlocal:        2776.45 ave        3946 max           0 min
Histogram: 8 4 4 0 4 12 8 0 28 36
Nghost:        3878.82 ave        5424 max         232 min
Histogram: 8 0 8 0 16 0 8 8 16 40
Neighs:        79213.5 ave      115064 max           0 min
Histogram: 8 4 4 0 10 6 8 8 24 32

Total # of neighbors = 8238205
Ave neighs/atom = 28.530481
Neighbor list builds = 0
Dangerous builds = 0
The dot product: 6.71060841801311e-08
Setting atom values ...
  1 settings made for x
  1 settings made for y
  1 settings made for z
Setting up cg style minimization ...
  Unit style    : metal
  Current step  : 28276
Per MPI rank memory allocation (min/avg/max) = 5.441 | 5.816 | 6.074 Mbytes
Step PotEng KinEng TotEng v_fx v_fy v_fz 
   28276   -1152449.4            0   -1152449.4 -0.050595325 -0.012199404  0.022247171 
   28350   -1152449.4            0   -1152449.4 -1.2011801e-05 4.0610663e-05 5.9000755e-05 
Loop time of 0.86591 on 104 procs for 74 steps with 288751 atoms

99.9% CPU use with 104 MPI tasks x 1 OpenMP threads

Minimization stats:
  Stopping criterion = energy tolerance
  Energy initial, next-to-last, final = 
     -1152449.36443265  -1152449.36590365  -1152449.36590365
  Force two-norm initial, final = 0.16375158 0.00020777405
  Force max component initial, final = 0.069863817 5.9000755e-05
  Final line search alpha, max atom move = 1.0000000 5.9000755e-05
  Iterations, force evaluations = 74 148

MPI task timing breakdown:
Section |  min time  |  avg time  |  max time  |%varavg| %total
---------------------------------------------------------------
Pair    | 0.22403    | 0.6228     | 0.82129    |  21.4 | 71.92
Neigh   | 0          | 0          | 0          |   0.0 |  0.00
Comm    | 0.012834   | 0.14155    | 0.42236    |  31.2 | 16.35
Output  | 0          | 0          | 0          |   0.0 |  0.00
Modify  | 9.7162e-06 | 0.001225   | 0.0026322  |   1.7 |  0.14
Other   |            | 0.1003     |            |       | 11.59

Nlocal:        2776.45 ave        3947 max           0 min
Histogram: 8 4 4 0 4 12 8 0 28 36
Nghost:        3878.82 ave        5424 max         232 min
Histogram: 8 0 8 0 16 0 8 8 16 40
Neighs:        79213.5 ave      115093 max           0 min
Histogram: 8 4 4 0 10 6 8 8 24 32

Total # of neighbors = 8238206
Ave neighs/atom = 28.530485
Neighbor list builds = 0
Dangerous builds = 0
The dot product: -4.58498927862784e-08
Setting atom values ...
  1 settings made for x
  1 settings made for y
  1 settings made for z
Setting up cg style minimization ...
  Unit style    : metal
  Current step  : 28350
Per MPI rank memory allocation (min/avg/max) = 5.441 | 5.816 | 6.074 Mbytes
Step PotEng KinEng TotEng v_fx v_fy v_fz 
   28350   -1152449.4            0   -1152449.4 -0.048802107 -0.011486323  0.022075266 
   28470   -1152449.4            0   -1152449.4 1.5781389e-05 4.8402601e-05 4.7943742e-05 
Loop time of 1.38297 on 104 procs for 120 steps with 288751 atoms

99.9% CPU use with 104 MPI tasks x 1 OpenMP threads

Minimization stats:
  Stopping criterion = energy tolerance
  Energy initial, next-to-last, final = 
     -1152449.35460828  -1152449.35598711  -1152449.35598711
  Force two-norm initial, final = 0.160519 0.0002311376
  Force max component initial, final = 0.069363401 5.7640301e-05
  Final line search alpha, max atom move = 1.0000000 5.7640301e-05
  Iterations, force evaluations = 120 240

MPI task timing breakdown:
Section |  min time  |  avg time  |  max time  |%varavg| %total
---------------------------------------------------------------
Pair    | 0.36257    | 1.0051     | 1.3101     |  27.1 | 72.68
Neigh   | 0          | 0          | 0          |   0.0 |  0.00
Comm    | 0.020413   | 0.22421    | 0.6801     |  40.0 | 16.21
Output  | 0          | 0          | 0          |   0.0 |  0.00
Modify  | 1.4885e-05 | 0.0019826  | 0.0042342  |   2.1 |  0.14
Other   |            | 0.1517     |            |       | 10.97

Nlocal:        2776.45 ave        3947 max           0 min
Histogram: 8 4 4 0 4 12 8 0 28 36
Nghost:        3878.78 ave        5424 max         232 min
Histogram: 8 0 8 0 16 0 8 8 16 40
Neighs:        79213.5 ave      115092 max           0 min
Histogram: 8 4 4 0 10 6 8 8 24 32

Total # of neighbors = 8238204
Ave neighs/atom = 28.530478
Neighbor list builds = 0
Dangerous builds = 0
The dot product: -2.54444425625331e-07
Setting atom values ...
  1 settings made for x
  1 settings made for y
  1 settings made for z
Setting up cg style minimization ...
  Unit style    : metal
  Current step  : 28470
Per MPI rank memory allocation (min/avg/max) = 5.441 | 5.816 | 6.074 Mbytes
Step PotEng KinEng TotEng v_fx v_fy v_fz 
   28470   -1152449.3            0   -1152449.3 -0.048753905 -0.012854051  0.020583582 
   28643   -1152449.3            0   -1152449.3 2.6578684e-06 -4.3128005e-06 -7.2938661e-06 
Loop time of 2.02707 on 104 procs for 173 steps with 288751 atoms

99.9% CPU use with 104 MPI tasks x 1 OpenMP threads

Minimization stats:
  Stopping criterion = energy tolerance
  Energy initial, next-to-last, final = 
     -1152449.34426693  -1152449.34564244  -1152449.34564244
  Force two-norm initial, final = 0.15873182 5.9502674e-05
  Force max component initial, final = 0.068699532 1.1957421e-05
  Final line search alpha, max atom move = 1.0000000 1.1957421e-05
  Iterations, force evaluations = 173 346

MPI task timing breakdown:
Section |  min time  |  avg time  |  max time  |%varavg| %total
---------------------------------------------------------------
Pair    | 0.52015    | 1.4518     | 1.9073     |  32.8 | 71.62
Neigh   | 0          | 0          | 0          |   0.0 |  0.00
Comm    | 0.030382   | 0.33171    | 0.9815     |  47.5 | 16.36
Output  | 0          | 0          | 0          |   0.0 |  0.00
Modify  | 2.1229e-05 | 0.0028489  | 0.006122   |   2.5 |  0.14
Other   |            | 0.2407     |            |       | 11.87

Nlocal:        2776.45 ave        3946 max           0 min
Histogram: 8 4 4 0 4 12 8 0 28 36
Nghost:        3878.78 ave        5424 max         232 min
Histogram: 8 0 8 0 16 0 8 8 16 40
Neighs:        79213.5 ave      115063 max           0 min
Histogram: 8 4 4 0 10 6 8 8 24 32

Total # of neighbors = 8238205
Ave neighs/atom = 28.530481
Neighbor list builds = 0
Dangerous builds = 0
The dot product: -6.32375770675152e-09
