LAMMPS (29 Oct 2020)
OMP_NUM_THREADS environment is not set. Defaulting to 1 thread. (../comm.cpp:94)
  using 1 OpenMP thread(s) per MPI task
OMP_NUM_THREADS environment is not set. Defaulting to 1 thread. (../comm.cpp:94)
  using 1 OpenMP thread(s) per MPI task
Reading data file ...
  orthogonal box = (-122.39241 -121.13707 -37.090501) to (122.39241 121.13707 37.090501)
  13 by 4 by 2 MPI processor grid
  reading atoms ...
  288751 atoms
  read_data CPU = 0.473 seconds
199981 atoms in group inner
88770 atoms in group outer
1 atoms in group carbon
Neighbor list info ...
  update every 1 steps, delay 0 steps, check yes
  max neighbors/atom: 2000, page size: 100000
  master list distance cutoff = 5.6
  ghost atom cutoff = 5.6
  binsize = 2.8, bins = 88 87 27
  1 neighbor lists, perpetual/occasional/extra = 1 0 0
  (1) pair eam/alloy, perpetual
      attributes: half, newton on
      pair build: half/bin/atomonly/newton
      stencil: half/bin/3d/newton
      bin: standard
Setting up cg style minimization ...
  Unit style    : metal
  Current step  : 0
Per MPI rank memory allocation (min/avg/max) = 5.441 | 5.816 | 6.074 Mbytes
Step v_fx v_fy v_fz PotEng KinEng TotEng 
       0    1.6826383   -0.7292595   -2.4823903   -1152447.8            0   -1152447.8 
     202 -2.7987102e-06 9.5624502e-09 4.083287e-06   -1152449.5            0   -1152449.5 
Loop time of 2.40865 on 104 procs for 202 steps with 288751 atoms

99.8% CPU use with 104 MPI tasks x 1 OpenMP threads

Minimization stats:
  Stopping criterion = energy tolerance
  Energy initial, next-to-last, final = 
     -1152447.78895706  -1152449.45035287  -1152449.45035287
  Force two-norm initial, final = 10.111470 1.6201622e-05
  Force max component initial, final = 6.1416901 4.0832870e-06
  Final line search alpha, max atom move = 1.0000000 4.0832870e-06
  Iterations, force evaluations = 202 403

MPI task timing breakdown:
Section |  min time  |  avg time  |  max time  |%varavg| %total
---------------------------------------------------------------
Pair    | 0.63467    | 1.7102     | 2.2077     |  34.9 | 71.00
Neigh   | 3.2425e-05 | 0.0095679  | 0.013573   |   4.1 |  0.40
Comm    | 0.054422   | 0.39663    | 1.1571     |  50.8 | 16.47
Output  | 0          | 0          | 0          |   0.0 |  0.00
Modify  | 2.4472e-05 | 0.0022087  | 0.0056739  |   2.9 |  0.09
Other   |            | 0.29       |            |       | 12.04

Nlocal:        2776.45 ave        3960 max           0 min
Histogram: 8 4 4 0 4 12 8 2 28 34
Nghost:        3878.99 ave        5424 max         232 min
Histogram: 8 0 8 0 16 0 8 8 16 40
Neighs:        79213.5 ave      115433 max           0 min
Histogram: 8 4 4 0 10 6 8 8 24 32

Total # of neighbors = 8238206
Ave neighs/atom = 28.530485
Neighbor list builds = 3
Dangerous builds = 0
Setting atom values ...
  1 settings made for x
  1 settings made for y
  1 settings made for z
Setting up cg style minimization ...
  Unit style    : metal
  Current step  : 202
Per MPI rank memory allocation (min/avg/max) = 5.441 | 5.816 | 6.074 Mbytes
Step PotEng KinEng TotEng v_fx v_fy v_fz 
     202   -1152449.4            0   -1152449.4  0.012428221 -0.016208226 -0.020761375 
     345   -1152449.5            0   -1152449.5 6.4414511e-06 -7.916871e-06 -9.2160364e-06 
Loop time of 1.73685 on 104 procs for 143 steps with 288751 atoms

99.8% CPU use with 104 MPI tasks x 1 OpenMP threads

Minimization stats:
  Stopping criterion = energy tolerance
  Energy initial, next-to-last, final = 
     -1152449.44947031  -1152449.45002043  -1152449.45002043
  Force two-norm initial, final = 0.10820837 0.0001529975
  Force max component initial, final = 0.047627918 3.5674600e-05
  Final line search alpha, max atom move = 1.0000000 3.5674600e-05
  Iterations, force evaluations = 143 286

MPI task timing breakdown:
Section |  min time  |  avg time  |  max time  |%varavg| %total
---------------------------------------------------------------
Pair    | 0.44007    | 1.2144     | 1.5735     |  29.5 | 69.92
Neigh   | 0          | 0          | 0          |   0.0 |  0.00
Comm    | 0.027299   | 0.27936    | 0.81506    |  42.6 | 16.08
Output  | 0          | 0          | 0          |   0.0 |  0.00
Modify  | 1.6964e-05 | 0.0023731  | 0.0051026  |   2.3 |  0.14
Other   |            | 0.2407     |            |       | 13.86

Nlocal:        2776.45 ave        3961 max           0 min
Histogram: 8 4 4 0 6 10 8 2 28 34
Nghost:        3879.01 ave        5424 max         232 min
Histogram: 8 0 8 0 16 0 8 8 16 40
Neighs:        79213.4 ave      115456 max           0 min
Histogram: 8 4 4 0 10 6 8 8 24 32

Total # of neighbors = 8238197
Ave neighs/atom = 28.530454
Neighbor list builds = 0
Dangerous builds = 0
Setting atom values ...
  1 settings made for x
  1 settings made for y
  1 settings made for z
Setting up cg style minimization ...
  Unit style    : metal
  Current step  : 345
Per MPI rank memory allocation (min/avg/max) = 5.441 | 5.816 | 6.074 Mbytes
Step PotEng KinEng TotEng v_fx v_fy v_fz 
     345   -1152449.4            0   -1152449.4  0.021659345 -0.023280199 -0.033928715 
     475   -1152449.4            0   -1152449.4 1.9979174e-05 -1.4918484e-05 1.0923981e-06 
Loop time of 1.54959 on 104 procs for 130 steps with 288751 atoms

99.9% CPU use with 104 MPI tasks x 1 OpenMP threads

Minimization stats:
  Stopping criterion = energy tolerance
  Energy initial, next-to-last, final = 
     -1152449.44665736  -1152449.44808479  -1152449.44808479
  Force two-norm initial, final = 0.17477207 0.00014813416
  Force max component initial, final = 0.079484568 2.7576127e-05
  Final line search alpha, max atom move = 1.0000000 2.7576127e-05
  Iterations, force evaluations = 130 260

MPI task timing breakdown:
Section |  min time  |  avg time  |  max time  |%varavg| %total
---------------------------------------------------------------
Pair    | 0.40046    | 1.097      | 1.4315     |  28.3 | 70.79
Neigh   | 0          | 0          | 0          |   0.0 |  0.00
Comm    | 0.022929   | 0.25163    | 0.74416    |  40.8 | 16.24
Output  | 0          | 0          | 0          |   0.0 |  0.00
Modify  | 1.6989e-05 | 0.0021585  | 0.0046158  |   2.2 |  0.14
Other   |            | 0.1988     |            |       | 12.83

Nlocal:        2776.45 ave        3961 max           0 min
Histogram: 8 4 4 0 6 10 8 2 28 34
Nghost:        3879.01 ave        5424 max         232 min
Histogram: 8 0 8 0 16 0 8 8 16 40
Neighs:        79213.5 ave      115455 max           0 min
Histogram: 8 4 4 0 10 6 8 8 24 32

Total # of neighbors = 8238199
Ave neighs/atom = 28.530461
Neighbor list builds = 0
Dangerous builds = 0
The dot product: 2.41389912796738e-09
Setting atom values ...
  1 settings made for x
  1 settings made for y
  1 settings made for z
Setting up cg style minimization ...
  Unit style    : metal
  Current step  : 475
Per MPI rank memory allocation (min/avg/max) = 5.441 | 5.816 | 6.074 Mbytes
Step PotEng KinEng TotEng v_fx v_fy v_fz 
     475   -1152449.4            0   -1152449.4   0.02103185 -0.019075951 -0.031996126 
     606   -1152449.4            0   -1152449.4 8.0892523e-07 1.9352677e-07 7.6255835e-06 
Loop time of 1.55131 on 104 procs for 131 steps with 288751 atoms

99.9% CPU use with 104 MPI tasks x 1 OpenMP threads

Minimization stats:
  Stopping criterion = energy tolerance
  Energy initial, next-to-last, final = 
     -1152449.44327937  -1152449.44466001  -1152449.44466001
  Force two-norm initial, final = 0.17153766 7.1831519e-05
  Force max component initial, final = 0.079135361 8.0401176e-06
  Final line search alpha, max atom move = 1.0000000 8.0401176e-06
  Iterations, force evaluations = 131 262

MPI task timing breakdown:
Section |  min time  |  avg time  |  max time  |%varavg| %total
---------------------------------------------------------------
Pair    | 0.40505    | 1.1104     | 1.4373     |  28.2 | 71.58
Neigh   | 0          | 0          | 0          |   0.0 |  0.00
Comm    | 0.027965   | 0.25256    | 0.75391    |  41.3 | 16.28
Output  | 0          | 0          | 0          |   0.0 |  0.00
Modify  | 1.5775e-05 | 0.0021722  | 0.0046931  |   2.2 |  0.14
Other   |            | 0.1862     |            |       | 12.00

Nlocal:        2776.45 ave        3961 max           0 min
Histogram: 8 4 4 0 6 10 8 2 28 34
Nghost:        3879.01 ave        5424 max         232 min
Histogram: 8 0 8 0 16 0 8 8 16 40
Neighs:        79213.5 ave      115455 max           0 min
Histogram: 8 4 4 0 10 6 8 8 24 32

Total # of neighbors = 8238199
Ave neighs/atom = 28.530461
Neighbor list builds = 0
Dangerous builds = 0
The dot product: -2.60395462321488e-08
Setting atom values ...
  1 settings made for x
  1 settings made for y
  1 settings made for z
Setting up cg style minimization ...
  Unit style    : metal
  Current step  : 606
Per MPI rank memory allocation (min/avg/max) = 5.441 | 5.816 | 6.074 Mbytes
Step PotEng KinEng TotEng v_fx v_fy v_fz 
     606   -1152449.4            0   -1152449.4  0.019607913 -0.015604385 -0.026261105 
     733   -1152449.4            0   -1152449.4 1.1376465e-05 -8.4381098e-06 1.017791e-05 
Loop time of 1.49373 on 104 procs for 127 steps with 288751 atoms

99.9% CPU use with 104 MPI tasks x 1 OpenMP threads

Minimization stats:
  Stopping criterion = energy tolerance
  Energy initial, next-to-last, final = 
     -1152449.43854552  -1152449.43990935  -1152449.43990935
  Force two-norm initial, final = 0.16886409 0.00016006923
  Force max component initial, final = 0.07722788 3.8044728e-05
  Final line search alpha, max atom move = 1.0000000 3.8044728e-05
  Iterations, force evaluations = 127 254

MPI task timing breakdown:
Section |  min time  |  avg time  |  max time  |%varavg| %total
---------------------------------------------------------------
Pair    | 0.38672    | 1.0672     | 1.3918     |  27.9 | 71.44
Neigh   | 0          | 0          | 0          |   0.0 |  0.00
Comm    | 0.023382   | 0.24112    | 0.71511    |  40.7 | 16.14
Output  | 0          | 0          | 0          |   0.0 |  0.00
Modify  | 1.5731e-05 | 0.002102   | 0.0044802  |   2.2 |  0.14
Other   |            | 0.1833     |            |       | 12.27

Nlocal:        2776.45 ave        3961 max           0 min
Histogram: 8 4 4 0 6 10 8 2 28 34
Nghost:        3879.01 ave        5424 max         232 min
Histogram: 8 0 8 0 16 0 8 8 16 40
Neighs:        79213.5 ave      115455 max           0 min
Histogram: 8 4 4 0 10 6 8 8 24 32

Total # of neighbors = 8238201
Ave neighs/atom = 28.530467
Neighbor list builds = 0
Dangerous builds = 0
The dot product: -5.40922282177239e-08
Setting atom values ...
  1 settings made for x
  1 settings made for y
  1 settings made for z
Setting up cg style minimization ...
  Unit style    : metal
  Current step  : 733
Per MPI rank memory allocation (min/avg/max) = 5.441 | 5.816 | 6.074 Mbytes
Step PotEng KinEng TotEng v_fx v_fy v_fz 
     733   -1152449.4            0   -1152449.4  0.017887539 -0.013506235 -0.019489221 
     904   -1152449.4            0   -1152449.4 -7.2873688e-06 5.5603582e-06 6.3101667e-06 
Loop time of 1.99923 on 104 procs for 171 steps with 288751 atoms

99.9% CPU use with 104 MPI tasks x 1 OpenMP threads

Minimization stats:
  Stopping criterion = energy tolerance
  Energy initial, next-to-last, final = 
     -1152449.43244092  -1152449.43379728  -1152449.43379728
  Force two-norm initial, final = 0.167326 0.0001752518
  Force max component initial, final = 0.074557901 2.9082954e-05
  Final line search alpha, max atom move = 1.0000000 2.9082954e-05
  Iterations, force evaluations = 171 342

MPI task timing breakdown:
Section |  min time  |  avg time  |  max time  |%varavg| %total
---------------------------------------------------------------
Pair    | 0.51902    | 1.4403     | 1.8687     |  32.4 | 72.04
Neigh   | 0          | 0          | 0          |   0.0 |  0.00
Comm    | 0.031217   | 0.32478    | 0.9637     |  47.3 | 16.25
Output  | 0          | 0          | 0          |   0.0 |  0.00
Modify  | 2.0461e-05 | 0.0028255  | 0.00603    |   2.5 |  0.14
Other   |            | 0.2313     |            |       | 11.57

Nlocal:        2776.45 ave        3960 max           0 min
Histogram: 8 4 4 0 4 12 8 2 28 34
Nghost:        3879.01 ave        5424 max         232 min
Histogram: 8 0 8 0 16 0 8 8 16 40
Neighs:        79213.5 ave      115425 max           0 min
Histogram: 8 4 4 0 10 6 8 8 24 32

Total # of neighbors = 8238202
Ave neighs/atom = 28.530471
Neighbor list builds = 0
Dangerous builds = 0
The dot product: -1.36521084109504e-10
Setting atom values ...
  1 settings made for x
  1 settings made for y
  1 settings made for z
Setting up cg style minimization ...
  Unit style    : metal
  Current step  : 904
Per MPI rank memory allocation (min/avg/max) = 5.441 | 5.816 | 6.074 Mbytes
Step PotEng KinEng TotEng v_fx v_fy v_fz 
     904   -1152449.4            0   -1152449.4  0.016166065 -0.012369763 -0.013504048 
    1000   -1152449.4            0   -1152449.4 6.2935689e-05 -4.6911931e-05 -6.8298454e-05 
    1083   -1152449.4            0   -1152449.4 1.4597522e-06 -4.2357636e-06 3.8192405e-05 
Loop time of 2.11208 on 104 procs for 179 steps with 288751 atoms

99.9% CPU use with 104 MPI tasks x 1 OpenMP threads

Minimization stats:
  Stopping criterion = energy tolerance
  Energy initial, next-to-last, final = 
     -1152449.42492639  -1152449.42628331  -1152449.42628331
  Force two-norm initial, final = 0.1667709 0.00012144877
  Force max component initial, final = 0.074423697 3.8192405e-05
  Final line search alpha, max atom move = 1.0000000 3.8192405e-05
  Iterations, force evaluations = 179 358

MPI task timing breakdown:
Section |  min time  |  avg time  |  max time  |%varavg| %total
---------------------------------------------------------------
Pair    | 0.54474    | 1.505      | 1.9653     |  33.2 | 71.26
Neigh   | 0          | 0          | 0          |   0.0 |  0.00
Comm    | 0.034819   | 0.3428     | 1.0121     |  47.9 | 16.23
Output  | 0.00043369 | 0.00043683 | 0.00055894 |   0.0 |  0.02
Modify  | 2.2218e-05 | 0.0029648  | 0.0063057  |   2.6 |  0.14
Other   |            | 0.2609     |            |       | 12.35

Nlocal:        2776.45 ave        3960 max           0 min
Histogram: 8 4 4 0 4 12 8 2 28 34
Nghost:        3879.01 ave        5424 max         232 min
Histogram: 8 0 8 0 16 0 8 8 16 40
Neighs:        79213.5 ave      115425 max           0 min
Histogram: 8 4 4 0 10 6 8 8 24 32

Total # of neighbors = 8238201
Ave neighs/atom = 28.530467
Neighbor list builds = 0
Dangerous builds = 0
The dot product: -1.07963172464522e-07
Setting atom values ...
  1 settings made for x
  1 settings made for y
  1 settings made for z
Setting up cg style minimization ...
  Unit style    : metal
  Current step  : 1083
Per MPI rank memory allocation (min/avg/max) = 5.441 | 5.816 | 6.074 Mbytes
Step PotEng KinEng TotEng v_fx v_fy v_fz 
    1083   -1152449.4            0   -1152449.4  0.014771212 -0.011918251 -0.0086364298 
    1212   -1152449.4            0   -1152449.4 2.5105574e-05 -1.8156598e-05 -3.3593208e-05 
Loop time of 1.49884 on 104 procs for 129 steps with 288751 atoms

99.9% CPU use with 104 MPI tasks x 1 OpenMP threads

Minimization stats:
  Stopping criterion = energy tolerance
  Energy initial, next-to-last, final = 
     -1152449.41597238  -1152449.41733622  -1152449.41733622
  Force two-norm initial, final = 0.16682104 0.00019793186
  Force max component initial, final = 0.074747839 3.4274834e-05
  Final line search alpha, max atom move = 1.0000000 3.4274834e-05
  Iterations, force evaluations = 129 258

MPI task timing breakdown:
Section |  min time  |  avg time  |  max time  |%varavg| %total
---------------------------------------------------------------
Pair    | 0.39409    | 1.087      | 1.4105     |  28.0 | 72.52
Neigh   | 0          | 0          | 0          |   0.0 |  0.00
Comm    | 0.022605   | 0.24309    | 0.73264    |  41.6 | 16.22
Output  | 0          | 0          | 0          |   0.0 |  0.00
Modify  | 1.5923e-05 | 0.0021346  | 0.0045458  |   2.2 |  0.14
Other   |            | 0.1666     |            |       | 11.11

Nlocal:        2776.45 ave        3959 max           0 min
Histogram: 8 4 4 0 4 12 8 2 28 34
Nghost:        3879.01 ave        5424 max         232 min
Histogram: 8 0 8 0 16 0 8 8 16 40
Neighs:        79213.5 ave      115392 max           0 min
Histogram: 8 4 4 0 10 6 8 8 24 32

Total # of neighbors = 8238203
Ave neighs/atom = 28.530474
Neighbor list builds = 0
Dangerous builds = 0
The dot product: -2.12431401498591e-08
Setting atom values ...
  1 settings made for x
  1 settings made for y
  1 settings made for z
Setting up cg style minimization ...
  Unit style    : metal
  Current step  : 1212
Per MPI rank memory allocation (min/avg/max) = 5.441 | 5.816 | 6.074 Mbytes
Step PotEng KinEng TotEng v_fx v_fy v_fz 
    1212   -1152449.4            0   -1152449.4  0.013941072 -0.012043907 -0.0050014121 
    1332   -1152449.4            0   -1152449.4 9.6809147e-06 3.4493874e-06 -9.1098037e-05 
Loop time of 1.39463 on 104 procs for 120 steps with 288751 atoms

99.9% CPU use with 104 MPI tasks x 1 OpenMP threads

Minimization stats:
  Stopping criterion = energy tolerance
  Energy initial, next-to-last, final = 
     -1152449.40555852  -1152449.40693052  -1152449.40693052
  Force two-norm initial, final = 0.16716047 0.00029364931
  Force max component initial, final = 0.074678149 9.1098037e-05
  Final line search alpha, max atom move = 1.0000000 9.1098037e-05
  Iterations, force evaluations = 120 240

MPI task timing breakdown:
Section |  min time  |  avg time  |  max time  |%varavg| %total
---------------------------------------------------------------
Pair    | 0.36514    | 1.0089     | 1.3101     |  27.1 | 72.34
Neigh   | 0          | 0          | 0          |   0.0 |  0.00
Comm    | 0.021731   | 0.22675    | 0.67947    |  40.0 | 16.26
Output  | 0          | 0          | 0          |   0.0 |  0.00
Modify  | 1.5816e-05 | 0.0019872  | 0.0042467  |   2.1 |  0.14
Other   |            | 0.157      |            |       | 11.26

Nlocal:        2776.45 ave        3954 max           0 min
Histogram: 8 4 4 0 4 12 8 2 28 34
Nghost:        3879.01 ave        5424 max         232 min
Histogram: 8 0 8 0 16 0 8 8 16 40
Neighs:        79213.5 ave      115235 max           0 min
Histogram: 8 4 4 0 10 6 8 8 24 32

Total # of neighbors = 8238201
Ave neighs/atom = 28.530467
Neighbor list builds = 0
Dangerous builds = 0
The dot product: 1.47004066734609e-07
Setting atom values ...
  1 settings made for x
  1 settings made for y
  1 settings made for z
Setting up cg style minimization ...
  Unit style    : metal
  Current step  : 1332
Per MPI rank memory allocation (min/avg/max) = 5.441 | 5.816 | 6.074 Mbytes
Step PotEng KinEng TotEng v_fx v_fy v_fz 
    1332   -1152449.4            0   -1152449.4  0.013879369 -0.012803938 -0.0024610962 
    1475   -1152449.4            0   -1152449.4 2.6511941e-05 -1.8587743e-05 -4.2951164e-05 
Loop time of 1.68464 on 104 procs for 143 steps with 288751 atoms

99.9% CPU use with 104 MPI tasks x 1 OpenMP threads

Minimization stats:
  Stopping criterion = energy tolerance
  Energy initial, next-to-last, final = 
     -1152449.39366486   -1152449.3950433   -1152449.3950433
  Force two-norm initial, final = 0.1675484 0.00025011749
  Force max component initial, final = 0.074452543 4.2951164e-05
  Final line search alpha, max atom move = 1.0000000 4.2951164e-05
  Iterations, force evaluations = 143 286

MPI task timing breakdown:
Section |  min time  |  avg time  |  max time  |%varavg| %total
---------------------------------------------------------------
Pair    | 0.43323    | 1.2055     | 1.5633     |  29.6 | 71.56
Neigh   | 0          | 0          | 0          |   0.0 |  0.00
Comm    | 0.025689   | 0.27327    | 0.82086    |  43.6 | 16.22
Output  | 0          | 0          | 0          |   0.0 |  0.00
Modify  | 1.7343e-05 | 0.002366   | 0.0051181  |   2.3 |  0.14
Other   |            | 0.2035     |            |       | 12.08

Nlocal:        2776.45 ave        3952 max           0 min
Histogram: 8 4 4 0 4 12 8 2 28 34
Nghost:        3879.01 ave        5424 max         232 min
Histogram: 8 0 8 0 16 0 8 8 16 40
Neighs:        79213.5 ave      115164 max           0 min
Histogram: 8 4 4 0 10 6 8 8 24 32

Total # of neighbors = 8238202
Ave neighs/atom = 28.530471
Neighbor list builds = 0
Dangerous builds = 0
The dot product: -2.26619489911267e-08
Setting atom values ...
  1 settings made for x
  1 settings made for y
  1 settings made for z
Setting up cg style minimization ...
  Unit style    : metal
  Current step  : 1475
Per MPI rank memory allocation (min/avg/max) = 5.441 | 5.816 | 6.074 Mbytes
Step PotEng KinEng TotEng v_fx v_fy v_fz 
    1475   -1152449.4            0   -1152449.4  0.014573054 -0.014187968 -0.000721888 
    1608   -1152449.4            0   -1152449.4 1.5545939e-06 5.0051118e-06 -3.8640272e-05 
Loop time of 1.56831 on 104 procs for 133 steps with 288751 atoms

99.9% CPU use with 104 MPI tasks x 1 OpenMP threads

Minimization stats:
  Stopping criterion = energy tolerance
  Energy initial, next-to-last, final = 
     -1152449.38027102  -1152449.38165472  -1152449.38165472
  Force two-norm initial, final = 0.16801607 0.00024333975
  Force max component initial, final = 0.074324056 4.8842423e-05
  Final line search alpha, max atom move = 1.0000000 4.8842423e-05
  Iterations, force evaluations = 133 266

MPI task timing breakdown:
Section |  min time  |  avg time  |  max time  |%varavg| %total
---------------------------------------------------------------
Pair    | 0.40449    | 1.1212     | 1.4601     |  28.7 | 71.49
Neigh   | 0          | 0          | 0          |   0.0 |  0.00
Comm    | 0.023922   | 0.25513    | 0.7544     |  41.6 | 16.27
Output  | 0          | 0          | 0          |   0.0 |  0.00
Modify  | 1.671e-05  | 0.0022017  | 0.0047241  |   2.2 |  0.14
Other   |            | 0.1897     |            |       | 12.10

Nlocal:        2776.45 ave        3950 max           0 min
Histogram: 8 4 4 0 4 12 8 2 26 36
Nghost:        3879.01 ave        5424 max         232 min
Histogram: 8 0 8 0 16 0 8 8 16 40
Neighs:        79213.5 ave      115086 max           0 min
Histogram: 8 4 4 0 10 6 8 8 24 32

Total # of neighbors = 8238203
Ave neighs/atom = 28.530474
Neighbor list builds = 0
Dangerous builds = 0
The dot product: 6.53164869654402e-08
Setting atom values ...
  1 settings made for x
  1 settings made for y
  1 settings made for z
Setting up cg style minimization ...
  Unit style    : metal
  Current step  : 1608
Per MPI rank memory allocation (min/avg/max) = 5.441 | 5.816 | 6.074 Mbytes
Step PotEng KinEng TotEng v_fx v_fy v_fz 
    1608   -1152449.4            0   -1152449.4  0.015587706   -0.0157742 0.00033455275 
    1765   -1152449.4            0   -1152449.4 1.5195598e-05 6.7645344e-07 -8.7569663e-05 
Loop time of 1.84215 on 104 procs for 157 steps with 288751 atoms

99.9% CPU use with 104 MPI tasks x 1 OpenMP threads

Minimization stats:
  Stopping criterion = energy tolerance
  Energy initial, next-to-last, final = 
     -1152449.36536039  -1152449.36674844  -1152449.36674844
  Force two-norm initial, final = 0.16835437 0.00026037149
  Force max component initial, final = 0.074260106 8.7569663e-05
  Final line search alpha, max atom move = 1.0000000 8.7569663e-05
  Iterations, force evaluations = 157 314

MPI task timing breakdown:
Section |  min time  |  avg time  |  max time  |%varavg| %total
---------------------------------------------------------------
Pair    | 0.4778     | 1.3226     | 1.7155     |  31.0 | 71.80
Neigh   | 0          | 0          | 0          |   0.0 |  0.00
Comm    | 0.027923   | 0.29865    | 0.89       |  45.8 | 16.21
Output  | 0          | 0          | 0          |   0.0 |  0.00
Modify  | 1.8569e-05 | 0.0025982  | 0.0055575  |   2.4 |  0.14
Other   |            | 0.2183     |            |       | 11.85

Nlocal:        2776.45 ave        3948 max           0 min
Histogram: 8 4 4 0 4 12 8 2 26 36
Nghost:        3879.01 ave        5424 max         232 min
Histogram: 8 0 8 0 16 0 8 8 16 40
Neighs:        79213.5 ave      115025 max           0 min
Histogram: 8 4 4 0 10 6 8 8 24 32

Total # of neighbors = 8238204
Ave neighs/atom = 28.530478
Neighbor list builds = 0
Dangerous builds = 0
The dot product: 1.20093056969662e-07
Setting atom values ...
  1 settings made for x
  1 settings made for y
  1 settings made for z
Setting up cg style minimization ...
  Unit style    : metal
  Current step  : 1765
Per MPI rank memory allocation (min/avg/max) = 5.441 | 5.816 | 6.074 Mbytes
Step PotEng KinEng TotEng v_fx v_fy v_fz 
    1765   -1152449.3            0   -1152449.3  0.016291662 -0.016859853 0.00047085954 
    1929   -1152449.4            0   -1152449.4 1.2950046e-05 -1.4890288e-05 7.9823732e-06 
Loop time of 1.90808 on 104 procs for 164 steps with 288751 atoms

99.9% CPU use with 104 MPI tasks x 1 OpenMP threads

Minimization stats:
  Stopping criterion = energy tolerance
  Energy initial, next-to-last, final = 
     -1152449.34890945  -1152449.35030205  -1152449.35030205
  Force two-norm initial, final = 0.16863095 0.00021208626
  Force max component initial, final = 0.074367468 3.6233422e-05
  Final line search alpha, max atom move = 1.0000000 3.6233422e-05
  Iterations, force evaluations = 164 328

MPI task timing breakdown:
Section |  min time  |  avg time  |  max time  |%varavg| %total
---------------------------------------------------------------
Pair    | 0.49936    | 1.3748     | 1.7888     |  31.6 | 72.05
Neigh   | 0          | 0          | 0          |   0.0 |  0.00
Comm    | 0.033562   | 0.30981    | 0.92349    |  46.3 | 16.24
Output  | 0          | 0          | 0          |   0.0 |  0.00
Modify  | 1.9803e-05 | 0.0027085  | 0.0058089  |   2.4 |  0.14
Other   |            | 0.2208     |            |       | 11.57

Nlocal:        2776.45 ave        3946 max           0 min
Histogram: 8 4 4 0 4 12 8 2 26 36
Nghost:        3879.01 ave        5424 max         232 min
Histogram: 8 0 8 0 16 0 8 8 16 40
Neighs:        79213.5 ave      114958 max           0 min
Histogram: 8 4 4 0 10 6 8 8 24 32

Total # of neighbors = 8238204
Ave neighs/atom = 28.530478
Neighbor list builds = 0
Dangerous builds = 0
The dot product: -5.73365342673519e-08
Setting atom values ...
  1 settings made for x
  1 settings made for y
  1 settings made for z
Setting up cg style minimization ...
  Unit style    : metal
  Current step  : 1929
Per MPI rank memory allocation (min/avg/max) = 5.441 | 5.816 | 6.074 Mbytes
Step PotEng KinEng TotEng v_fx v_fy v_fz 
    1929   -1152449.3            0   -1152449.3  0.016170315 -0.016909398 -0.00020530826 
    2000   -1152449.3            0   -1152449.3 5.1179246e-05 -4.8987167e-05 -2.2250084e-05 
    2115   -1152449.3            0   -1152449.3 3.9486443e-06 -4.3743919e-06 1.1190504e-06 
Loop time of 2.15366 on 104 procs for 186 steps with 288751 atoms

99.9% CPU use with 104 MPI tasks x 1 OpenMP threads

Minimization stats:
  Stopping criterion = energy tolerance
  Energy initial, next-to-last, final = 
     -1152449.33089067  -1152449.33230281  -1152449.33230281
  Force two-norm initial, final = 0.16876727 0.00010551656
  Force max component initial, final = 0.074480652 2.2606362e-05
  Final line search alpha, max atom move = 1.0000000 2.2606362e-05
  Iterations, force evaluations = 186 372

MPI task timing breakdown:
Section |  min time  |  avg time  |  max time  |%varavg| %total
---------------------------------------------------------------
Pair    | 0.56349    | 1.5634     | 2.0251     |  33.8 | 72.59
Neigh   | 0          | 0          | 0          |   0.0 |  0.00
Comm    | 0.036505   | 0.34978    | 1.0486     |  49.6 | 16.24
Output  | 0.00023871 | 0.00024606 | 0.00036978 |   0.0 |  0.01
Modify  | 2.3563e-05 | 0.0030719  | 0.0065721  |   2.6 |  0.14
Other   |            | 0.2372     |            |       | 11.01

Nlocal:        2776.45 ave        3942 max           0 min
Histogram: 8 4 4 0 4 12 8 2 26 36
Nghost:        3879.05 ave        5424 max         232 min
Histogram: 8 0 8 0 16 0 8 8 16 40
Neighs:        79213.5 ave      114856 max           0 min
Histogram: 8 4 4 0 10 6 8 8 22 34

Total # of neighbors = 8238202
Ave neighs/atom = 28.530471
Neighbor list builds = 0
Dangerous builds = 0
The dot product: -2.02755878459132e-08
Setting atom values ...
  1 settings made for x
  1 settings made for y
  1 settings made for z
Setting up cg style minimization ...
  Unit style    : metal
  Current step  : 2115
Per MPI rank memory allocation (min/avg/max) = 5.441 | 5.816 | 6.074 Mbytes
Step PotEng KinEng TotEng v_fx v_fy v_fz 
    2115   -1152449.3            0   -1152449.3  0.013872212 -0.013875295 -0.0043647376 
    2263   -1152449.3            0   -1152449.3 -1.7136906e-05 3.9706304e-06 6.256652e-05 
Loop time of 1.72414 on 104 procs for 148 steps with 288751 atoms

99.9% CPU use with 104 MPI tasks x 1 OpenMP threads

Minimization stats:
  Stopping criterion = energy tolerance
  Energy initial, next-to-last, final = 
     -1152449.31130228   -1152449.3128706   -1152449.3128706
  Force two-norm initial, final = 0.16866646 0.00024321086
  Force max component initial, final = 0.074321925 6.2566520e-05
  Final line search alpha, max atom move = 1.0000000 6.2566520e-05
  Iterations, force evaluations = 148 296

MPI task timing breakdown:
Section |  min time  |  avg time  |  max time  |%varavg| %total
---------------------------------------------------------------
Pair    | 0.44861    | 1.2424     | 1.6151     |  30.2 | 72.06
Neigh   | 0          | 0          | 0          |   0.0 |  0.00
Comm    | 0.027824   | 0.27976    | 0.83675    |  44.2 | 16.23
Output  | 0          | 0          | 0          |   0.0 |  0.00
Modify  | 1.8624e-05 | 0.0024444  | 0.0052393  |   2.3 |  0.14
Other   |            | 0.1995     |            |       | 11.57

Nlocal:        2776.45 ave        3936 max           0 min
Histogram: 8 4 4 0 4 12 8 0 28 36
Nghost:        3879.05 ave        5424 max         232 min
Histogram: 8 0 8 0 16 0 8 8 16 40
Neighs:        79213.4 ave      114659 max           0 min
Histogram: 8 4 4 0 8 8 8 8 22 34

Total # of neighbors = 8238196
Ave neighs/atom = 28.530450
Neighbor list builds = 0
Dangerous builds = 0
The dot product: -4.19233351633167e-07
Setting atom values ...
  1 settings made for x
  1 settings made for y
  1 settings made for z
Setting up cg style minimization ...
  Unit style    : metal
  Current step  : 2263
Per MPI rank memory allocation (min/avg/max) = 5.441 | 5.816 | 6.074 Mbytes
Step PotEng KinEng TotEng v_fx v_fy v_fz 
    2263   -1152449.3            0   -1152449.3 -0.0019363135  0.010144705 -0.027454962 
    2475   -1152449.3            0   -1152449.3 1.2333076e-05 -2.8165525e-06 -3.9240887e-05 
Loop time of 2.47648 on 104 procs for 212 steps with 288751 atoms

99.9% CPU use with 104 MPI tasks x 1 OpenMP threads

Minimization stats:
  Stopping criterion = energy tolerance
  Energy initial, next-to-last, final = 
      -1152449.2903911  -1152449.29271353  -1152449.29271353
  Force two-norm initial, final = 0.17083888 0.00010141806
  Force max component initial, final = 0.072008351 3.9240887e-05
  Final line search alpha, max atom move = 1.0000000 3.9240887e-05
  Iterations, force evaluations = 212 424

MPI task timing breakdown:
Section |  min time  |  avg time  |  max time  |%varavg| %total
---------------------------------------------------------------
Pair    | 0.64284    | 1.7816     | 2.3041     |  36.1 | 71.94
Neigh   | 0          | 0          | 0          |   0.0 |  0.00
Comm    | 0.037247   | 0.40247    | 1.1965     |  52.6 | 16.25
Output  | 0          | 0          | 0          |   0.0 |  0.00
Modify  | 2.6289e-05 | 0.0034958  | 0.0075023  |   2.8 |  0.14
Other   |            | 0.2889     |            |       | 11.66

Nlocal:        2776.45 ave        3930 max           0 min
Histogram: 8 4 4 0 4 12 8 0 26 38
Nghost:        3879.05 ave        5424 max         232 min
Histogram: 8 0 8 0 16 0 8 8 16 40
Neighs:        79213.5 ave      114458 max           0 min
Histogram: 8 4 4 0 8 8 8 8 20 36

Total # of neighbors = 8238199
Ave neighs/atom = 28.530461
Neighbor list builds = 0
Dangerous builds = 0
The dot product: 4.69782254217039e-07
Setting atom values ...
  1 settings made for x
  1 settings made for y
  1 settings made for z
Setting up cg style minimization ...
  Unit style    : metal
  Current step  : 2475
Per MPI rank memory allocation (min/avg/max) = 5.441 | 5.816 | 6.074 Mbytes
Step PotEng KinEng TotEng v_fx v_fy v_fz 
    2475   -1152449.3            0   -1152449.3 -0.025295696  0.058430879 -0.059114422 
    2691   -1152449.3            0   -1152449.3 3.5798606e-06 4.4833678e-06 -2.217958e-05 
Loop time of 2.52867 on 104 procs for 216 steps with 288751 atoms

99.9% CPU use with 104 MPI tasks x 1 OpenMP threads

Minimization stats:
  Stopping criterion = energy tolerance
  Energy initial, next-to-last, final = 
     -1152449.26908722  -1152449.27260644  -1152449.27260644
  Force two-norm initial, final = 0.19073066 0.00011056718
  Force max component initial, final = 0.078945932 2.2179580e-05
  Final line search alpha, max atom move = 1.0000000 2.2179580e-05
  Iterations, force evaluations = 216 432

MPI task timing breakdown:
Section |  min time  |  avg time  |  max time  |%varavg| %total
---------------------------------------------------------------
Pair    | 0.65463    | 1.8092     | 2.3456     |  36.3 | 71.55
Neigh   | 0          | 0          | 0          |   0.0 |  0.00
Comm    | 0.040074   | 0.40647    | 1.2166     |  53.4 | 16.07
Output  | 0          | 0          | 0          |   0.0 |  0.00
Modify  | 2.5765e-05 | 0.0035641  | 0.0076224  |   2.8 |  0.14
Other   |            | 0.3094     |            |       | 12.24

Nlocal:        2776.45 ave        3930 max           0 min
Histogram: 8 4 4 0 4 12 8 0 26 38
Nghost:        3879.12 ave        5425 max         232 min
Histogram: 8 0 8 0 16 0 8 8 16 40
Neighs:        79213.4 ave      114460 max           0 min
Histogram: 8 4 4 0 8 8 8 8 20 36

Total # of neighbors = 8238195
Ave neighs/atom = 28.530447
Neighbor list builds = 0
Dangerous builds = 0
The dot product: 4.94306061806485e-07
Setting atom values ...
  1 settings made for x
  1 settings made for y
  1 settings made for z
Setting up cg style minimization ...
  Unit style    : metal
  Current step  : 2691
Per MPI rank memory allocation (min/avg/max) = 5.441 | 5.816 | 6.074 Mbytes
Step PotEng KinEng TotEng v_fx v_fy v_fz 
    2691   -1152449.2            0   -1152449.2 -0.031704454  0.091172774 -0.064471705 
    2919   -1152449.3            0   -1152449.3 -8.1997121e-07 -2.9875245e-08 2.2568603e-06 
Loop time of 2.66275 on 104 procs for 228 steps with 288751 atoms

99.9% CPU use with 104 MPI tasks x 1 OpenMP threads

Minimization stats:
  Stopping criterion = energy tolerance
  Energy initial, next-to-last, final = 
     -1152449.24799244  -1152449.25211755  -1152449.25211755
  Force two-norm initial, final = 0.2067892 5.9675835e-05
  Force max component initial, final = 0.091172774 7.8813898e-06
  Final line search alpha, max atom move = 1.0000000 7.8813898e-06
  Iterations, force evaluations = 228 456

MPI task timing breakdown:
Section |  min time  |  avg time  |  max time  |%varavg| %total
---------------------------------------------------------------
Pair    | 0.69121    | 1.9193     | 2.493      |  37.4 | 72.08
Neigh   | 0          | 0          | 0          |   0.0 |  0.00
Comm    | 0.045784   | 0.43433    | 1.3068     |  54.9 | 16.31
Output  | 0          | 0          | 0          |   0.0 |  0.00
Modify  | 2.751e-05  | 0.0037667  | 0.0080312  |   2.9 |  0.14
Other   |            | 0.3054     |            |       | 11.47

Nlocal:        2776.45 ave        3936 max           0 min
Histogram: 8 4 4 0 4 12 8 0 28 36
Nghost:        3879.14 ave        5425 max         232 min
Histogram: 8 0 8 0 16 0 8 8 16 40
Neighs:        79213.4 ave      114658 max           0 min
Histogram: 8 4 4 0 8 8 8 8 22 34

Total # of neighbors = 8238198
Ave neighs/atom = 28.530457
Neighbor list builds = 0
Dangerous builds = 0
The dot product: -3.42897039221023e-08
Setting atom values ...
  1 settings made for x
  1 settings made for y
  1 settings made for z
Setting up cg style minimization ...
  Unit style    : metal
  Current step  : 2919
Per MPI rank memory allocation (min/avg/max) = 5.441 | 5.816 | 6.074 Mbytes
Step PotEng KinEng TotEng v_fx v_fy v_fz 
    2919   -1152449.2            0   -1152449.2 -0.025474347   0.10292176  -0.05697909 
    3000   -1152449.2            0   -1152449.2 -8.7218992e-05 7.1504973e-05 0.00012474272 
    3128   -1152449.2            0   -1152449.2 -1.3863274e-05 3.7738841e-06 2.8472008e-05 
Loop time of 2.43098 on 104 procs for 209 steps with 288751 atoms

99.9% CPU use with 104 MPI tasks x 1 OpenMP threads

Minimization stats:
  Stopping criterion = energy tolerance
  Energy initial, next-to-last, final = 
     -1152449.22678428  -1152449.23080589  -1152449.23080589
  Force two-norm initial, final = 0.20958003 0.00014634141
  Force max component initial, final = 0.10292176 2.8472008e-05
  Final line search alpha, max atom move = 1.0000000 2.8472008e-05
  Iterations, force evaluations = 209 418

MPI task timing breakdown:
Section |  min time  |  avg time  |  max time  |%varavg| %total
---------------------------------------------------------------
Pair    | 0.6394     | 1.7559     | 2.2881     |  35.6 | 72.23
Neigh   | 0          | 0          | 0          |   0.0 |  0.00
Comm    | 0.037223   | 0.39609    | 1.1826     |  52.6 | 16.29
Output  | 0.00023706 | 0.00023938 | 0.00035577 |   0.0 |  0.01
Modify  | 2.4814e-05 | 0.0034552  | 0.0073389  |   2.8 |  0.14
Other   |            | 0.2753     |            |       | 11.33

Nlocal:        2776.45 ave        3944 max           0 min
Histogram: 8 4 4 0 4 12 8 2 26 36
Nghost:        3879.11 ave        5425 max         232 min
Histogram: 8 0 8 0 16 0 8 8 16 40
Neighs:        79213.5 ave      114907 max           0 min
Histogram: 8 4 4 0 10 6 8 8 22 34

Total # of neighbors = 8238203
Ave neighs/atom = 28.530474
Neighbor list builds = 0
Dangerous builds = 0
The dot product: -2.57209652995864e-07
Setting atom values ...
  1 settings made for x
  1 settings made for y
  1 settings made for z
Setting up cg style minimization ...
  Unit style    : metal
  Current step  : 3128
Per MPI rank memory allocation (min/avg/max) = 5.441 | 5.816 | 6.074 Mbytes
Step PotEng KinEng TotEng v_fx v_fy v_fz 
    3128   -1152449.2            0   -1152449.2 -0.015403793  0.093989789 -0.043187342 
    3510   -1152449.2            0   -1152449.2 1.3363118e-08 6.8051184e-09 -3.4191067e-08 
Loop time of 4.4598 on 104 procs for 382 steps with 288751 atoms

99.9% CPU use with 104 MPI tasks x 1 OpenMP threads

Minimization stats:
  Stopping criterion = energy tolerance
  Energy initial, next-to-last, final = 
     -1152449.20476403  -1152449.20820875  -1152449.20820875
  Force two-norm initial, final = 0.20085342 2.5852090e-07
  Force max component initial, final = 0.11013011 4.7508050e-08
  Final line search alpha, max atom move = 1.0000000 4.7508050e-08
  Iterations, force evaluations = 382 764

MPI task timing breakdown:
Section |  min time  |  avg time  |  max time  |%varavg| %total
---------------------------------------------------------------
Pair    | 1.1558     | 3.2164     | 4.1884     |  48.4 | 72.12
Neigh   | 0          | 0          | 0          |   0.0 |  0.00
Comm    | 0.070269   | 0.73051    | 2.1871     |  70.7 | 16.38
Output  | 0          | 0          | 0          |   0.0 |  0.00
Modify  | 4.8548e-05 | 0.0062996  | 0.013511   |   3.7 |  0.14
Other   |            | 0.5066     |            |       | 11.36

Nlocal:        2776.45 ave        3952 max           0 min
Histogram: 8 4 4 0 4 12 8 2 28 34
Nghost:        3879.05 ave        5425 max         232 min
Histogram: 8 0 8 0 16 0 8 8 16 40
Neighs:        79213.5 ave      115158 max           0 min
Histogram: 8 4 4 0 10 6 8 8 24 32

Total # of neighbors = 8238207
Ave neighs/atom = 28.530488
Neighbor list builds = 0
Dangerous builds = 0
The dot product: 6.22364055315569e-10
Setting atom values ...
  1 settings made for x
  1 settings made for y
  1 settings made for z
Setting up cg style minimization ...
  Unit style    : metal
  Current step  : 3510
Per MPI rank memory allocation (min/avg/max) = 5.441 | 5.816 | 6.074 Mbytes
Step PotEng KinEng TotEng v_fx v_fy v_fz 
    3510   -1152449.2            0   -1152449.2 -0.0059588159  0.077627862 -0.034114937 
    3709   -1152449.2            0   -1152449.2 -4.0732115e-06 2.9966777e-06 6.2816131e-06 
Loop time of 2.31948 on 104 procs for 199 steps with 288751 atoms

99.9% CPU use with 104 MPI tasks x 1 OpenMP threads

Minimization stats:
  Stopping criterion = energy tolerance
  Energy initial, next-to-last, final = 
     -1152449.18156169  -1152449.18465164  -1152449.18465164
  Force two-norm initial, final = 0.19070801 0.00014057967
  Force max component initial, final = 0.11591133 1.2931612e-05
  Final line search alpha, max atom move = 1.0000000 1.2931612e-05
  Iterations, force evaluations = 199 398

MPI task timing breakdown:
Section |  min time  |  avg time  |  max time  |%varavg| %total
---------------------------------------------------------------
Pair    | 0.60472    | 1.676      | 2.1854     |  35.0 | 72.26
Neigh   | 0          | 0          | 0          |   0.0 |  0.00
Comm    | 0.035833   | 0.37828    | 1.135      |  51.5 | 16.31
Output  | 0          | 0          | 0          |   0.0 |  0.00
Modify  | 2.3826e-05 | 0.0032917  | 0.0070425  |   2.7 |  0.14
Other   |            | 0.2619     |            |       | 11.29

Nlocal:        2776.45 ave        3953 max           0 min
Histogram: 8 4 4 0 4 12 8 2 28 34
Nghost:        3879.00 ave        5425 max         232 min
Histogram: 8 0 8 0 16 0 8 8 16 40
Neighs:        79213.5 ave      115203 max           0 min
Histogram: 8 4 4 0 10 6 8 8 24 32

Total # of neighbors = 8238206
Ave neighs/atom = 28.530485
Neighbor list builds = 0
Dangerous builds = 0
The dot product: -2.84137737488317e-08
Setting atom values ...
  1 settings made for x
  1 settings made for y
  1 settings made for z
Setting up cg style minimization ...
  Unit style    : metal
  Current step  : 3709
Per MPI rank memory allocation (min/avg/max) = 5.441 | 5.816 | 6.074 Mbytes
Step PotEng KinEng TotEng v_fx v_fy v_fz 
    3709   -1152449.2            0   -1152449.2 0.0025205068  0.063865388 -0.032424231 
    3960   -1152449.2            0   -1152449.2 -1.4413391e-06 -2.45215e-07 2.7383498e-06 
Loop time of 2.91631 on 104 procs for 251 steps with 288751 atoms

99.9% CPU use with 104 MPI tasks x 1 OpenMP threads

Minimization stats:
  Stopping criterion = energy tolerance
  Energy initial, next-to-last, final = 
     -1152449.15754101  -1152449.16027558  -1152449.16027558
  Force two-norm initial, final = 0.18404181 1.5231740e-05
  Force max component initial, final = 0.12003856 4.2727396e-06
  Final line search alpha, max atom move = 1.0000000 4.2727396e-06
  Iterations, force evaluations = 251 502

MPI task timing breakdown:
Section |  min time  |  avg time  |  max time  |%varavg| %total
---------------------------------------------------------------
Pair    | 0.75811    | 2.106      | 2.739      |  39.0 | 72.21
Neigh   | 0          | 0          | 0          |   0.0 |  0.00
Comm    | 0.053624   | 0.47419    | 1.4224     |  57.5 | 16.26
Output  | 0          | 0          | 0          |   0.0 |  0.00
Modify  | 3.0579e-05 | 0.00414    | 0.0088427  |   3.0 |  0.14
Other   |            | 0.332      |            |       | 11.38

Nlocal:        2776.45 ave        3953 max           0 min
Histogram: 8 4 4 0 4 12 8 2 28 34
Nghost:        3878.99 ave        5425 max         232 min
Histogram: 8 0 8 0 16 0 8 8 16 40
Neighs:        79213.6 ave      115199 max           0 min
Histogram: 8 4 4 0 10 6 8 8 24 32

Total # of neighbors = 8238211
Ave neighs/atom = 28.530502
Neighbor list builds = 0
Dangerous builds = 0
The dot product: -4.80322000620382e-08
Setting atom values ...
  1 settings made for x
  1 settings made for y
  1 settings made for z
Setting up cg style minimization ...
  Unit style    : metal
  Current step  : 3960
Per MPI rank memory allocation (min/avg/max) = 5.441 | 5.816 | 6.074 Mbytes
Step PotEng KinEng TotEng v_fx v_fy v_fz 
    3960   -1152449.1            0   -1152449.1 0.0087477672  0.055998015 -0.032686104 
    4000   -1152449.1            0   -1152449.1 0.00023501033 -0.00011267748 -0.00036078031 
    4131   -1152449.1            0   -1152449.1 -2.9526331e-05 1.0312881e-05 4.6557574e-05 
Loop time of 1.98307 on 104 procs for 171 steps with 288751 atoms

99.9% CPU use with 104 MPI tasks x 1 OpenMP threads

Minimization stats:
  Stopping criterion = energy tolerance
  Energy initial, next-to-last, final = 
     -1152449.13244448  -1152449.13491253  -1152449.13491253
  Force two-norm initial, final = 0.18139367 0.00028233512
  Force max component initial, final = 0.12421972 5.2383195e-05
  Final line search alpha, max atom move = 1.0000000 5.2383195e-05
  Iterations, force evaluations = 171 342

MPI task timing breakdown:
Section |  min time  |  avg time  |  max time  |%varavg| %total
---------------------------------------------------------------
Pair    | 0.51562    | 1.4336     | 1.8708     |  32.4 | 72.29
Neigh   | 0          | 0          | 0          |   0.0 |  0.00
Comm    | 0.030486   | 0.3229     | 0.96924    |  47.6 | 16.28
Output  | 0.00016372 | 0.00017284 | 0.00027006 |   0.0 |  0.01
Modify  | 2.2172e-05 | 0.0028211  | 0.0060298  |   2.5 |  0.14
Other   |            | 0.2235     |            |       | 11.27

Nlocal:        2776.45 ave        3954 max           0 min
Histogram: 8 4 4 0 4 12 8 2 28 34
Nghost:        3878.96 ave        5425 max         232 min
Histogram: 8 0 8 0 16 0 8 8 16 40
Neighs:        79213.6 ave      115254 max           0 min
Histogram: 8 4 4 0 10 6 8 8 24 32

Total # of neighbors = 8238214
Ave neighs/atom = 28.530512
Neighbor list builds = 0
Dangerous builds = 0
The dot product: -5.92452684033908e-07
Setting atom values ...
  1 settings made for x
  1 settings made for y
  1 settings made for z
Setting up cg style minimization ...
  Unit style    : metal
  Current step  : 4131
Per MPI rank memory allocation (min/avg/max) = 5.441 | 5.816 | 6.074 Mbytes
Step PotEng KinEng TotEng v_fx v_fy v_fz 
    4131   -1152449.1            0   -1152449.1  0.011333485  0.046559556  -0.02884998 
    4366   -1152449.1            0   -1152449.1 2.711998e-06 -5.2598472e-07 -4.1449262e-06 
Loop time of 2.72778 on 104 procs for 235 steps with 288751 atoms

99.9% CPU use with 104 MPI tasks x 1 OpenMP threads

Minimization stats:
  Stopping criterion = energy tolerance
  Energy initial, next-to-last, final = 
     -1152449.10616042  -1152449.10829813  -1152449.10829813
  Force two-norm initial, final = 0.17858975 2.2447925e-05
  Force max component initial, final = 0.12822772 4.1449262e-06
  Final line search alpha, max atom move = 1.0000000 4.1449262e-06
  Iterations, force evaluations = 235 470

MPI task timing breakdown:
Section |  min time  |  avg time  |  max time  |%varavg| %total
---------------------------------------------------------------
Pair    | 0.70777    | 1.9754     | 2.5692     |  38.0 | 72.42
Neigh   | 0          | 0          | 0          |   0.0 |  0.00
Comm    | 0.042414   | 0.44357    | 1.3245     |  55.9 | 16.26
Output  | 0          | 0          | 0          |   0.0 |  0.00
Modify  | 2.7783e-05 | 0.0038761  | 0.0082507  |   2.9 |  0.14
Other   |            | 0.3049     |            |       | 11.18

Nlocal:        2776.45 ave        3954 max           0 min
Histogram: 8 4 4 0 4 12 8 2 28 34
Nghost:        3878.96 ave        5425 max         232 min
Histogram: 8 0 8 0 16 0 8 8 16 40
Neighs:        79213.6 ave      115249 max           0 min
Histogram: 8 4 4 0 10 6 8 8 24 32

Total # of neighbors = 8238213
Ave neighs/atom = 28.530509
Neighbor list builds = 0
Dangerous builds = 0
The dot product: 5.3684029625065e-08
Setting atom values ...
  1 settings made for x
  1 settings made for y
  1 settings made for z
Setting up cg style minimization ...
  Unit style    : metal
  Current step  : 4366
Per MPI rank memory allocation (min/avg/max) = 5.441 | 5.816 | 6.074 Mbytes
Step PotEng KinEng TotEng v_fx v_fy v_fz 
    4366   -1152449.1            0   -1152449.1  0.010861625  0.035957781 -0.022592043 
    4580   -1152449.1            0   -1152449.1 7.7146615e-07 4.4665262e-07 -1.2266747e-06 
Loop time of 2.49952 on 104 procs for 214 steps with 288751 atoms

99.9% CPU use with 104 MPI tasks x 1 OpenMP threads

Minimization stats:
  Stopping criterion = energy tolerance
  Energy initial, next-to-last, final = 
     -1152449.07842863  -1152449.08032979  -1152449.08032979
  Force two-norm initial, final = 0.17611389 5.0490937e-05
  Force max component initial, final = 0.13179513 4.0087399e-06
  Final line search alpha, max atom move = 1.0000000 4.0087399e-06
  Iterations, force evaluations = 214 428

MPI task timing breakdown:
Section |  min time  |  avg time  |  max time  |%varavg| %total
---------------------------------------------------------------
Pair    | 0.64744    | 1.7951     | 2.3495     |  36.3 | 71.82
Neigh   | 0          | 0          | 0          |   0.0 |  0.00
Comm    | 0.037018   | 0.40538    | 1.2068     |  52.9 | 16.22
Output  | 0          | 0          | 0          |   0.0 |  0.00
Modify  | 2.5757e-05 | 0.0035371  | 0.007562   |   2.8 |  0.14
Other   |            | 0.2955     |            |       | 11.82

Nlocal:        2776.45 ave        3955 max           0 min
Histogram: 8 4 4 0 4 12 8 1 29 34
Nghost:        3878.95 ave        5425 max         232 min
Histogram: 8 0 8 0 16 0 8 8 16 40
Neighs:        79213.6 ave      115293 max           0 min
Histogram: 8 4 4 0 10 6 8 8 24 32

Total # of neighbors = 8238212
Ave neighs/atom = 28.530506
Neighbor list builds = 0
Dangerous builds = 0
The dot product: 1.89815844881807e-08
Setting atom values ...
  1 settings made for x
  1 settings made for y
  1 settings made for z
Setting up cg style minimization ...
  Unit style    : metal
  Current step  : 4580
Per MPI rank memory allocation (min/avg/max) = 5.441 | 5.816 | 6.074 Mbytes
Step PotEng KinEng TotEng v_fx v_fy v_fz 
    4580     -1152449            0     -1152449 0.0089290176    0.0264335 -0.016406336 
    4774   -1152449.1            0   -1152449.1 -1.2903051e-05 3.1970745e-06 1.7867014e-05 
Loop time of 2.27532 on 104 procs for 194 steps with 288751 atoms

99.9% CPU use with 104 MPI tasks x 1 OpenMP threads

Minimization stats:
  Stopping criterion = energy tolerance
  Energy initial, next-to-last, final = 
     -1152449.04926942  -1152449.05102506  -1152449.05102506
  Force two-norm initial, final = 0.1748334 0.00011099611
  Force max component initial, final = 0.13496498 1.9276307e-05
  Final line search alpha, max atom move = 1.0000000 1.9276307e-05
  Iterations, force evaluations = 194 388

MPI task timing breakdown:
Section |  min time  |  avg time  |  max time  |%varavg| %total
---------------------------------------------------------------
Pair    | 0.58844    | 1.6384     | 2.1356     |  34.6 | 72.01
Neigh   | 0          | 0          | 0          |   0.0 |  0.00
Comm    | 0.038963   | 0.37014    | 1.1065     |  50.7 | 16.27
Output  | 0          | 0          | 0          |   0.0 |  0.00
Modify  | 2.2999e-05 | 0.0032063  | 0.006894   |   2.7 |  0.14
Other   |            | 0.2635     |            |       | 11.58

Nlocal:        2776.45 ave        3955 max           0 min
Histogram: 8 4 4 0 4 12 8 0 30 34
Nghost:        3878.99 ave        5425 max         232 min
Histogram: 8 0 8 0 16 0 8 8 16 40
Neighs:        79213.6 ave      115293 max           0 min
Histogram: 8 4 4 0 10 6 8 8 24 32

Total # of neighbors = 8238215
Ave neighs/atom = 28.530516
Neighbor list builds = 0
Dangerous builds = 0
The dot product: -1.7097240545301e-07
Setting atom values ...
  1 settings made for x
  1 settings made for y
  1 settings made for z
Setting up cg style minimization ...
  Unit style    : metal
  Current step  : 4774
Per MPI rank memory allocation (min/avg/max) = 5.441 | 5.816 | 6.074 Mbytes
Step PotEng KinEng TotEng v_fx v_fy v_fz 
    4774     -1152449            0     -1152449 0.0066439943  0.018747122 -0.011261483 
    4953     -1152449            0     -1152449 3.7177957e-05 -6.6558568e-06 -5.0114046e-05 
Loop time of 2.09441 on 104 procs for 179 steps with 288751 atoms

99.9% CPU use with 104 MPI tasks x 1 OpenMP threads

Minimization stats:
  Stopping criterion = energy tolerance
  Energy initial, next-to-last, final = 
     -1152449.01877128  -1152449.02049017  -1152449.02049017
  Force two-norm initial, final = 0.17461707 0.00019152789
  Force max component initial, final = 0.13773426 5.0114046e-05
  Final line search alpha, max atom move = 1.0000000 5.0114046e-05
  Iterations, force evaluations = 179 358

MPI task timing breakdown:
Section |  min time  |  avg time  |  max time  |%varavg| %total
---------------------------------------------------------------
Pair    | 0.5423     | 1.5026     | 1.9653     |  33.2 | 71.74
Neigh   | 0          | 0          | 0          |   0.0 |  0.00
Comm    | 0.031603   | 0.34024    | 1.0069     |  48.3 | 16.25
Output  | 0          | 0          | 0          |   0.0 |  0.00
Modify  | 2.2251e-05 | 0.0029571  | 0.0063141  |   2.6 |  0.14
Other   |            | 0.2486     |            |       | 11.87

Nlocal:        2776.45 ave        3955 max           0 min
Histogram: 8 4 4 0 4 12 8 0 30 34
Nghost:        3878.99 ave        5425 max         232 min
Histogram: 8 0 8 0 16 0 8 8 16 40
Neighs:        79213.6 ave      115308 max           0 min
Histogram: 8 4 4 0 10 6 8 8 24 32

Total # of neighbors = 8238218
Ave neighs/atom = 28.530526
Neighbor list builds = 0
Dangerous builds = 0
The dot product: 4.47100208319881e-07
Setting atom values ...
  1 settings made for x
  1 settings made for y
  1 settings made for z
Setting up cg style minimization ...
  Unit style    : metal
  Current step  : 4953
Per MPI rank memory allocation (min/avg/max) = 5.441 | 5.816 | 6.074 Mbytes
Step PotEng KinEng TotEng v_fx v_fy v_fz 
    4953     -1152449            0     -1152449 0.0048283781   0.01297552 -0.0076889577 
    5000     -1152449            0     -1152449 0.00036156334 -3.7293945e-05 -0.0004762497 
    5134     -1152449            0     -1152449 3.5530908e-05 -4.7261731e-06 -4.6696475e-05 
Loop time of 2.12226 on 104 procs for 181 steps with 288751 atoms

99.9% CPU use with 104 MPI tasks x 1 OpenMP threads

Minimization stats:
  Stopping criterion = energy tolerance
  Energy initial, next-to-last, final = 
     -1152448.98715358  -1152448.98883626  -1152448.98883626
  Force two-norm initial, final = 0.17493049 0.00017203394
  Force max component initial, final = 0.13999292 4.6696475e-05
  Final line search alpha, max atom move = 1.0000000 4.6696475e-05
  Iterations, force evaluations = 181 362

MPI task timing breakdown:
Section |  min time  |  avg time  |  max time  |%varavg| %total
---------------------------------------------------------------
Pair    | 0.54836    | 1.5246     | 1.9927     |  33.3 | 71.84
Neigh   | 0          | 0          | 0          |   0.0 |  0.00
Comm    | 0.032505   | 0.34648    | 1.0353     |  48.6 | 16.33
Output  | 0.00017088 | 0.00017675 | 0.00026982 |   0.0 |  0.01
Modify  | 2.2671e-05 | 0.002988   | 0.0063951  |   2.6 |  0.14
Other   |            | 0.2481     |            |       | 11.69

Nlocal:        2776.45 ave        3956 max           0 min
Histogram: 8 4 4 0 4 12 8 0 30 34
Nghost:        3879.05 ave        5426 max         232 min
Histogram: 8 0 8 0 16 0 8 8 16 40
Neighs:        79213.6 ave      115338 max           0 min
Histogram: 8 4 4 0 10 6 8 8 24 32

Total # of neighbors = 8238215
Ave neighs/atom = 28.530516
Neighbor list builds = 0
Dangerous builds = 0
The dot product: 3.80246210538483e-07
Setting atom values ...
  1 settings made for x
  1 settings made for y
  1 settings made for z
Setting up cg style minimization ...
  Unit style    : metal
  Current step  : 5134
Per MPI rank memory allocation (min/avg/max) = 5.441 | 5.816 | 6.074 Mbytes
Step PotEng KinEng TotEng v_fx v_fy v_fz 
    5134     -1152449            0     -1152449 0.0028034392 0.0087735404 -0.004393791 
    5319     -1152449            0     -1152449 3.1341376e-05 -5.2446071e-06 -4.0086046e-05 
Loop time of 2.16909 on 104 procs for 185 steps with 288751 atoms

99.9% CPU use with 104 MPI tasks x 1 OpenMP threads

Minimization stats:
  Stopping criterion = energy tolerance
  Energy initial, next-to-last, final = 
     -1152448.95445119  -1152448.95615858  -1152448.95615858
  Force two-norm initial, final = 0.17564222 0.00016176124
  Force max component initial, final = 0.14208224 4.0086046e-05
  Final line search alpha, max atom move = 1.0000000 4.0086046e-05
  Iterations, force evaluations = 185 370

MPI task timing breakdown:
Section |  min time  |  avg time  |  max time  |%varavg| %total
---------------------------------------------------------------
Pair    | 0.55757    | 1.5562     | 2.0398     |  33.9 | 71.75
Neigh   | 0          | 0          | 0          |   0.0 |  0.00
Comm    | 0.032937   | 0.35255    | 1.0551     |  49.5 | 16.25
Output  | 0          | 0          | 0          |   0.0 |  0.00
Modify  | 2.3583e-05 | 0.0030534  | 0.0065329  |   2.6 |  0.14
Other   |            | 0.2572     |            |       | 11.86

Nlocal:        2776.45 ave        3956 max           0 min
Histogram: 8 4 4 0 4 12 8 0 30 34
Nghost:        3879.03 ave        5426 max         232 min
Histogram: 8 0 8 0 16 0 8 8 16 40
Neighs:        79213.6 ave      115347 max           0 min
Histogram: 8 4 4 0 10 6 8 8 24 32

Total # of neighbors = 8238219
Ave neighs/atom = 28.530530
Neighbor list builds = 0
Dangerous builds = 0
The dot product: 3.03991328197108e-07
Setting atom values ...
  1 settings made for x
  1 settings made for y
  1 settings made for z
Setting up cg style minimization ...
  Unit style    : metal
  Current step  : 5319
Per MPI rank memory allocation (min/avg/max) = 5.441 | 5.816 | 6.074 Mbytes
Step PotEng KinEng TotEng v_fx v_fy v_fz 
    5319   -1152448.9            0   -1152448.9 0.0012099787 0.0059228035 -0.0020041827 
    5526   -1152448.9            0   -1152448.9 5.5897826e-06 -2.6993663e-06 -6.8529657e-06 
Loop time of 2.44452 on 104 procs for 207 steps with 288751 atoms

99.9% CPU use with 104 MPI tasks x 1 OpenMP threads

Minimization stats:
  Stopping criterion = energy tolerance
  Energy initial, next-to-last, final = 
     -1152448.92086489   -1152448.9225751   -1152448.9225751
  Force two-norm initial, final = 0.17633619 9.1959191e-05
  Force max component initial, final = 0.14377493 1.7313200e-05
  Final line search alpha, max atom move = 1.0000000 1.7313200e-05
  Iterations, force evaluations = 207 414

MPI task timing breakdown:
Section |  min time  |  avg time  |  max time  |%varavg| %total
---------------------------------------------------------------
Pair    | 0.62941    | 1.7459     | 2.2666     |  35.5 | 71.42
Neigh   | 0          | 0          | 0          |   0.0 |  0.00
Comm    | 0.039224   | 0.3956     | 1.1782     |  52.1 | 16.18
Output  | 0          | 0          | 0          |   0.0 |  0.00
Modify  | 2.4828e-05 | 0.0034155  | 0.0072983  |   2.7 |  0.14
Other   |            | 0.2996     |            |       | 12.26

Nlocal:        2776.45 ave        3955 max           0 min
Histogram: 8 4 4 0 4 12 8 0 30 34
Nghost:        3879.03 ave        5426 max         232 min
Histogram: 8 0 8 0 16 0 8 8 16 40
Neighs:        79213.6 ave      115318 max           0 min
Histogram: 8 4 4 0 10 6 8 8 24 32

Total # of neighbors = 8238214
Ave neighs/atom = 28.530512
Neighbor list builds = 0
Dangerous builds = 0
The dot product: 4.51689951742485e-08
Setting atom values ...
  1 settings made for x
  1 settings made for y
  1 settings made for z
Setting up cg style minimization ...
  Unit style    : metal
  Current step  : 5526
Per MPI rank memory allocation (min/avg/max) = 5.441 | 5.816 | 6.074 Mbytes
Step PotEng KinEng TotEng v_fx v_fy v_fz 
    5526   -1152448.9            0   -1152448.9 -0.00083685435  0.003940281 0.00074111542 
    5698   -1152448.9            0   -1152448.9 7.5086971e-06 3.3188862e-06 -9.5628675e-06 
Loop time of 2.00997 on 104 procs for 172 steps with 288751 atoms

99.9% CPU use with 104 MPI tasks x 1 OpenMP threads

Minimization stats:
  Stopping criterion = energy tolerance
  Energy initial, next-to-last, final = 
     -1152448.88636676   -1152448.8879889   -1152448.8879889
  Force two-norm initial, final = 0.17720869 0.00020788683
  Force max component initial, final = 0.14537961 4.2904580e-05
  Final line search alpha, max atom move = 1.0000000 4.2904580e-05
  Iterations, force evaluations = 172 344

MPI task timing breakdown:
Section |  min time  |  avg time  |  max time  |%varavg| %total
---------------------------------------------------------------
Pair    | 0.51848    | 1.4457     | 1.8885     |  32.6 | 71.93
Neigh   | 0          | 0          | 0          |   0.0 |  0.00
Comm    | 0.031287   | 0.32584    | 0.97769    |  47.9 | 16.21
Output  | 0          | 0          | 0          |   0.0 |  0.00
Modify  | 2.0762e-05 | 0.0028432  | 0.0060829  |   2.5 |  0.14
Other   |            | 0.2356     |            |       | 11.72

Nlocal:        2776.45 ave        3956 max           0 min
Histogram: 8 4 4 0 4 12 8 0 30 34
Nghost:        3879.03 ave        5426 max         232 min
Histogram: 8 0 8 0 16 0 8 8 16 40
Neighs:        79213.6 ave      115331 max           0 min
Histogram: 8 4 4 0 10 6 8 8 24 32

Total # of neighbors = 8238216
Ave neighs/atom = 28.530519
Neighbor list builds = 0
Dangerous builds = 0
The dot product: 5.67562705197077e-08
Setting atom values ...
  1 settings made for x
  1 settings made for y
  1 settings made for z
Setting up cg style minimization ...
  Unit style    : metal
  Current step  : 5698
Per MPI rank memory allocation (min/avg/max) = 5.441 | 5.816 | 6.074 Mbytes
Step PotEng KinEng TotEng v_fx v_fy v_fz 
    5698   -1152448.9            0   -1152448.9 -0.0037043234 0.0026189176   0.00433534 
    5910   -1152448.9            0   -1152448.9 -7.2668088e-06 2.0674422e-06 8.7276271e-06 
Loop time of 2.45962 on 104 procs for 212 steps with 288751 atoms

99.9% CPU use with 104 MPI tasks x 1 OpenMP threads

Minimization stats:
  Stopping criterion = energy tolerance
  Energy initial, next-to-last, final = 
     -1152448.85072806  -1152448.85235294  -1152448.85235294
  Force two-norm initial, final = 0.17857969 7.6477121e-05
  Force max component initial, final = 0.14720896 1.0846336e-05
  Final line search alpha, max atom move = 1.0000000 1.0846336e-05
  Iterations, force evaluations = 212 424

MPI task timing breakdown:
Section |  min time  |  avg time  |  max time  |%varavg| %total
---------------------------------------------------------------
Pair    | 0.64251    | 1.7807     | 2.317      |  36.0 | 72.40
Neigh   | 0          | 0          | 0          |   0.0 |  0.00
Comm    | 0.03712    | 0.39867    | 1.2019     |  53.3 | 16.21
Output  | 0          | 0          | 0          |   0.0 |  0.00
Modify  | 2.5705e-05 | 0.0034995  | 0.0075006  |   2.8 |  0.14
Other   |            | 0.2768     |            |       | 11.25

Nlocal:        2776.45 ave        3956 max           0 min
Histogram: 8 4 4 0 4 12 8 0 30 34
Nghost:        3879.02 ave        5426 max         232 min
Histogram: 8 0 8 0 16 0 8 8 16 40
Neighs:        79213.6 ave      115321 max           0 min
Histogram: 8 4 4 0 10 6 8 8 24 32

Total # of neighbors = 8238215
Ave neighs/atom = 28.530516
Neighbor list builds = 0
Dangerous builds = 0
The dot product: -4.07261879088542e-08
Setting atom values ...
  1 settings made for x
  1 settings made for y
  1 settings made for z
Setting up cg style minimization ...
  Unit style    : metal
  Current step  : 5910
Per MPI rank memory allocation (min/avg/max) = 5.441 | 5.816 | 6.074 Mbytes
Step PotEng KinEng TotEng v_fx v_fy v_fz 
    5910   -1152448.8            0   -1152448.8 -0.0062630885 0.0019391983 0.0074226142 
    6000   -1152448.8            0   -1152448.8 -2.5019335e-05  1.90795e-05 2.8843914e-05 
    6092   -1152448.8            0   -1152448.8 -4.7486028e-05 8.7326152e-06 5.6702763e-05 
Loop time of 2.12822 on 104 procs for 182 steps with 288751 atoms

99.9% CPU use with 104 MPI tasks x 1 OpenMP threads

Minimization stats:
  Stopping criterion = energy tolerance
  Energy initial, next-to-last, final = 
     -1152448.81408667  -1152448.81584685  -1152448.81584685
  Force two-norm initial, final = 0.17977117 0.00026026375
  Force max component initial, final = 0.14873234 5.9380681e-05
  Final line search alpha, max atom move = 1.0000000 5.9380681e-05
  Iterations, force evaluations = 182 364

MPI task timing breakdown:
Section |  min time  |  avg time  |  max time  |%varavg| %total
---------------------------------------------------------------
Pair    | 0.55077    | 1.5253     | 1.9964     |  33.4 | 71.67
Neigh   | 0          | 0          | 0          |   0.0 |  0.00
Comm    | 0.03144    | 0.34383    | 1.0243     |  48.7 | 16.16
Output  | 0.00026194 | 0.00026531 | 0.00040658 |   0.0 |  0.01
Modify  | 2.2035e-05 | 0.0030097  | 0.0063954  |   2.6 |  0.14
Other   |            | 0.2558     |            |       | 12.02

Nlocal:        2776.45 ave        3955 max           0 min
Histogram: 8 4 4 0 4 12 8 0 30 34
Nghost:        3879.01 ave        5426 max         232 min
Histogram: 8 0 8 0 16 0 8 8 16 40
Neighs:        79213.6 ave      115313 max           0 min
Histogram: 8 4 4 0 10 6 8 8 24 32

Total # of neighbors = 8238213
Ave neighs/atom = 28.530509
Neighbor list builds = 0
Dangerous builds = 0
The dot product: -2.32214824252598e-07
Setting atom values ...
  1 settings made for x
  1 settings made for y
  1 settings made for z
Setting up cg style minimization ...
  Unit style    : metal
  Current step  : 6092
Per MPI rank memory allocation (min/avg/max) = 5.441 | 5.816 | 6.074 Mbytes
Step PotEng KinEng TotEng v_fx v_fy v_fz 
    6092   -1152448.8            0   -1152448.8 -0.0084354294 0.0017505192 0.0099586149 
    6298   -1152448.8            0   -1152448.8 -1.3015857e-05 5.9444139e-07 1.5515295e-05 
Loop time of 2.40535 on 104 procs for 206 steps with 288751 atoms

99.9% CPU use with 104 MPI tasks x 1 OpenMP threads

Minimization stats:
  Stopping criterion = energy tolerance
  Energy initial, next-to-last, final = 
     -1152448.77674404  -1152448.77836222  -1152448.77836222
  Force two-norm initial, final = 0.18042558 8.2492999e-05
  Force max component initial, final = 0.14985665 2.0335896e-05
  Final line search alpha, max atom move = 1.0000000 2.0335896e-05
  Iterations, force evaluations = 206 412

MPI task timing breakdown:
Section |  min time  |  avg time  |  max time  |%varavg| %total
---------------------------------------------------------------
Pair    | 0.62278    | 1.7346     | 2.2694     |  35.6 | 72.11
Neigh   | 0          | 0          | 0          |   0.0 |  0.00
Comm    | 0.037389   | 0.39068    | 1.1665     |  52.2 | 16.24
Output  | 0          | 0          | 0          |   0.0 |  0.00
Modify  | 2.4889e-05 | 0.0034007  | 0.0072882  |   2.7 |  0.14
Other   |            | 0.2767     |            |       | 11.50

Nlocal:        2776.45 ave        3956 max           0 min
Histogram: 8 4 4 0 4 12 8 0 30 34
Nghost:        3878.99 ave        5426 max         232 min
Histogram: 8 0 8 0 16 0 8 8 16 40
Neighs:        79213.6 ave      115319 max           0 min
Histogram: 8 4 4 0 10 6 8 8 24 32

Total # of neighbors = 8238215
Ave neighs/atom = 28.530516
Neighbor list builds = 0
Dangerous builds = 0
The dot product: -4.18388127993991e-08
Setting atom values ...
  1 settings made for x
  1 settings made for y
  1 settings made for z
Setting up cg style minimization ...
  Unit style    : metal
  Current step  : 6298
Per MPI rank memory allocation (min/avg/max) = 5.441 | 5.816 | 6.074 Mbytes
Step PotEng KinEng TotEng v_fx v_fy v_fz 
    6298   -1152448.7            0   -1152448.7 -0.011537382 0.0020566103  0.013557387 
    6477   -1152448.7            0   -1152448.7 -2.6238187e-05 7.1343173e-06 3.0657492e-05 
Loop time of 2.11298 on 104 procs for 179 steps with 288751 atoms

99.9% CPU use with 104 MPI tasks x 1 OpenMP threads

Minimization stats:
  Stopping criterion = energy tolerance
  Energy initial, next-to-last, final = 
     -1152448.73825088   -1152448.7398973   -1152448.7398973
  Force two-norm initial, final = 0.18132202 0.00020546378
  Force max component initial, final = 0.15113989 4.9586472e-05
  Final line search alpha, max atom move = 1.0000000 4.9586472e-05
  Iterations, force evaluations = 179 358

MPI task timing breakdown:
Section |  min time  |  avg time  |  max time  |%varavg| %total
---------------------------------------------------------------
Pair    | 0.55019    | 1.5093     | 1.9794     |  33.0 | 71.43
Neigh   | 0          | 0          | 0          |   0.0 |  0.00
Comm    | 0.032705   | 0.34427    | 1.0083     |  47.8 | 16.29
Output  | 0          | 0          | 0          |   0.0 |  0.00
Modify  | 2.1888e-05 | 0.0029552  | 0.0063155  |   2.6 |  0.14
Other   |            | 0.2565     |            |       | 12.14

Nlocal:        2776.45 ave        3956 max           0 min
Histogram: 8 4 4 0 4 12 8 0 30 34
Nghost:        3878.98 ave        5426 max         232 min
Histogram: 8 0 8 0 16 0 8 8 16 40
Neighs:        79213.6 ave      115319 max           0 min
Histogram: 8 4 4 0 10 6 8 8 24 32

Total # of neighbors = 8238213
Ave neighs/atom = 28.530509
Neighbor list builds = 0
Dangerous builds = 0
The dot product: -4.93531209108527e-08
Setting atom values ...
  1 settings made for x
  1 settings made for y
  1 settings made for z
Setting up cg style minimization ...
  Unit style    : metal
  Current step  : 6477
Per MPI rank memory allocation (min/avg/max) = 5.441 | 5.816 | 6.074 Mbytes
Step PotEng KinEng TotEng v_fx v_fy v_fz 
    6477   -1152448.7            0   -1152448.7 -0.014302924 0.0027546312  0.016732415 
    6634   -1152448.7            0   -1152448.7 -3.6235648e-05 5.3297783e-06 4.2509066e-05 
Loop time of 1.84724 on 104 procs for 157 steps with 288751 atoms

99.9% CPU use with 104 MPI tasks x 1 OpenMP threads

Minimization stats:
  Stopping criterion = energy tolerance
  Energy initial, next-to-last, final = 
     -1152448.69892655  -1152448.70081193  -1152448.70081193
  Force two-norm initial, final = 0.18156367 0.00016241031
  Force max component initial, final = 0.1521231 4.2509066e-05
  Final line search alpha, max atom move = 1.0000000 4.2509066e-05
  Iterations, force evaluations = 157 314

MPI task timing breakdown:
Section |  min time  |  avg time  |  max time  |%varavg| %total
---------------------------------------------------------------
Pair    | 0.48907    | 1.329      | 1.7288     |  30.8 | 71.94
Neigh   | 0          | 0          | 0          |   0.0 |  0.00
Comm    | 0.043025   | 0.30113    | 0.89764    |  45.3 | 16.30
Output  | 0          | 0          | 0          |   0.0 |  0.00
Modify  | 1.8932e-05 | 0.002595   | 0.0055529  |   2.4 |  0.14
Other   |            | 0.2145     |            |       | 11.61

Nlocal:        2776.45 ave        3955 max           0 min
Histogram: 8 4 4 0 4 12 8 0 30 34
Nghost:        3878.98 ave        5426 max         232 min
Histogram: 8 0 8 0 16 0 8 8 16 40
Neighs:        79213.6 ave      115296 max           0 min
Histogram: 8 4 4 0 10 6 8 8 24 32

Total # of neighbors = 8238215
Ave neighs/atom = 28.530516
Neighbor list builds = 0
Dangerous builds = 0
The dot product: -3.54537002420135e-08
Setting atom values ...
  1 settings made for x
  1 settings made for y
  1 settings made for z
Setting up cg style minimization ...
  Unit style    : metal
  Current step  : 6634
Per MPI rank memory allocation (min/avg/max) = 5.441 | 5.816 | 6.074 Mbytes
Step PotEng KinEng TotEng v_fx v_fy v_fz 
    6634   -1152448.7            0   -1152448.7  -0.01636579 0.0033010206  0.019098203 
    6789   -1152448.7            0   -1152448.7 -2.4225361e-05 4.4583477e-06 2.8301459e-05 
Loop time of 1.80196 on 104 procs for 155 steps with 288751 atoms

99.9% CPU use with 104 MPI tasks x 1 OpenMP threads

Minimization stats:
  Stopping criterion = energy tolerance
  Energy initial, next-to-last, final = 
     -1152448.65946855  -1152448.66125971  -1152448.66125971
  Force two-norm initial, final = 0.18024072 0.0001147111
  Force max component initial, final = 0.15193674 2.9825593e-05
  Final line search alpha, max atom move = 1.0000000 2.9825593e-05
  Iterations, force evaluations = 155 310

MPI task timing breakdown:
Section |  min time  |  avg time  |  max time  |%varavg| %total
---------------------------------------------------------------
Pair    | 0.46914    | 1.3019     | 1.6994     |  30.9 | 72.25
Neigh   | 0          | 0          | 0          |   0.0 |  0.00
Comm    | 0.026848   | 0.29325    | 0.8814     |  45.4 | 16.27
Output  | 0          | 0          | 0          |   0.0 |  0.00
Modify  | 1.8614e-05 | 0.0025652  | 0.0054705  |   2.4 |  0.14
Other   |            | 0.2042     |            |       | 11.33

Nlocal:        2776.45 ave        3956 max           0 min
Histogram: 8 4 4 0 4 12 8 0 30 34
Nghost:        3878.90 ave        5425 max         232 min
Histogram: 8 0 8 0 16 0 8 8 16 40
Neighs:        79213.5 ave      115335 max           0 min
Histogram: 8 4 4 0 10 6 8 8 24 32

Total # of neighbors = 8238200
Ave neighs/atom = 28.530464
Neighbor list builds = 0
Dangerous builds = 0
The dot product: 1.73386324397992e-08
Setting atom values ...
  1 settings made for x
  1 settings made for y
  1 settings made for z
Setting up cg style minimization ...
  Unit style    : metal
  Current step  : 6789
Per MPI rank memory allocation (min/avg/max) = 5.441 | 5.816 | 6.074 Mbytes
Step PotEng KinEng TotEng v_fx v_fy v_fz 
    6789   -1152448.6            0   -1152448.6 -0.019232443 0.0037436548  0.022482422 
    6957   -1152448.6            0   -1152448.6 2.7288265e-05 -6.1987486e-06 -3.183208e-05 
Loop time of 1.96885 on 104 procs for 168 steps with 288751 atoms

99.9% CPU use with 104 MPI tasks x 1 OpenMP threads

Minimization stats:
  Stopping criterion = energy tolerance
  Energy initial, next-to-last, final = 
     -1152448.61983347  -1152448.62198353  -1152448.62198353
  Force two-norm initial, final = 0.17915403 0.00022948022
  Force max component initial, final = 0.1512389 4.1697932e-05
  Final line search alpha, max atom move = 1.0000000 4.1697932e-05
  Iterations, force evaluations = 168 336

MPI task timing breakdown:
Section |  min time  |  avg time  |  max time  |%varavg| %total
---------------------------------------------------------------
Pair    | 0.50796    | 1.4136     | 1.8453     |  32.1 | 71.80
Neigh   | 0          | 0          | 0          |   0.0 |  0.00
Comm    | 0.035484   | 0.32043    | 0.9555     |  46.7 | 16.27
Output  | 0          | 0          | 0          |   0.0 |  0.00
Modify  | 2.0101e-05 | 0.0027754  | 0.0059458  |   2.5 |  0.14
Other   |            | 0.2321     |            |       | 11.79

Nlocal:        2776.45 ave        3954 max           0 min
Histogram: 8 4 4 0 4 12 8 0 30 34
Nghost:        3878.89 ave        5425 max         232 min
Histogram: 8 0 8 0 16 0 8 8 16 40
Neighs:        79213.5 ave      115279 max           0 min
Histogram: 8 4 4 0 10 6 8 8 24 32

Total # of neighbors = 8238201
Ave neighs/atom = 28.530467
Neighbor list builds = 0
Dangerous builds = 0
The dot product: -1.79609869758322e-08
Setting atom values ...
  1 settings made for x
  1 settings made for y
  1 settings made for z
Setting up cg style minimization ...
  Unit style    : metal
  Current step  : 6957
Per MPI rank memory allocation (min/avg/max) = 5.441 | 5.816 | 6.074 Mbytes
Step PotEng KinEng TotEng v_fx v_fy v_fz 
    6957   -1152448.6            0   -1152448.6 -0.021467402 0.00085962799  0.025390258 
    7000   -1152448.6            0   -1152448.6 -0.0010327138 9.2701339e-05 0.0012173524 
    7250   -1152448.6            0   -1152448.6 -3.2418719e-07 -2.105948e-08 3.8612915e-07 
Loop time of 3.41146 on 104 procs for 293 steps with 288751 atoms

99.9% CPU use with 104 MPI tasks x 1 OpenMP threads

Minimization stats:
  Stopping criterion = energy tolerance
  Energy initial, next-to-last, final = 
     -1152448.58159208  -1152448.58610079  -1152448.58610079
  Force two-norm initial, final = 0.17840103 1.8050281e-05
  Force max component initial, final = 0.14826868 5.4334771e-07
  Final line search alpha, max atom move = 1.0000000 5.4334771e-07
  Iterations, force evaluations = 293 586

MPI task timing breakdown:
Section |  min time  |  avg time  |  max time  |%varavg| %total
---------------------------------------------------------------
Pair    | 0.88746    | 2.46       | 3.2116     |  42.4 | 72.11
Neigh   | 1.0994e-05 | 0.0029316  | 0.004237   |   2.2 |  0.09
Comm    | 0.052012   | 0.55414    | 1.6613     |  62.3 | 16.24
Output  | 0.00014857 | 0.00015836 | 0.00028199 |   0.0 |  0.00
Modify  | 3.4989e-05 | 0.0048322  | 0.010317   |   3.3 |  0.14
Other   |            | 0.3894     |            |       | 11.41

Nlocal:        2776.45 ave        3952 max           0 min
Histogram: 8 4 4 0 4 12 8 0 30 34
Nghost:        3878.99 ave        5426 max         232 min
Histogram: 8 0 8 0 16 0 8 8 16 40
Neighs:        79213.4 ave      115239 max           0 min
Histogram: 8 4 4 0 10 6 8 8 24 32

Total # of neighbors = 8238196
Ave neighs/atom = 28.530450
Neighbor list builds = 1
Dangerous builds = 0
The dot product: -6.12663443111304e-09
Setting atom values ...
  1 settings made for x
  1 settings made for y
  1 settings made for z
Setting up cg style minimization ...
  Unit style    : metal
  Current step  : 7250
Per MPI rank memory allocation (min/avg/max) = 5.441 | 5.816 | 6.074 Mbytes
Step PotEng KinEng TotEng v_fx v_fy v_fz 
    7250   -1152448.6            0   -1152448.6 -0.011710614 -0.0012504418  0.013547618 
    7459   -1152448.6            0   -1152448.6 8.1043898e-06 -1.6750974e-07 -9.2887182e-06 
Loop time of 2.42856 on 104 procs for 209 steps with 288751 atoms

99.9% CPU use with 104 MPI tasks x 1 OpenMP threads

Minimization stats:
  Stopping criterion = energy tolerance
  Energy initial, next-to-last, final = 
     -1152448.55848618  -1152448.56158422  -1152448.56158422
  Force two-norm initial, final = 0.18441096 0.0001057496
  Force max component initial, final = 0.14846734 1.0127313e-05
  Final line search alpha, max atom move = 1.0000000 1.0127313e-05
  Iterations, force evaluations = 209 418

MPI task timing breakdown:
Section |  min time  |  avg time  |  max time  |%varavg| %total
---------------------------------------------------------------
Pair    | 0.63235    | 1.7584     | 2.2865     |  35.8 | 72.40
Neigh   | 0          | 0          | 0          |   0.0 |  0.00
Comm    | 0.036019   | 0.39419    | 1.188      |  53.2 | 16.23
Output  | 0          | 0          | 0          |   0.0 |  0.00
Modify  | 2.54e-05   | 0.0034462  | 0.0074562  |   2.8 |  0.14
Other   |            | 0.2725     |            |       | 11.22

Nlocal:        2776.45 ave        3954 max           0 min
Histogram: 8 4 4 0 4 12 8 0 30 34
Nghost:        3879.02 ave        5426 max         232 min
Histogram: 8 0 8 0 16 0 8 8 16 40
Neighs:        79213.4 ave      115280 max           0 min
Histogram: 8 4 4 0 10 6 8 8 24 32

Total # of neighbors = 8238198
Ave neighs/atom = 28.530457
Neighbor list builds = 0
Dangerous builds = 0
The dot product: 7.45479744665581e-08
Setting atom values ...
  1 settings made for x
  1 settings made for y
  1 settings made for z
Setting up cg style minimization ...
  Unit style    : metal
  Current step  : 7459
Per MPI rank memory allocation (min/avg/max) = 5.441 | 5.816 | 6.074 Mbytes
Step PotEng KinEng TotEng v_fx v_fy v_fz 
    7459   -1152448.5            0   -1152448.5  -0.02467749 0.0041705532  0.027531929 
    7699   -1152448.5            0   -1152448.5 6.4326153e-06 -8.7063094e-07 -7.1952498e-06 
[...]

Nlocal:        2776.45 ave        3958 max           0 min
Histogram: 8 4 4 0 4 12 8 2 28 34
Nghost:        3879.09 ave        5425 max         232 min
Histogram: 8 0 8 0 16 0 8 8 16 40
Neighs:        79213.4 ave      115352 max           0 min
Histogram: 8 4 4 0 10 6 8 8 24 32

Total # of neighbors = 8238194
Ave neighs/atom = 28.530443
Neighbor list builds = 0
Dangerous builds = 0
The dot product: 6.02788255964711e-08
Setting atom values ...
  1 settings made for x
  1 settings made for y
  1 settings made for z
Setting up cg style minimization ...
  Unit style    : metal
  Current step  : 23981
Per MPI rank memory allocation (min/avg/max) = 5.441 | 5.816 | 6.074 Mbytes
Step PotEng KinEng TotEng v_fx v_fy v_fz 
   23981   -1152449.2            0   -1152449.2  0.013558194  0.012438284 -0.024384855 
   24000   -1152449.3            0   -1152449.3 0.0011883389 1.7611345e-06 -0.00083611204 
   24162   -1152449.3            0   -1152449.3 6.1883572e-06 4.9539923e-07 -4.9353734e-06 
Loop time of 2.09741 on 104 procs for 181 steps with 288751 atoms

99.9% CPU use with 104 MPI tasks x 1 OpenMP threads

Minimization stats:
  Stopping criterion = energy tolerance
  Energy initial, next-to-last, final = 
     -1152449.24928049   -1152449.2507011   -1152449.2507011
  Force two-norm initial, final = 0.16807339 0.00013833789
  Force max component initial, final = 0.084688396 6.1883572e-06
  Final line search alpha, max atom move = 1.0000000 6.1883572e-06
  Iterations, force evaluations = 181 362

MPI task timing breakdown:
Section |  min time  |  avg time  |  max time  |%varavg| %total
---------------------------------------------------------------
Pair    | 0.54735    | 1.5189     | 1.9791     |  33.4 | 72.42
Neigh   | 0          | 0          | 0          |   0.0 |  0.00
Comm    | 0.033209   | 0.34557    | 1.0378     |  48.6 | 16.48
Output  | 0.0001485  | 0.00015072 | 0.00025607 |   0.0 |  0.01
Modify  | 2.1841e-05 | 0.0029905  | 0.0063695  |   2.6 |  0.14
Other   |            | 0.2298     |            |       | 10.95

Nlocal:        2776.45 ave        3960 max           0 min
Histogram: 8 4 4 0 4 12 8 2 28 34
Nghost:        3879.12 ave        5425 max         232 min
Histogram: 8 0 8 0 16 0 8 8 16 40
Neighs:        79213.4 ave      115433 max           0 min
Histogram: 8 4 4 0 10 6 8 8 24 32

Total # of neighbors = 8238194
Ave neighs/atom = 28.530443
Neighbor list builds = 0
Dangerous builds = 0
The dot product: 1.91877235920618e-08
Setting atom values ...
  1 settings made for x
  1 settings made for y
  1 settings made for z
Setting up cg style minimization ...
  Unit style    : metal
  Current step  : 24162
Per MPI rank memory allocation (min/avg/max) = 5.441 | 5.816 | 6.074 Mbytes
Step PotEng KinEng TotEng v_fx v_fy v_fz 
   24162   -1152449.3            0   -1152449.3 0.0070444529  0.011987666  -0.01931399 
   24351   -1152449.3            0   -1152449.3 3.4638122e-06 1.9322897e-07 -2.6684162e-06 
Loop time of 2.22604 on 104 procs for 189 steps with 288751 atoms

99.9% CPU use with 104 MPI tasks x 1 OpenMP threads

Minimization stats:
  Stopping criterion = energy tolerance
  Energy initial, next-to-last, final = 
     -1152449.25547087  -1152449.25690071  -1152449.25690071
  Force two-norm initial, final = 0.16693462 0.00011203197
  Force max component initial, final = 0.083201557 4.8956664e-06
  Final line search alpha, max atom move = 1.0000000 4.8956664e-06
  Iterations, force evaluations = 189 378

MPI task timing breakdown:
Section |  min time  |  avg time  |  max time  |%varavg| %total
---------------------------------------------------------------
Pair    | 0.5811     | 1.5908     | 2.0703     |  33.8 | 71.46
Neigh   | 0          | 0          | 0          |   0.0 |  0.00
Comm    | 0.045423   | 0.36163    | 1.0948     |  49.7 | 16.25
Output  | 0          | 0          | 0          |   0.0 |  0.00
Modify  | 2.2503e-05 | 0.00312    | 0.0066315  |   2.6 |  0.14
Other   |            | 0.2705     |            |       | 12.15

Nlocal:        2776.45 ave        3960 max           0 min
Histogram: 8 4 4 0 4 12 8 2 28 34
Nghost:        3879.09 ave        5425 max         232 min
Histogram: 8 0 8 0 16 0 8 8 16 40
Neighs:        79213.4 ave      115424 max           0 min
Histogram: 8 4 4 0 10 6 8 8 24 32

Total # of neighbors = 8238193
Ave neighs/atom = 28.530440
Neighbor list builds = 0
Dangerous builds = 0
The dot product: 4.16367885421542e-09
Setting atom values ...
  1 settings made for x
  1 settings made for y
  1 settings made for z
Setting up cg style minimization ...
  Unit style    : metal
  Current step  : 24351
Per MPI rank memory allocation (min/avg/max) = 5.441 | 5.816 | 6.074 Mbytes
Step PotEng KinEng TotEng v_fx v_fy v_fz 
   24351   -1152449.3            0   -1152449.3 0.0046841125  0.011923026 -0.017595161 
   24525   -1152449.3            0   -1152449.3 6.1653343e-05 1.4855766e-06 -4.5198555e-05 
Loop time of 2.01675 on 104 procs for 174 steps with 288751 atoms

99.9% CPU use with 104 MPI tasks x 1 OpenMP threads

Minimization stats:
  Stopping criterion = energy tolerance
  Energy initial, next-to-last, final = 
     -1152449.26000516  -1152449.26145602  -1152449.26145602
  Force two-norm initial, final = 0.16685326 0.0002131126
  Force max component initial, final = 0.081663883 6.1653343e-05
  Final line search alpha, max atom move = 1.0000000 6.1653343e-05
  Iterations, force evaluations = 174 348

MPI task timing breakdown:
Section |  min time  |  avg time  |  max time  |%varavg| %total
---------------------------------------------------------------
Pair    | 0.52683    | 1.4618     | 1.9029     |  32.7 | 72.48
Neigh   | 0          | 0          | 0          |   0.0 |  0.00
Comm    | 0.033025   | 0.33082    | 0.99051    |  48.0 | 16.40
Output  | 0          | 0          | 0          |   0.0 |  0.00
Modify  | 2.1446e-05 | 0.0028766  | 0.0060988  |   2.5 |  0.14
Other   |            | 0.2213     |            |       | 10.97

Nlocal:        2776.45 ave        3959 max           0 min
Histogram: 8 4 4 0 4 12 8 2 28 34
Nghost:        3879.01 ave        5424 max         232 min
Histogram: 8 0 8 0 16 0 8 8 16 40
Neighs:        79213.4 ave      115394 max           0 min
Histogram: 8 4 4 0 10 6 8 8 24 32

Total # of neighbors = 8238195
Ave neighs/atom = 28.530447
Neighbor list builds = 0
Dangerous builds = 0
The dot product: 3.60716183811315e-08
Setting atom values ...
  1 settings made for x
  1 settings made for y
  1 settings made for z
Setting up cg style minimization ...
  Unit style    : metal
  Current step  : 24525
Per MPI rank memory allocation (min/avg/max) = 5.441 | 5.816 | 6.074 Mbytes
Step PotEng KinEng TotEng v_fx v_fy v_fz 
   24525   -1152449.3            0   -1152449.3  0.004536066  0.011996835 -0.017594271 
   24711   -1152449.3            0   -1152449.3 2.5491686e-05 1.6612325e-06 -1.9953815e-05 
Loop time of 2.15731 on 104 procs for 186 steps with 288751 atoms

99.9% CPU use with 104 MPI tasks x 1 OpenMP threads

Minimization stats:
  Stopping criterion = energy tolerance
  Energy initial, next-to-last, final = 
     -1152449.26289571   -1152449.2643529   -1152449.2643529
  Force two-norm initial, final = 0.16674464 0.00013301124
  Force max component initial, final = 0.080103352 4.0863347e-05
  Final line search alpha, max atom move = 1.0000000 4.0863347e-05
  Iterations, force evaluations = 186 372

MPI task timing breakdown:
Section |  min time  |  avg time  |  max time  |%varavg| %total
---------------------------------------------------------------
Pair    | 0.563      | 1.5615     | 2.0355     |  33.8 | 72.38
Neigh   | 0          | 0          | 0          |   0.0 |  0.00
Comm    | 0.036741   | 0.35314    | 1.0601     |  49.4 | 16.37
Output  | 0          | 0          | 0          |   0.0 |  0.00
Modify  | 2.2694e-05 | 0.0030759  | 0.0065191  |   2.6 |  0.14
Other   |            | 0.2396     |            |       | 11.10

Nlocal:        2776.45 ave        3959 max           0 min
Histogram: 8 4 4 0 4 12 8 2 28 34
Nghost:        3879.01 ave        5424 max         232 min
Histogram: 8 0 8 0 16 0 8 8 16 40
Neighs:        79213.4 ave      115404 max           0 min
Histogram: 8 4 4 0 10 6 8 8 24 32

Total # of neighbors = 8238196
Ave neighs/atom = 28.530450
Neighbor list builds = 0
Dangerous builds = 0
The dot product: 1.72630624860977e-08
Setting atom values ...
  1 settings made for x
  1 settings made for y
  1 settings made for z
Setting up cg style minimization ...
  Unit style    : metal
  Current step  : 24711
Per MPI rank memory allocation (min/avg/max) = 5.441 | 5.816 | 6.074 Mbytes
Step PotEng KinEng TotEng v_fx v_fy v_fz 
   24711   -1152449.3            0   -1152449.3 0.0042932335  0.012026175 -0.017474158 
   24904   -1152449.3            0   -1152449.3 -1.509675e-05 1.123036e-07 1.0506421e-05 
Loop time of 2.27414 on 104 procs for 193 steps with 288751 atoms

99.9% CPU use with 104 MPI tasks x 1 OpenMP threads

Minimization stats:
  Stopping criterion = energy tolerance
  Energy initial, next-to-last, final = 
     -1152449.26413971  -1152449.26560561  -1152449.26560561
  Force two-norm initial, final = 0.16661718 0.00010588534
  Force max component initial, final = 0.078508628 1.5096750e-05
  Final line search alpha, max atom move = 1.0000000 1.5096750e-05
  Iterations, force evaluations = 193 386

MPI task timing breakdown:
Section |  min time  |  avg time  |  max time  |%varavg| %total
---------------------------------------------------------------
Pair    | 0.58987    | 1.6273     | 2.1052     |  34.1 | 71.55
Neigh   | 0          | 0          | 0          |   0.0 |  0.00
Comm    | 0.038626   | 0.3727     | 1.1113     |  50.0 | 16.39
Output  | 0          | 0          | 0          |   0.0 |  0.00
Modify  | 2.3844e-05 | 0.00319    | 0.0067602  |   2.7 |  0.14
Other   |            | 0.271      |            |       | 11.92

Nlocal:        2776.45 ave        3960 max           0 min
Histogram: 8 4 4 0 4 12 8 2 28 34
Nghost:        3879.01 ave        5424 max         232 min
Histogram: 8 0 8 0 16 0 8 8 16 40
Neighs:        79213.4 ave      115427 max           0 min
Histogram: 8 4 4 0 10 6 8 8 24 32

Total # of neighbors = 8238191
Ave neighs/atom = 28.530433
Neighbor list builds = 0
Dangerous builds = 0
The dot product: -8.25574747469174e-09
Setting atom values ...
  1 settings made for x
  1 settings made for y
  1 settings made for z
Setting up cg style minimization ...
  Unit style    : metal
  Current step  : 24904
Per MPI rank memory allocation (min/avg/max) = 5.441 | 5.816 | 6.074 Mbytes
Step PotEng KinEng TotEng v_fx v_fy v_fz 
   24904   -1152449.3            0   -1152449.3 0.0040725064  0.012023187 -0.017332073 
   25000   -1152449.3            0   -1152449.3 0.00025107545 -7.5806542e-06 -0.00016794487 
   25115   -1152449.3            0   -1152449.3 1.2301381e-05 -5.7936244e-07 -7.9783203e-06 
Loop time of 2.46292 on 104 procs for 211 steps with 288751 atoms

99.9% CPU use with 104 MPI tasks x 1 OpenMP threads

Minimization stats:
  Stopping criterion = energy tolerance
  Energy initial, next-to-last, final = 
     -1152449.26375853  -1152449.26522598  -1152449.26522598
  Force two-norm initial, final = 0.16648976 6.0334367e-05
  Force max component initial, final = 0.076947599 1.3888723e-05
  Final line search alpha, max atom move = 1.0000000 1.3888723e-05
  Iterations, force evaluations = 211 422

MPI task timing breakdown:
Section |  min time  |  avg time  |  max time  |%varavg| %total
---------------------------------------------------------------
Pair    | 0.64446    | 1.775      | 2.3188     |  35.8 | 72.07
Neigh   | 0          | 0          | 0          |   0.0 |  0.00
Comm    | 0.039767   | 0.40242    | 1.2038     |  52.6 | 16.34
Output  | 0.0001539  | 0.00016226 | 0.00032106 |   0.0 |  0.01
Modify  | 2.5356e-05 | 0.0034856  | 0.0074108  |   2.8 |  0.14
Other   |            | 0.2819     |            |       | 11.45

Nlocal:        2776.45 ave        3960 max           0 min
Histogram: 8 4 4 0 4 12 8 2 28 34
Nghost:        3879.01 ave        5424 max         232 min
Histogram: 8 0 8 0 16 0 8 8 16 40
Neighs:        79213.4 ave      115426 max           0 min
Histogram: 8 4 4 0 10 6 8 8 24 32

Total # of neighbors = 8238190
Ave neighs/atom = 28.530429
Neighbor list builds = 0
Dangerous builds = 0
The dot product: 5.46707625903346e-09
Setting atom values ...
  1 settings made for x
  1 settings made for y
  1 settings made for z
Setting up cg style minimization ...
  Unit style    : metal
  Current step  : 25115
Per MPI rank memory allocation (min/avg/max) = 5.441 | 5.816 | 6.074 Mbytes
Step PotEng KinEng TotEng v_fx v_fy v_fz 
   25115   -1152449.3            0   -1152449.3 0.0039319564  0.012013866 -0.017239508 
   25310   -1152449.3            0   -1152449.3 4.2979188e-05 -6.7885511e-07 -2.950633e-05 
Loop time of 2.2765 on 104 procs for 195 steps with 288751 atoms

99.9% CPU use with 104 MPI tasks x 1 OpenMP threads

Minimization stats:
  Stopping criterion = energy tolerance
  Energy initial, next-to-last, final = 
     -1152449.26174926  -1152449.26321552  -1152449.26321552
  Force two-norm initial, final = 0.16638366 0.00011466136
  Force max component initial, final = 0.078321142 4.2979188e-05
  Final line search alpha, max atom move = 1.0000000 4.2979188e-05
  Iterations, force evaluations = 195 390

MPI task timing breakdown:
Section |  min time  |  avg time  |  max time  |%varavg| %total
---------------------------------------------------------------
Pair    | 0.58749    | 1.6358     | 2.1487     |  34.6 | 71.85
Neigh   | 0          | 0          | 0          |   0.0 |  0.00
Comm    | 0.035712   | 0.37297    | 1.1173     |  50.3 | 16.38
Output  | 0          | 0          | 0          |   0.0 |  0.00
Modify  | 2.3346e-05 | 0.0032179  | 0.0068492  |   2.7 |  0.14
Other   |            | 0.2646     |            |       | 11.62

Nlocal:        2776.45 ave        3960 max           0 min
Histogram: 8 4 4 0 4 12 8 2 28 34
Nghost:        3879.03 ave        5424 max         232 min
Histogram: 8 0 8 0 16 0 8 8 16 40
Neighs:        79213.3 ave      115426 max           0 min
Histogram: 8 4 4 0 10 6 8 8 24 32

Total # of neighbors = 8238186
Ave neighs/atom = 28.530415
Neighbor list builds = 0
Dangerous builds = 0
The dot product: 2.23786712156209e-08
Setting atom values ...
  1 settings made for x
  1 settings made for y
  1 settings made for z
Setting up cg style minimization ...
  Unit style    : metal
  Current step  : 25310
Per MPI rank memory allocation (min/avg/max) = 5.441 | 5.816 | 6.074 Mbytes
Step PotEng KinEng TotEng v_fx v_fy v_fz 
   25310   -1152449.3            0   -1152449.3 0.0038071538  0.011997255 -0.017149981 
   25491   -1152449.3            0   -1152449.3 -3.136306e-05 -2.181014e-06 2.4767611e-05 
Loop time of 2.09847 on 104 procs for 181 steps with 288751 atoms

99.9% CPU use with 104 MPI tasks x 1 OpenMP threads

Minimization stats:
  Stopping criterion = energy tolerance
  Energy initial, next-to-last, final = 
     -1152449.25811406  -1152449.25958044  -1152449.25958044
  Force two-norm initial, final = 0.16628914 0.00015941992
  Force max component initial, final = 0.079714196 4.3198814e-05
  Final line search alpha, max atom move = 1.0000000 4.3198814e-05
  Iterations, force evaluations = 181 362

MPI task timing breakdown:
Section |  min time  |  avg time  |  max time  |%varavg| %total
---------------------------------------------------------------
Pair    | 0.54536    | 1.5202     | 1.9802     |  33.4 | 72.44
Neigh   | 0          | 0          | 0          |   0.0 |  0.00
Comm    | 0.034009   | 0.34537    | 1.0357     |  48.9 | 16.46
Output  | 0          | 0          | 0          |   0.0 |  0.00
Modify  | 2.194e-05  | 0.0029915  | 0.0063643  |   2.6 |  0.14
Other   |            | 0.2299     |            |       | 10.95

Nlocal:        2776.45 ave        3960 max           0 min
Histogram: 8 4 4 0 4 12 8 2 28 34
Nghost:        3879.05 ave        5425 max         232 min
Histogram: 8 0 8 0 16 0 8 8 16 40
Neighs:        79213.3 ave      115426 max           0 min
Histogram: 8 4 4 0 10 6 8 8 24 32

Total # of neighbors = 8238187
Ave neighs/atom = 28.530419
Neighbor list builds = 0
Dangerous builds = 0
The dot product: -2.34856304971902e-08
Setting atom values ...
  1 settings made for x
  1 settings made for y
  1 settings made for z
Setting up cg style minimization ...
  Unit style    : metal
  Current step  : 25491
Per MPI rank memory allocation (min/avg/max) = 5.441 | 5.816 | 6.074 Mbytes
Step PotEng KinEng TotEng v_fx v_fy v_fz 
   25491   -1152449.3            0   -1152449.3 0.0035971687  0.011975342 -0.016994823 
   25673   -1152449.3            0   -1152449.3 -5.022485e-06 1.0792161e-06 2.2442982e-06 
Loop time of 2.12844 on 104 procs for 182 steps with 288751 atoms

99.9% CPU use with 104 MPI tasks x 1 OpenMP threads

Minimization stats:
  Stopping criterion = energy tolerance
  Energy initial, next-to-last, final = 
     -1152449.25286304  -1152449.25432778  -1152449.25432778
  Force two-norm initial, final = 0.16617758 0.00015410739
  Force max component initial, final = 0.08106216 3.5542262e-05
  Final line search alpha, max atom move = 1.0000000 3.5542262e-05
  Iterations, force evaluations = 182 364

MPI task timing breakdown:
Section |  min time  |  avg time  |  max time  |%varavg| %total
---------------------------------------------------------------
Pair    | 0.55495    | 1.5311     | 2.0037     |  33.3 | 71.94
Neigh   | 0          | 0          | 0          |   0.0 |  0.00
Comm    | 0.033637   | 0.34963    | 1.0434     |  48.5 | 16.43
Output  | 0          | 0          | 0          |   0.0 |  0.00
Modify  | 2.2096e-05 | 0.0030077  | 0.0063927  |   2.6 |  0.14
Other   |            | 0.2447     |            |       | 11.50

Nlocal:        2776.45 ave        3960 max           0 min
Histogram: 8 4 4 0 4 12 8 2 28 34
Nghost:        3879.05 ave        5427 max         232 min
Histogram: 8 0 8 0 16 0 8 8 16 40
Neighs:        79213.3 ave      115426 max           0 min
Histogram: 8 4 4 0 10 6 8 8 24 32

Total # of neighbors = 8238186
Ave neighs/atom = 28.530415
Neighbor list builds = 0
Dangerous builds = 0
The dot product: 6.40254110393122e-11
Setting up cg style minimization ...
  Unit style    : metal
  Current step  : 25673
Per MPI rank memory allocation (min/avg/max) = 5.441 | 5.816 | 6.074 Mbytes
Step PotEng KinEng TotEng v_fx v_fy v_fz 
   25673   -1152449.3            0   -1152449.3   -0.1244408  -0.21267813  -0.17619982 
   25912   -1152449.3            0   -1152449.3 -1.0344662e-05 -9.5366246e-08 7.8014128e-06 
Loop time of 2.78092 on 104 procs for 239 steps with 288751 atoms

99.9% CPU use with 104 MPI tasks x 1 OpenMP threads

Minimization stats:
  Stopping criterion = energy tolerance
  Energy initial, next-to-last, final = 
     -1152449.25432778  -1152449.26566399  -1152449.26566399
  Force two-norm initial, final = 0.30292557 6.4321325e-05
  Force max component initial, final = 0.21267813 1.8448803e-05
  Final line search alpha, max atom move = 1.0000000 1.8448803e-05
  Iterations, force evaluations = 239 478

MPI task timing breakdown:
Section |  min time  |  avg time  |  max time  |%varavg| %total
---------------------------------------------------------------
Pair    | 0.7266     | 2.0085     | 2.6194     |  38.2 | 72.22
Neigh   | 1.0308e-05 | 0.0029405  | 0.0042907  |   2.2 |  0.11
Comm    | 0.045358   | 0.45454    | 1.3674     |  56.0 | 16.35
Output  | 0          | 0          | 0          |   0.0 |  0.00
Modify  | 2.722e-05  | 0.0025714  | 0.0065424  |   3.2 |  0.09
Other   |            | 0.3124     |            |       | 11.23

Nlocal:        2776.45 ave        3960 max           0 min
Histogram: 8 4 4 0 4 12 8 2 28 34
Nghost:        3879.05 ave        5425 max         232 min
Histogram: 8 0 8 0 16 0 8 8 16 40
Neighs:        79213.4 ave      115426 max           0 min
Histogram: 8 4 4 0 10 6 8 8 24 32

Total # of neighbors = 8238190
Ave neighs/atom = 28.530429
Neighbor list builds = 1
Dangerous builds = 0
