LAMMPS (29 Oct 2020)
OMP_NUM_THREADS environment is not set. Defaulting to 1 thread. (../comm.cpp:94)
  using 1 OpenMP thread(s) per MPI task
OMP_NUM_THREADS environment is not set. Defaulting to 1 thread. (../comm.cpp:94)
  using 1 OpenMP thread(s) per MPI task
Reading data file ...
  orthogonal box = (-122.39241 -121.13707 -37.090501) to (122.39241 121.13707 37.090501)
  13 by 4 by 2 MPI processor grid
  reading atoms ...
  288751 atoms
  read_data CPU = 0.370 seconds
199981 atoms in group inner
88770 atoms in group outer
1 atoms in group carbon
Neighbor list info ...
  update every 1 steps, delay 0 steps, check yes
  max neighbors/atom: 2000, page size: 100000
  master list distance cutoff = 5.6
  ghost atom cutoff = 5.6
  binsize = 2.8, bins = 88 87 27
  1 neighbor lists, perpetual/occasional/extra = 1 0 0
  (1) pair eam/alloy, perpetual
      attributes: half, newton on
      pair build: half/bin/atomonly/newton
      stencil: half/bin/3d/newton
      bin: standard
Setting up cg style minimization ...
  Unit style    : metal
  Current step  : 0
Per MPI rank memory allocation (min/avg/max) = 5.441 | 5.816 | 6.074 Mbytes
Step v_fx v_fy v_fz PotEng KinEng TotEng 
       0   0.38824989    -0.479145  -0.60055585   -1152447.8            0   -1152447.8 
     154 2.972526e-05 1.5152333e-06 -1.8997177e-05   -1152449.5            0   -1152449.5 
Loop time of 1.83339 on 104 procs for 154 steps with 288751 atoms

99.8% CPU use with 104 MPI tasks x 1 OpenMP threads

Minimization stats:
  Stopping criterion = energy tolerance
  Energy initial, next-to-last, final = 
     -1152447.84490657  -1152449.45035284  -1152449.45035284
  Force two-norm initial, final = 9.8174702 0.00016954272
  Force max component initial, final = 5.3084670 4.8368062e-05
  Final line search alpha, max atom move = 1.0000000 4.8368062e-05
  Iterations, force evaluations = 154 307

MPI task timing breakdown:
Section |  min time  |  avg time  |  max time  |%varavg| %total
---------------------------------------------------------------
Pair    | 0.49286    | 1.2989     | 1.6867     |  30.0 | 70.85
Neigh   | 2.1188e-05 | 0.0058694  | 0.0084878  |   3.2 |  0.32
Comm    | 0.035398   | 0.29643    | 0.87551    |  44.3 | 16.17
Output  | 0          | 0          | 0          |   0.0 |  0.00
Modify  | 1.7516e-05 | 0.0016614  | 0.0042701  |   2.5 |  0.09
Other   |            | 0.2305     |            |       | 12.57

Nlocal:        2776.45 ave        3957 max           0 min
Histogram: 8 4 4 0 4 12 8 2 28 34
Nghost:        3879.03 ave        5424 max         232 min
Histogram: 8 0 8 0 16 0 8 8 16 40
Neighs:        79213.7 ave      115327 max           0 min
Histogram: 8 4 4 0 10 6 8 8 24 32

Total # of neighbors = 8238222
Ave neighs/atom = 28.530540
Neighbor list builds = 2
Dangerous builds = 0
Setting atom values ...
  1 settings made for x
  1 settings made for y
  1 settings made for z
Setting up cg style minimization ...
  Unit style    : metal
  Current step  : 154
Per MPI rank memory allocation (min/avg/max) = 5.441 | 5.816 | 6.074 Mbytes
Step PotEng KinEng TotEng v_fx v_fy v_fz 
     154   -1152449.4            0   -1152449.4  0.019906952  -0.05755591 -0.063072311 
     357   -1152449.4            0   -1152449.4 -6.4347838e-07 1.0216687e-05 1.8728315e-05 
Loop time of 2.41226 on 104 procs for 203 steps with 288751 atoms

99.9% CPU use with 104 MPI tasks x 1 OpenMP threads

Minimization stats:
  Stopping criterion = force tolerance
  Energy initial, next-to-last, final = 
     -1152449.44378166  -1152449.44832855  -1152449.44832855
  Force two-norm initial, final = 0.3258542 9.8932002e-05
  Force max component initial, final = 0.1465221 2.1322248e-05
  Final line search alpha, max atom move = 1.0000000 2.1322248e-05
  Iterations, force evaluations = 203 406

MPI task timing breakdown:
Section |  min time  |  avg time  |  max time  |%varavg| %total
---------------------------------------------------------------
Pair    | 0.62893    | 1.7152     | 2.2414     |  35.0 | 71.10
Neigh   | 0          | 0          | 0          |   0.0 |  0.00
Comm    | 0.049207   | 0.39292    | 1.1704     |  51.0 | 16.29
Output  | 0          | 0          | 0          |   0.0 |  0.00
Modify  | 2.6537e-05 | 0.0033511  | 0.0071408  |   2.7 |  0.14
Other   |            | 0.3007     |            |       | 12.47

Nlocal:        2776.45 ave        3960 max           0 min
Histogram: 8 4 4 0 4 12 8 2 28 34
Nghost:        3879.03 ave        5424 max         232 min
Histogram: 8 0 8 0 16 0 8 8 16 40
Neighs:        79213.4 ave      115436 max           0 min
Histogram: 8 4 4 0 10 6 8 8 24 32

Total # of neighbors = 8238198
Ave neighs/atom = 28.530457
Neighbor list builds = 0
Dangerous builds = 0
Setting atom values ...
  1 settings made for x
  1 settings made for y
  1 settings made for z
Setting up cg style minimization ...
  Unit style    : metal
  Current step  : 357
Per MPI rank memory allocation (min/avg/max) = 5.441 | 5.816 | 6.074 Mbytes
Step PotEng KinEng TotEng v_fx v_fy v_fz 
     357   -1152449.4            0   -1152449.4  0.025302765 -0.050829605 -0.060423116 
     497   -1152449.4            0   -1152449.4 -1.6299405e-05 1.0174341e-05 -2.9093799e-05 
Loop time of 1.64779 on 104 procs for 140 steps with 288751 atoms

99.9% CPU use with 104 MPI tasks x 1 OpenMP threads

Minimization stats:
  Stopping criterion = energy tolerance
  Energy initial, next-to-last, final = 
     -1152449.43946619  -1152449.44305282  -1152449.44305282
  Force two-norm initial, final = 0.28856834 0.00014152227
  Force max component initial, final = 0.12027046 3.1477999e-05
  Final line search alpha, max atom move = 1.0000000 3.1477999e-05
  Iterations, force evaluations = 140 280

MPI task timing breakdown:
Section |  min time  |  avg time  |  max time  |%varavg| %total
---------------------------------------------------------------
Pair    | 0.43169    | 1.1794     | 1.5385     |  29.2 | 71.57
Neigh   | 0          | 0          | 0          |   0.0 |  0.00
Comm    | 0.028749   | 0.26772    | 0.79952    |  42.8 | 16.25
Output  | 0          | 0          | 0          |   0.0 |  0.00
Modify  | 1.7251e-05 | 0.0023174  | 0.0049461  |   2.3 |  0.14
Other   |            | 0.1984     |            |       | 12.04

Nlocal:        2776.45 ave        3960 max           0 min
Histogram: 8 4 4 0 4 12 8 2 28 34
Nghost:        3879.03 ave        5424 max         232 min
Histogram: 8 0 8 0 16 0 8 8 16 40
Neighs:        79213.5 ave      115434 max           0 min
Histogram: 8 4 4 0 10 6 8 8 24 32

Total # of neighbors = 8238201
Ave neighs/atom = 28.530467
Neighbor list builds = 0
Dangerous builds = 0
The dot product: 1.31417787070316e-06
The angle: 87.8398807670348
Setting atom values ...
  1 settings made for x
  1 settings made for y
  1 settings made for z
Setting up cg style minimization ...
  Unit style    : metal
  Current step  : 497
Per MPI rank memory allocation (min/avg/max) = 5.441 | 5.816 | 6.074 Mbytes
Step PotEng KinEng TotEng v_fx v_fy v_fz 
     497   -1152449.4            0   -1152449.4   0.03073676  -0.04896175 -0.058776717 
     626   -1152449.4            0   -1152449.4 1.2193628e-05 -4.3368263e-06 4.2764679e-05 
Loop time of 1.52152 on 104 procs for 129 steps with 288751 atoms

99.9% CPU use with 104 MPI tasks x 1 OpenMP threads

Minimization stats:
  Stopping criterion = energy tolerance
  Energy initial, next-to-last, final = 
     -1152449.43089417  -1152449.43438238  -1152449.43438238
  Force two-norm initial, final = 0.28300948 0.00015939771
  Force max component initial, final = 0.1130406 4.2764679e-05
  Final line search alpha, max atom move = 1.0000000 4.2764679e-05
  Iterations, force evaluations = 129 258

MPI task timing breakdown:
Section |  min time  |  avg time  |  max time  |%varavg| %total
---------------------------------------------------------------
Pair    | 0.39595    | 1.0885     | 1.4099     |  27.9 | 71.54
Neigh   | 0          | 0          | 0          |   0.0 |  0.00
Comm    | 0.025899   | 0.24591    | 0.75342    |  41.8 | 16.16
Output  | 0          | 0          | 0          |   0.0 |  0.00
Modify  | 1.6154e-05 | 0.0021386  | 0.0046126  |   2.2 |  0.14
Other   |            | 0.185      |            |       | 12.16

Nlocal:        2776.45 ave        3958 max           0 min
Histogram: 8 4 4 0 4 12 8 2 28 34
Nghost:        3879.03 ave        5424 max         232 min
Histogram: 8 0 8 0 16 0 8 8 16 40
Neighs:        79213.5 ave      115355 max           0 min
Histogram: 8 4 4 0 10 6 8 8 24 32

Total # of neighbors = 8238203
Ave neighs/atom = 28.530474
Neighbor list builds = 0
Dangerous builds = 0
The dot product: -1.52091509234615e-06
The angle: 91.9507313869729
Setting atom values ...
  1 settings made for x
  1 settings made for y
  1 settings made for z
Setting up cg style minimization ...
  Unit style    : metal
  Current step  : 626
Per MPI rank memory allocation (min/avg/max) = 5.441 | 5.816 | 6.074 Mbytes
Step PotEng KinEng TotEng v_fx v_fy v_fz 
     626   -1152449.4            0   -1152449.4  0.035646778 -0.048789652 -0.057342419 
     758   -1152449.4            0   -1152449.4 9.7239849e-06 -1.1728452e-05 -5.8483709e-06 
Loop time of 1.53968 on 104 procs for 132 steps with 288751 atoms

99.9% CPU use with 104 MPI tasks x 1 OpenMP threads

Minimization stats:
  Stopping criterion = energy tolerance
  Energy initial, next-to-last, final = 
      -1152449.4187986  -1152449.42221265  -1152449.42221265
  Force two-norm initial, final = 0.27872911 0.00012842008
  Force max component initial, final = 0.10832006 2.7284353e-05
  Final line search alpha, max atom move = 1.0000000 2.7284353e-05
  Iterations, force evaluations = 132 264

MPI task timing breakdown:
Section |  min time  |  avg time  |  max time  |%varavg| %total
---------------------------------------------------------------
Pair    | 0.40601    | 1.1078     | 1.4416     |  28.2 | 71.95
Neigh   | 0          | 0          | 0          |   0.0 |  0.00
Comm    | 0.024468   | 0.24973    | 0.75179    |  41.9 | 16.22
Output  | 0          | 0          | 0          |   0.0 |  0.00
Modify  | 1.5642e-05 | 0.0021869  | 0.0047292  |   2.2 |  0.14
Other   |            | 0.18       |            |       | 11.69

Nlocal:        2776.45 ave        3957 max           0 min
Histogram: 8 4 4 0 4 12 8 2 28 34
Nghost:        3879.03 ave        5424 max         232 min
Histogram: 8 0 8 0 16 0 8 8 16 40
Neighs:        79213.5 ave      115319 max           0 min
Histogram: 8 4 4 0 10 6 8 8 24 32

Total # of neighbors = 8238202
Ave neighs/atom = 28.530471
Neighbor list builds = 0
Dangerous builds = 0
The dot product: 4.80868901217179e-07
The angle: 88.3114511139224
Setting atom values ...
  1 settings made for x
  1 settings made for y
  1 settings made for z
Setting up cg style minimization ...
  Unit style    : metal
  Current step  : 758
Per MPI rank memory allocation (min/avg/max) = 5.441 | 5.816 | 6.074 Mbytes
Step PotEng KinEng TotEng v_fx v_fy v_fz 
     758   -1152449.4            0   -1152449.4  0.041327501 -0.050657865 -0.058317506 
     897   -1152449.4            0   -1152449.4 3.6449044e-06 -2.0178894e-06 1.6393865e-05 
Loop time of 1.63596 on 104 procs for 139 steps with 288751 atoms

99.9% CPU use with 104 MPI tasks x 1 OpenMP threads

Minimization stats:
  Stopping criterion = force tolerance
  Energy initial, next-to-last, final = 
     -1152449.40312743  -1152449.40649112  -1152449.40649112
  Force two-norm initial, final = 0.27582575 9.2694418e-05
  Force max component initial, final = 0.10387357 1.6393865e-05
  Final line search alpha, max atom move = 1.0000000 1.6393865e-05
  Iterations, force evaluations = 139 278

MPI task timing breakdown:
Section |  min time  |  avg time  |  max time  |%varavg| %total
---------------------------------------------------------------
Pair    | 0.42747    | 1.1735     | 1.5228     |  29.1 | 71.73
Neigh   | 0          | 0          | 0          |   0.0 |  0.00
Comm    | 0.028268   | 0.26462    | 0.79189    |  42.6 | 16.18
Output  | 0          | 0          | 0          |   0.0 |  0.00
Modify  | 1.6227e-05 | 0.0023037  | 0.0049114  |   2.3 |  0.14
Other   |            | 0.1955     |            |       | 11.95

Nlocal:        2776.45 ave        3956 max           0 min
Histogram: 8 4 4 0 4 12 8 1 29 34
Nghost:        3879.03 ave        5424 max         232 min
Histogram: 8 0 8 0 16 0 8 8 16 40
Neighs:        79213.5 ave      115287 max           0 min
Histogram: 8 4 4 0 10 6 8 8 24 32

Total # of neighbors = 8238200
Ave neighs/atom = 28.530464
Neighbor list builds = 0
Dangerous builds = 0
The dot product: -3.29554857913556e-07
The angle: 91.116366358689
Setting atom values ...
  1 settings made for x
  1 settings made for y
  1 settings made for z
Setting up cg style minimization ...
  Unit style    : metal
  Current step  : 897
Per MPI rank memory allocation (min/avg/max) = 5.441 | 5.816 | 6.074 Mbytes
Step PotEng KinEng TotEng v_fx v_fy v_fz 
     897   -1152449.4            0   -1152449.4    0.0489993  -0.05454681 -0.062474168 
    1000   -1152449.4            0   -1152449.4 3.0620229e-05 -2.14381e-05 0.00013061655 
    1033   -1152449.4            0   -1152449.4 1.7049777e-05 -1.94215e-05 -2.7659117e-05 
Loop time of 1.62586 on 104 procs for 136 steps with 288751 atoms

99.8% CPU use with 104 MPI tasks x 1 OpenMP threads

Minimization stats:
  Stopping criterion = energy tolerance
  Energy initial, next-to-last, final = 
     -1152449.38389711  -1152449.38724512  -1152449.38724512
  Force two-norm initial, final = 0.27439707 0.00014043727
  Force max component initial, final = 0.10640882 2.9048102e-05
  Final line search alpha, max atom move = 1.0000000 2.9048102e-05
  Iterations, force evaluations = 136 272

MPI task timing breakdown:
Section |  min time  |  avg time  |  max time  |%varavg| %total
---------------------------------------------------------------
Pair    | 0.41939    | 1.1488     | 1.4976     |  28.9 | 70.66
Neigh   | 0          | 0          | 0          |   0.0 |  0.00
Comm    | 0.035848   | 0.2625     | 0.79579    |  41.9 | 16.15
Output  | 0.00020298 | 0.00020625 | 0.00033036 |   0.0 |  0.01
Modify  | 1.9687e-05 | 0.0022504  | 0.0047775  |   2.2 |  0.14
Other   |            | 0.2121     |            |       | 13.05

Nlocal:        2776.45 ave        3954 max           0 min
Histogram: 8 4 4 0 4 12 8 2 28 34
Nghost:        3879.07 ave        5424 max         232 min
Histogram: 8 0 8 0 16 0 8 8 16 40
Neighs:        79213.4 ave      115232 max           0 min
Histogram: 8 4 4 0 10 6 8 8 24 32

Total # of neighbors = 8238197
Ave neighs/atom = 28.530454
Neighbor list builds = 0
Dangerous builds = 0
The dot product: 1.47906242864088e-06
The angle: 87.7607154070776
Setting atom values ...
  1 settings made for x
  1 settings made for y
  1 settings made for z
Setting up cg style minimization ...
  Unit style    : metal
  Current step  : 1033
Per MPI rank memory allocation (min/avg/max) = 5.441 | 5.816 | 6.074 Mbytes
Step PotEng KinEng TotEng v_fx v_fy v_fz 
    1033   -1152449.4            0   -1152449.4   0.06263947  -0.06284794 -0.074642725 
    1209   -1152449.4            0   -1152449.4 -2.6199897e-05 2.4460739e-05 -1.9689086e-05 
Loop time of 2.08072 on 104 procs for 176 steps with 288751 atoms

99.9% CPU use with 104 MPI tasks x 1 OpenMP threads

Minimization stats:
  Stopping criterion = energy tolerance
  Energy initial, next-to-last, final = 
     -1152449.36125006  -1152449.36479792  -1152449.36479792
  Force two-norm initial, final = 0.27730361 0.00017977877
  Force max component initial, final = 0.11036848 3.8352488e-05
  Final line search alpha, max atom move = 1.0000000 3.8352488e-05
  Iterations, force evaluations = 176 352

MPI task timing breakdown:
Section |  min time  |  avg time  |  max time  |%varavg| %total
---------------------------------------------------------------
Pair    | 0.54205    | 1.4837     | 1.9203     |  32.5 | 71.31
Neigh   | 0          | 0          | 0          |   0.0 |  0.00
Comm    | 0.045519   | 0.33585    | 1.0057     |  47.8 | 16.14
Output  | 0          | 0          | 0          |   0.0 |  0.00
Modify  | 2.1207e-05 | 0.0028996  | 0.0061827  |   2.5 |  0.14
Other   |            | 0.2583     |            |       | 12.41

Nlocal:        2776.45 ave        3945 max           0 min
Histogram: 8 4 4 0 4 12 8 2 26 36
Nghost:        3879.11 ave        5424 max         232 min
Histogram: 8 0 8 0 16 0 8 8 16 40
Neighs:        79213.4 ave      114959 max           0 min
Histogram: 8 4 4 0 10 6 8 8 24 32

Total # of neighbors = 8238196
Ave neighs/atom = 28.530450
Neighbor list builds = 0
Dangerous builds = 0
The dot product: -1.09529098077101e-06
The angle: 91.53472681193
Setting atom values ...
  1 settings made for x
  1 settings made for y
  1 settings made for z
Setting up cg style minimization ...
  Unit style    : metal
  Current step  : 1209
Per MPI rank memory allocation (min/avg/max) = 5.441 | 5.816 | 6.074 Mbytes
Step PotEng KinEng TotEng v_fx v_fy v_fz 
    1209   -1152449.3            0   -1152449.3   0.10165515 -0.083047456  -0.11432707 
    1394   -1152449.3            0   -1152449.3 -2.1957589e-05 1.7432202e-05 4.0090208e-05 
Loop time of 2.158 on 104 procs for 185 steps with 288751 atoms

99.9% CPU use with 104 MPI tasks x 1 OpenMP threads

Minimization stats:
  Stopping criterion = energy tolerance
  Energy initial, next-to-last, final = 
     -1152449.33634523  -1152449.34576384  -1152449.34576384
  Force two-norm initial, final = 0.30091413 0.00020431028
  Force max component initial, final = 0.11593439 4.0090208e-05
  Final line search alpha, max atom move = 1.0000000 4.0090208e-05
  Iterations, force evaluations = 185 370

MPI task timing breakdown:
Section |  min time  |  avg time  |  max time  |%varavg| %total
---------------------------------------------------------------
Pair    | 0.57767    | 1.5555     | 2.0166     |  33.2 | 72.08
Neigh   | 2.2016e-05 | 0.0059188  | 0.0085972  |   3.2 |  0.27
Comm    | 0.042318   | 0.34853    | 1.0533     |  49.7 | 16.15
Output  | 0          | 0          | 0          |   0.0 |  0.00
Modify  | 2.1935e-05 | 0.0030528  | 0.006537   |   2.6 |  0.14
Other   |            | 0.245      |            |       | 11.35

Nlocal:        2776.45 ave        3941 max           0 min
Histogram: 8 4 4 0 4 12 8 2 26 36
Nghost:        3879.11 ave        5424 max         232 min
Histogram: 8 0 8 0 16 0 8 8 16 40
Neighs:        79213.4 ave      114830 max           0 min
Histogram: 8 4 4 0 10 6 8 8 22 34

Total # of neighbors = 8238192
Ave neighs/atom = 28.530436
Neighbor list builds = 2
Dangerous builds = 1
The dot product: -1.5072879496952e-05
The angle: 107.945243764621
Setting atom values ...
  1 settings made for x
  1 settings made for y
  1 settings made for z
Setting up cg style minimization ...
  Unit style    : metal
  Current step  : 1394
Per MPI rank memory allocation (min/avg/max) = 5.441 | 5.816 | 6.074 Mbytes
Step PotEng KinEng TotEng v_fx v_fy v_fz 
    1394   -1152449.3            0   -1152449.3   0.24478044 -0.072783888  -0.17545178 
    1654   -1152449.3            0   -1152449.3 -2.4239395e-05 9.5282309e-06 8.3662387e-06 
Loop time of 3.03839 on 104 procs for 260 steps with 288751 atoms

99.9% CPU use with 104 MPI tasks x 1 OpenMP threads

Minimization stats:
  Stopping criterion = energy tolerance
  Energy initial, next-to-last, final = 
     -1152449.32249848  -1152449.34787966  -1152449.34787966
  Force two-norm initial, final = 0.3777205 0.00016485815
  Force max component initial, final = 0.24478044 3.8250504e-05
  Final line search alpha, max atom move = 1.0000000 3.8250504e-05
  Iterations, force evaluations = 260 520

MPI task timing breakdown:
Section |  min time  |  avg time  |  max time  |%varavg| %total
---------------------------------------------------------------
Pair    | 0.80666    | 2.1949     | 2.8415     |  39.6 | 72.24
Neigh   | 2.0186e-05 | 0.0059159  | 0.0086103  |   3.2 |  0.19
Comm    | 0.055048   | 0.49609    | 1.5181     |  58.5 | 16.33
Output  | 0          | 0          | 0          |   0.0 |  0.00
Modify  | 3.0494e-05 | 0.0042907  | 0.0092051  |   3.1 |  0.14
Other   |            | 0.3372     |            |       | 11.10

Nlocal:        2776.45 ave        3948 max           0 min
Histogram: 8 4 4 0 4 12 8 2 26 36
Nghost:        3879.03 ave        5424 max         232 min
Histogram: 8 0 8 0 16 0 8 8 16 40
Neighs:        79213.3 ave      115014 max           0 min
Histogram: 8 4 4 0 10 6 8 8 24 32

Total # of neighbors = 8238187
Ave neighs/atom = 28.530419
Neighbor list builds = 2
Dangerous builds = 0
The dot product: -1.22596386853323e-05
The angle: 116.625571767905
Setting atom values ...
  1 settings made for x
  1 settings made for y
  1 settings made for z
Setting up cg style minimization ...
  Unit style    : metal
  Current step  : 1654
Per MPI rank memory allocation (min/avg/max) = 5.441 | 5.816 | 6.074 Mbytes
Step PotEng KinEng TotEng v_fx v_fy v_fz 
    1654   -1152449.3            0   -1152449.3 -0.072643995 -0.042403202  0.070136585 
    1795   -1152449.4            0   -1152449.4 7.1902708e-06 1.2737704e-05 -2.079119e-05 
Loop time of 1.66386 on 104 procs for 141 steps with 288751 atoms

99.9% CPU use with 104 MPI tasks x 1 OpenMP threads

Minimization stats:
  Stopping criterion = force tolerance
  Energy initial, next-to-last, final = 
     -1152449.34856516  -1152449.35122972  -1152449.35122972
  Force two-norm initial, final = 0.21556647 9.9133943e-05
  Force max component initial, final = 0.077214073 2.0791190e-05
  Final line search alpha, max atom move = 1.0000000 2.0791190e-05
  Iterations, force evaluations = 141 282

MPI task timing breakdown:
Section |  min time  |  avg time  |  max time  |%varavg| %total
---------------------------------------------------------------
Pair    | 0.43683    | 1.1914     | 1.5551     |  29.2 | 71.60
Neigh   | 0          | 0          | 0          |   0.0 |  0.00
Comm    | 0.032689   | 0.27336    | 0.82332    |  43.2 | 16.43
Output  | 0          | 0          | 0          |   0.0 |  0.00
Modify  | 1.6919e-05 | 0.0023334  | 0.0049864  |   2.3 |  0.14
Other   |            | 0.1968     |            |       | 11.83

Nlocal:        2776.45 ave        3960 max           0 min
Histogram: 8 4 4 0 4 12 8 2 28 34
Nghost:        3879.03 ave        5426 max         232 min
Histogram: 8 0 8 0 16 0 8 8 16 40
Neighs:        79213.4 ave      115438 max           0 min
Histogram: 8 4 4 0 10 6 8 8 24 32

Total # of neighbors = 8238190
Ave neighs/atom = 28.530429
Neighbor list builds = 0
Dangerous builds = 0
The dot product: -7.878354039441e-07
The angle: 91.7759738993846
Setting atom values ...
  1 settings made for x
  1 settings made for y
  1 settings made for z
Setting up cg style minimization ...
  Unit style    : metal
  Current step  : 1795
Per MPI rank memory allocation (min/avg/max) = 5.441 | 5.816 | 6.074 Mbytes
Step PotEng KinEng TotEng v_fx v_fy v_fz 
    1795   -1152449.3            0   -1152449.3 0.0035301446 -0.016545945  0.027876132 
    1998   -1152449.4            0   -1152449.4 -1.6502375e-06 -1.1079406e-05 1.902651e-05 
Loop time of 2.37725 on 104 procs for 203 steps with 288751 atoms

99.9% CPU use with 104 MPI tasks x 1 OpenMP threads

Minimization stats:
  Stopping criterion = energy tolerance
  Energy initial, next-to-last, final = 
     -1152449.34915084   -1152449.3511659   -1152449.3511659
  Force two-norm initial, final = 0.18723074 0.00011006973
  Force max component initial, final = 0.079388055 1.9026510e-05
  Final line search alpha, max atom move = 1.0000000 1.9026510e-05
  Iterations, force evaluations = 203 406

MPI task timing breakdown:
Section |  min time  |  avg time  |  max time  |%varavg| %total
---------------------------------------------------------------
Pair    | 0.62206    | 1.7085     | 2.2403     |  35.1 | 71.87
Neigh   | 0          | 0          | 0          |   0.0 |  0.00
Comm    | 0.041762   | 0.38792    | 1.1621     |  51.5 | 16.32
Output  | 0          | 0          | 0          |   0.0 |  0.00
Modify  | 2.3835e-05 | 0.0033493  | 0.0071713  |   2.7 |  0.14
Other   |            | 0.2774     |            |       | 11.67

Nlocal:        2776.45 ave        3959 max           0 min
Histogram: 8 4 4 0 4 12 8 2 28 34
Nghost:        3879.03 ave        5424 max         232 min
Histogram: 8 0 8 0 16 0 8 8 16 40
Neighs:        79213.4 ave      115401 max           0 min
Histogram: 8 4 4 0 10 6 8 8 24 32

Total # of neighbors = 8238190
Ave neighs/atom = 28.530429
Neighbor list builds = 0
Dangerous builds = 0
The dot product: 3.13303062685023e-08
The angle: 89.9186969249834
Setting atom values ...
  1 settings made for x
  1 settings made for y
  1 settings made for z
Setting up cg style minimization ...
  Unit style    : metal
  Current step  : 1998
Per MPI rank memory allocation (min/avg/max) = 5.441 | 5.816 | 6.074 Mbytes
Step PotEng KinEng TotEng v_fx v_fy v_fz 
    1998   -1152449.3            0   -1152449.3 0.0023364314 -0.015079148  0.025582831 
    2000   -1152449.3            0   -1152449.3 -0.011768027 -0.011639341  0.020922524 
    2192   -1152449.3            0   -1152449.3 -3.0464345e-05 -1.4236335e-05 2.6982844e-05 
Loop time of 2.24748 on 104 procs for 194 steps with 288751 atoms

99.9% CPU use with 104 MPI tasks x 1 OpenMP threads

Minimization stats:
  Stopping criterion = energy tolerance
  Energy initial, next-to-last, final = 
     -1152449.34609501  -1152449.34806965  -1152449.34806965
  Force two-norm initial, final = 0.18548658 0.00013888911
  Force max component initial, final = 0.078967413 3.7304541e-05
  Final line search alpha, max atom move = 1.0000000 3.7304541e-05
  Iterations, force evaluations = 194 388

MPI task timing breakdown:
Section |  min time  |  avg time  |  max time  |%varavg| %total
---------------------------------------------------------------
Pair    | 0.59372    | 1.6248     | 2.1204     |  34.2 | 72.29
Neigh   | 0          | 0          | 0          |   0.0 |  0.00
Comm    | 0.037162   | 0.36563    | 1.1009     |  50.7 | 16.27
Output  | 0.00015505 | 0.00015661 | 0.00020851 |   0.0 |  0.01
Modify  | 2.2801e-05 | 0.0032027  | 0.0068236  |   2.7 |  0.14
Other   |            | 0.2537     |            |       | 11.29

Nlocal:        2776.45 ave        3960 max           0 min
Histogram: 8 4 4 0 4 12 8 2 28 34
Nghost:        3879.03 ave        5424 max         232 min
Histogram: 8 0 8 0 16 0 8 8 16 40
Neighs:        79213.4 ave      115429 max           0 min
Histogram: 8 4 4 0 10 6 8 8 24 32

Total # of neighbors = 8238191
Ave neighs/atom = 28.530433
Neighbor list builds = 0
Dangerous builds = 0
The dot product: 2.0626267443852e-08
The angle: 89.9725890416063
Setting atom values ...
  1 settings made for x
  1 settings made for y
  1 settings made for z
Setting up cg style minimization ...
  Unit style    : metal
  Current step  : 2192
Per MPI rank memory allocation (min/avg/max) = 5.441 | 5.816 | 6.074 Mbytes
Step PotEng KinEng TotEng v_fx v_fy v_fz 
    2192   -1152449.3            0   -1152449.3 0.0021312274 -0.012756573  0.021715805 
    2399   -1152449.3            0   -1152449.3 -1.5013209e-05 -3.2658066e-06 6.8807164e-06 
Loop time of 2.40269 on 104 procs for 207 steps with 288751 atoms

99.9% CPU use with 104 MPI tasks x 1 OpenMP threads

Minimization stats:
  Stopping criterion = force tolerance
  Energy initial, next-to-last, final = 
     -1152449.33998344  -1152449.34191387  -1152449.34191387
  Force two-norm initial, final = 0.1835646 9.5519770e-05
  Force max component initial, final = 0.078680425 1.5978375e-05
  Final line search alpha, max atom move = 1.0000000 1.5978375e-05
  Iterations, force evaluations = 207 414

MPI task timing breakdown:
Section |  min time  |  avg time  |  max time  |%varavg| %total
---------------------------------------------------------------
Pair    | 0.636      | 1.7418     | 2.2623     |  35.4 | 72.49
Neigh   | 0          | 0          | 0          |   0.0 |  0.00
Comm    | 0.044523   | 0.38999    | 1.1822     |  52.4 | 16.23
Output  | 0          | 0          | 0          |   0.0 |  0.00
Modify  | 2.4404e-05 | 0.0034125  | 0.0072628  |   2.8 |  0.14
Other   |            | 0.2675     |            |       | 11.13

Nlocal:        2776.45 ave        3958 max           0 min
Histogram: 8 4 4 0 4 12 8 2 28 34
Nghost:        3879.03 ave        5424 max         232 min
Histogram: 8 0 8 0 16 0 8 8 16 40
Neighs:        79213.4 ave      115371 max           0 min
Histogram: 8 4 4 0 10 6 8 8 24 32

Total # of neighbors = 8238190
Ave neighs/atom = 28.530429
Neighbor list builds = 0
Dangerous builds = 0
The dot product: -2.32549467589281e-09
The angle: 90.0079146793372
Setting atom values ...
  1 settings made for x
  1 settings made for y
  1 settings made for z
Setting up cg style minimization ...
  Unit style    : metal
  Current step  : 2399
Per MPI rank memory allocation (min/avg/max) = 5.441 | 5.816 | 6.074 Mbytes
Step PotEng KinEng TotEng v_fx v_fy v_fz 
    2399   -1152449.3            0   -1152449.3 0.00077470363 -0.010501163  0.018014205 
    2596   -1152449.3            0   -1152449.3 6.3174657e-06 2.2331647e-05 -3.8973885e-05 
Loop time of 2.30765 on 104 procs for 197 steps with 288751 atoms

99.9% CPU use with 104 MPI tasks x 1 OpenMP threads

Minimization stats:
  Stopping criterion = energy tolerance
  Energy initial, next-to-last, final = 
     -1152449.33075842    -1152449.332665    -1152449.332665
  Force two-norm initial, final = 0.18265622 0.0001274834
  Force max component initial, final = 0.078349158 3.8973885e-05
  Final line search alpha, max atom move = 1.0000000 3.8973885e-05
  Iterations, force evaluations = 197 394

MPI task timing breakdown:
Section |  min time  |  avg time  |  max time  |%varavg| %total
---------------------------------------------------------------
Pair    | 0.6033     | 1.6531     | 2.1561     |  34.6 | 71.64
Neigh   | 0          | 0          | 0          |   0.0 |  0.00
Comm    | 0.039494   | 0.37294    | 1.1156     |  50.9 | 16.16
Output  | 0          | 0          | 0          |   0.0 |  0.00
Modify  | 2.311e-05  | 0.0032559  | 0.0069378  |   2.7 |  0.14
Other   |            | 0.2783     |            |       | 12.06

Nlocal:        2776.45 ave        3955 max           0 min
Histogram: 8 4 4 0 4 12 8 0 30 34
Nghost:        3879.03 ave        5424 max         232 min
Histogram: 8 0 8 0 16 0 8 8 16 40
Neighs:        79213.4 ave      115269 max           0 min
Histogram: 8 4 4 0 10 6 8 8 24 32

Total # of neighbors = 8238192
Ave neighs/atom = 28.530436
Neighbor list builds = 0
Dangerous builds = 0
The dot product: -4.27383104860824e-08
The angle: 90.053983624748
Setting atom values ...
  1 settings made for x
  1 settings made for y
  1 settings made for z
Setting up cg style minimization ...
  Unit style    : metal
  Current step  : 2596
Per MPI rank memory allocation (min/avg/max) = 5.441 | 5.816 | 6.074 Mbytes
Step PotEng KinEng TotEng v_fx v_fy v_fz 
    2596   -1152449.3            0   -1152449.3  -0.00191513 -0.0085228563  0.014865895 
    2785   -1152449.3            0   -1152449.3 -2.9029952e-05 -1.9842789e-05 3.6642858e-05 
Loop time of 2.21318 on 104 procs for 189 steps with 288751 atoms

99.9% CPU use with 104 MPI tasks x 1 OpenMP threads

Minimization stats:
  Stopping criterion = energy tolerance
  Energy initial, next-to-last, final = 
     -1152449.31833845  -1152449.32024852  -1152449.32024852
  Force two-norm initial, final = 0.18299062 0.00015087674
  Force max component initial, final = 0.078016568 3.7401682e-05
  Final line search alpha, max atom move = 1.0000000 3.7401682e-05
  Iterations, force evaluations = 189 378

MPI task timing breakdown:
Section |  min time  |  avg time  |  max time  |%varavg| %total
---------------------------------------------------------------
Pair    | 0.57994    | 1.5913     | 2.0632     |  33.9 | 71.90
Neigh   | 0          | 0          | 0          |   0.0 |  0.00
Comm    | 0.042733   | 0.35694    | 1.0873     |  50.3 | 16.13
Output  | 0          | 0          | 0          |   0.0 |  0.00
Modify  | 2.2829e-05 | 0.0031192  | 0.0066769  |   2.6 |  0.14
Other   |            | 0.2618     |            |       | 11.83

Nlocal:        2776.45 ave        3951 max           0 min
Histogram: 8 4 4 0 4 12 8 0 30 34
Nghost:        3878.99 ave        5424 max         232 min
Histogram: 8 0 8 0 16 0 8 8 16 40
Neighs:        79213.3 ave      115159 max           0 min
Histogram: 8 4 4 0 10 6 8 8 24 32

Total # of neighbors = 8238188
Ave neighs/atom = 28.530422
Neighbor list builds = 0
Dangerous builds = 0
The dot product: 3.32378458505599e-08
The angle: 89.9625013825369
Setting atom values ...
  1 settings made for x
  1 settings made for y
  1 settings made for z
Setting up cg style minimization ...
  Unit style    : metal
  Current step  : 2785
Per MPI rank memory allocation (min/avg/max) = 5.441 | 5.816 | 6.074 Mbytes
Step PotEng KinEng TotEng v_fx v_fy v_fz 
    2785   -1152449.3            0   -1152449.3 -0.0058965324 -0.0070286678  0.012639931 
    2962   -1152449.3            0   -1152449.3 -8.3248442e-06 1.9768357e-05 -3.348797e-05 
Loop time of 2.04598 on 104 procs for 177 steps with 288751 atoms

99.9% CPU use with 104 MPI tasks x 1 OpenMP threads

Minimization stats:
  Stopping criterion = energy tolerance
  Energy initial, next-to-last, final = 
     -1152449.30262278  -1152449.30455469  -1152449.30455469
  Force two-norm initial, final = 0.18427019 0.00022399212
  Force max component initial, final = 0.077589688 4.5100623e-05
  Final line search alpha, max atom move = 1.0000000 4.5100623e-05
  Iterations, force evaluations = 177 354

MPI task timing breakdown:
Section |  min time  |  avg time  |  max time  |%varavg| %total
---------------------------------------------------------------
Pair    | 0.5429     | 1.4833     | 1.9275     |  32.7 | 72.50
Neigh   | 0          | 0          | 0          |   0.0 |  0.00
Comm    | 0.038659   | 0.33192    | 1.0089     |  48.6 | 16.22
Output  | 0          | 0          | 0          |   0.0 |  0.00
Modify  | 2.1156e-05 | 0.0029178  | 0.0062221  |   2.5 |  0.14
Other   |            | 0.2279     |            |       | 11.14

Nlocal:        2776.45 ave        3945 max           0 min
Histogram: 8 4 4 0 4 12 8 0 28 36
Nghost:        3879.09 ave        5424 max         232 min
Histogram: 8 0 8 0 16 0 8 8 16 40
Neighs:        79213.4 ave      114965 max           0 min
Histogram: 8 4 4 0 10 6 8 8 24 32

Total # of neighbors = 8238189
Ave neighs/atom = 28.530426
Neighbor list builds = 0
Dangerous builds = 0
The dot product: -2.36272529879431e-08
The angle: 90.0340405420625
Setting atom values ...
  1 settings made for x
  1 settings made for y
  1 settings made for z
Setting up cg style minimization ...
  Unit style    : metal
  Current step  : 2962
Per MPI rank memory allocation (min/avg/max) = 5.441 | 5.816 | 6.074 Mbytes
Step PotEng KinEng TotEng v_fx v_fy v_fz 
    2962   -1152449.3            0   -1152449.3 -0.010881958 -0.0062357198  0.011712148 
    3000   -1152449.3            0   -1152449.3 -0.00047191126 0.00039157068 -0.00063849538 
    3129   -1152449.3            0   -1152449.3 -2.3008807e-05 -3.0865631e-05 5.5383079e-05 
Loop time of 1.98333 on 104 procs for 167 steps with 288751 atoms

99.9% CPU use with 104 MPI tasks x 1 OpenMP threads

Minimization stats:
  Stopping criterion = energy tolerance
  Energy initial, next-to-last, final = 
     -1152449.28354068  -1152449.28548477  -1152449.28548477
  Force two-norm initial, final = 0.1857814 0.00032844986
  Force max component initial, final = 0.077190003 5.5383079e-05
  Final line search alpha, max atom move = 1.0000000 5.5383079e-05
  Iterations, force evaluations = 167 334

MPI task timing breakdown:
Section |  min time  |  avg time  |  max time  |%varavg| %total
---------------------------------------------------------------
Pair    | 0.51216    | 1.4082     | 1.8281     |  31.9 | 71.00
Neigh   | 0          | 0          | 0          |   0.0 |  0.00
Comm    | 0.033383   | 0.32025    | 0.97078    |  46.5 | 16.15
Output  | 0.00015194 | 0.00015516 | 0.00024179 |   0.0 |  0.01
Modify  | 2.0311e-05 | 0.0027638  | 0.00593    |   2.5 |  0.14
Other   |            | 0.2519     |            |       | 12.70

Nlocal:        2776.45 ave        3941 max           0 min
Histogram: 8 4 4 0 4 12 8 0 28 36
Nghost:        3879.14 ave        5425 max         232 min
Histogram: 8 0 8 0 16 0 8 8 16 40
Neighs:        79213.3 ave      114827 max           0 min
Histogram: 8 4 4 0 10 6 8 8 22 34

Total # of neighbors = 8238187
Ave neighs/atom = 28.530419
Neighbor list builds = 0
Dangerous builds = 0
The dot product: 7.70411204890052e-08
The angle: 89.9345560790366
Setting atom values ...
  1 settings made for x
  1 settings made for y
  1 settings made for z
Setting up cg style minimization ...
  Unit style    : metal
  Current step  : 3129
Per MPI rank memory allocation (min/avg/max) = 5.441 | 5.816 | 6.074 Mbytes
Step PotEng KinEng TotEng v_fx v_fy v_fz 
    3129   -1152449.3            0   -1152449.3 -0.016632506 -0.007080457  0.013719858 
    3322   -1152449.3            0   -1152449.3 1.8506014e-05 1.2130589e-05 -2.2643536e-05 
Loop time of 2.23788 on 104 procs for 193 steps with 288751 atoms

99.9% CPU use with 104 MPI tasks x 1 OpenMP threads

Minimization stats:
  Stopping criterion = energy tolerance
  Energy initial, next-to-last, final = 
     -1152449.26108636  -1152449.26301031  -1152449.26301031
  Force two-norm initial, final = 0.18712831 0.00014236958
  Force max component initial, final = 0.076740363 2.2643536e-05
  Final line search alpha, max atom move = 1.0000000 2.2643536e-05
  Iterations, force evaluations = 193 386

MPI task timing breakdown:
Section |  min time  |  avg time  |  max time  |%varavg| %total
---------------------------------------------------------------
Pair    | 0.5909     | 1.62       | 2.1053     |  34.2 | 72.39
Neigh   | 0          | 0          | 0          |   0.0 |  0.00
Comm    | 0.037873   | 0.36574    | 1.1091     |  51.0 | 16.34
Output  | 0          | 0          | 0          |   0.0 |  0.00
Modify  | 2.2809e-05 | 0.0031884  | 0.0068081  |   2.7 |  0.14
Other   |            | 0.2489     |            |       | 11.12

Nlocal:        2776.45 ave        3937 max           0 min
Histogram: 8 4 4 0 4 12 8 0 28 36
Nghost:        3879.14 ave        5425 max         232 min
Histogram: 8 0 8 0 16 0 8 8 16 40
Neighs:        79213.3 ave      114673 max           0 min
Histogram: 8 4 4 0 8 8 8 8 22 34

Total # of neighbors = 8238187
Ave neighs/atom = 28.530419
Neighbor list builds = 0
Dangerous builds = 0
The dot product: -6.89084058471026e-08
The angle: 90.1247052459722
Setting atom values ...
  1 settings made for x
  1 settings made for y
  1 settings made for z
Setting up cg style minimization ...
  Unit style    : metal
  Current step  : 3322
Per MPI rank memory allocation (min/avg/max) = 5.441 | 5.816 | 6.074 Mbytes
Step PotEng KinEng TotEng v_fx v_fy v_fz 
    3322   -1152449.2            0   -1152449.2 -0.022838283 -0.010548563  0.020418465 
    3526   -1152449.2            0   -1152449.2 -1.7305647e-05 -6.5619233e-06 1.2980779e-05 
Loop time of 2.36345 on 104 procs for 204 steps with 288751 atoms

99.9% CPU use with 104 MPI tasks x 1 OpenMP threads

Minimization stats:
  Stopping criterion = force tolerance
  Energy initial, next-to-last, final = 
     -1152449.23541479  -1152449.23729323  -1152449.23729322
  Force two-norm initial, final = 0.18929333 9.7395760e-05
  Force max component initial, final = 0.076427107 1.7305647e-05
  Final line search alpha, max atom move = 1.0000000 1.7305647e-05
  Iterations, force evaluations = 204 408

MPI task timing breakdown:
Section |  min time  |  avg time  |  max time  |%varavg| %total
---------------------------------------------------------------
Pair    | 0.62313    | 1.7179     | 2.2258     |  35.2 | 72.69
Neigh   | 0          | 0          | 0          |   0.0 |  0.00
Comm    | 0.038752   | 0.38579    | 1.1844     |  52.3 | 16.32
Output  | 0          | 0          | 0          |   0.0 |  0.00
Modify  | 2.4027e-05 | 0.0033703  | 0.0072293  |   2.7 |  0.14
Other   |            | 0.2564     |            |       | 10.85

Nlocal:        2776.45 ave        3930 max           0 min
Histogram: 8 4 4 0 4 12 8 0 26 38
Nghost:        3879.12 ave        5425 max         232 min
Histogram: 8 0 8 0 16 0 8 8 16 40
Neighs:        79213.3 ave      114484 max           0 min
Histogram: 8 4 4 0 8 8 8 8 20 36

Total # of neighbors = 8238183
Ave neighs/atom = 28.530405
Neighbor list builds = 0
Dangerous builds = 0
The dot product: 9.7329230063216e-08
The angle: 89.7533178412453
Setting atom values ...
  1 settings made for x
  1 settings made for y
  1 settings made for z
Setting up cg style minimization ...
  Unit style    : metal
  Current step  : 3526
Per MPI rank memory allocation (min/avg/max) = 5.441 | 5.816 | 6.074 Mbytes
Step PotEng KinEng TotEng v_fx v_fy v_fz 
    3526   -1152449.2            0   -1152449.2 -0.029886014 -0.019085973   0.03636966 
    3767   -1152449.2            0   -1152449.2 -3.6357369e-06 -4.1824719e-05 7.3774918e-05 
Loop time of 2.79478 on 104 procs for 241 steps with 288751 atoms

99.9% CPU use with 104 MPI tasks x 1 OpenMP threads

Minimization stats:
  Stopping criterion = energy tolerance
  Energy initial, next-to-last, final = 
     -1152449.20717143  -1152449.24890207  -1152449.24890207
  Force two-norm initial, final = 0.19937071 0.00028318521
  Force max component initial, final = 0.07857193 8.0103469e-05
  Final line search alpha, max atom move = 1.0000000 8.0103469e-05
  Iterations, force evaluations = 241 481

MPI task timing breakdown:
Section |  min time  |  avg time  |  max time  |%varavg| %total
---------------------------------------------------------------
Pair    | 0.74338    | 2.025      | 2.6239     |  38.2 | 72.46
Neigh   | 1.0116e-05 | 0.002949   | 0.0042396  |   2.2 |  0.11
Comm    | 0.046983   | 0.4552     | 1.3788     |  57.0 | 16.29
Output  | 0          | 0          | 0          |   0.0 |  0.00
Modify  | 2.7962e-05 | 0.0039696  | 0.0085135  |   3.0 |  0.14
Other   |            | 0.3076     |            |       | 11.01

Nlocal:        2776.45 ave        3930 max           0 min
Histogram: 8 4 4 0 4 12 8 0 26 38
Nghost:        3879.12 ave        5425 max         232 min
Histogram: 8 0 8 0 16 0 8 8 16 40
Neighs:        79213.3 ave      114484 max           0 min
Histogram: 8 4 4 0 8 8 8 8 20 36

Total # of neighbors = 8238188
Ave neighs/atom = 28.530422
Neighbor list builds = 1
Dangerous builds = 0
The dot product: 1.33874356944362e-05
The angle: 80.9257203150182
Setting atom values ...
  1 settings made for x
  1 settings made for y
  1 settings made for z
Setting up cg style minimization ...
  Unit style    : metal
  Current step  : 3767
Per MPI rank memory allocation (min/avg/max) = 5.441 | 5.816 | 6.074 Mbytes
Step PotEng KinEng TotEng v_fx v_fy v_fz 
    3767   -1152449.2            0   -1152449.2 -0.070433722  0.010899888 -0.0040324426 
    3968   -1152449.3            0   -1152449.3 -4.5244934e-06 -8.7401297e-06 2.471592e-05 
Loop time of 2.32559 on 104 procs for 201 steps with 288751 atoms

99.9% CPU use with 104 MPI tasks x 1 OpenMP threads

Minimization stats:
  Stopping criterion = energy tolerance
  Energy initial, next-to-last, final = 
     -1152449.24837667  -1152449.25291546  -1152449.25291546
  Force two-norm initial, final = 0.23375664 0.0001040002
  Force max component initial, final = 0.10296849 2.4715920e-05
  Final line search alpha, max atom move = 1.0000000 2.4715920e-05
  Iterations, force evaluations = 201 402

MPI task timing breakdown:
Section |  min time  |  avg time  |  max time  |%varavg| %total
---------------------------------------------------------------
Pair    | 0.62046    | 1.6898     | 2.1902     |  34.8 | 72.66
Neigh   | 0          | 0          | 0          |   0.0 |  0.00
Comm    | 0.039085   | 0.37773    | 1.1468     |  51.4 | 16.24
Output  | 0          | 0          | 0          |   0.0 |  0.00
Modify  | 2.3623e-05 | 0.0033103  | 0.0070645  |   2.7 |  0.14
Other   |            | 0.2547     |            |       | 10.95

Nlocal:        2776.45 ave        3957 max           0 min
Histogram: 8 4 4 0 4 12 8 2 28 34
Nghost:        3879.03 ave        5424 max         232 min
Histogram: 8 0 8 0 16 0 8 8 16 40
Neighs:        79213.3 ave      115347 max           0 min
Histogram: 8 4 4 0 10 6 8 8 24 32

Total # of neighbors = 8238187
Ave neighs/atom = 28.530419
Neighbor list builds = 0
Dangerous builds = 0
The dot product: 4.99620235387518e-07
The angle: 88.9239014638874
Setting atom values ...
  1 settings made for x
  1 settings made for y
  1 settings made for z
Setting up cg style minimization ...
  Unit style    : metal
  Current step  : 3968
Per MPI rank memory allocation (min/avg/max) = 5.441 | 5.816 | 6.074 Mbytes
Step PotEng KinEng TotEng v_fx v_fy v_fz 
    3968   -1152449.3            0   -1152449.3 -0.077452108  0.021974826  -0.02697778 
    4000   -1152449.3            0   -1152449.3 -0.0060160905 0.0044248243 -0.0096279837 
    4223   -1152449.3            0   -1152449.3 4.9863088e-06 3.3859035e-07 -3.1223316e-06 
Loop time of 2.94729 on 104 procs for 255 steps with 288751 atoms

99.9% CPU use with 104 MPI tasks x 1 OpenMP threads

Minimization stats:
  Stopping criterion = force tolerance
  Energy initial, next-to-last, final = 
     -1152449.25479647  -1152449.29456178  -1152449.29456178
  Force two-norm initial, final = 0.2311237 9.6503539e-05
  Force max component initial, final = 0.10324009 2.0775996e-05
  Final line search alpha, max atom move = 1.0000000 2.0775996e-05
  Iterations, force evaluations = 255 508

MPI task timing breakdown:
Section |  min time  |  avg time  |  max time  |%varavg| %total
---------------------------------------------------------------
Pair    | 0.78152    | 2.1291     | 2.7743     |  39.1 | 72.24
Neigh   | 1.0407e-05 | 0.0029258  | 0.0042522  |   2.2 |  0.10
Comm    | 0.051755   | 0.47879    | 1.4463     |  58.0 | 16.25
Output  | 0.00012056 | 0.0001234  | 0.00022346 |   0.0 |  0.00
Modify  | 2.9702e-05 | 0.0041926  | 0.00889    |   3.1 |  0.14
Other   |            | 0.3322     |            |       | 11.27

Nlocal:        2776.45 ave        3960 max           0 min
Histogram: 8 4 4 0 4 12 8 2 28 34
Nghost:        3879.03 ave        5425 max         232 min
Histogram: 8 0 8 0 16 0 8 8 16 40
Neighs:        79213.4 ave      115454 max           0 min
Histogram: 8 4 4 0 10 6 8 8 24 32

Total # of neighbors = 8238193
Ave neighs/atom = 28.530440
Neighbor list builds = 1
Dangerous builds = 0
The dot product: -1.02769200733532e-06
The angle: 100.0433618534
Setting atom values ...
  1 settings made for x
  1 settings made for y
  1 settings made for z
Setting up cg style minimization ...
  Unit style    : metal
  Current step  : 4223
Per MPI rank memory allocation (min/avg/max) = 5.441 | 5.816 | 6.074 Mbytes
Step PotEng KinEng TotEng v_fx v_fy v_fz 
    4223   -1152449.3            0   -1152449.3  0.052666023 0.0057778442 -0.076792676 
    4410   -1152449.3            0   -1152449.3 -8.5650679e-06 -5.4687163e-06 2.6375382e-05 
Loop time of 2.20256 on 104 procs for 187 steps with 288751 atoms

99.9% CPU use with 104 MPI tasks x 1 OpenMP threads

Minimization stats:
  Stopping criterion = energy tolerance
  Energy initial, next-to-last, final = 
     -1152449.31067316  -1152449.31439913  -1152449.31439913
  Force two-norm initial, final = 0.22583186 0.00021631148
  Force max component initial, final = 0.087485638 2.6375382e-05
  Final line search alpha, max atom move = 1.0000000 2.6375382e-05
  Iterations, force evaluations = 187 374

MPI task timing breakdown:
Section |  min time  |  avg time  |  max time  |%varavg| %total
---------------------------------------------------------------
Pair    | 0.57716    | 1.5772     | 2.064      |  33.7 | 71.61
Neigh   | 0          | 0          | 0          |   0.0 |  0.00
Comm    | 0.038032   | 0.3552     | 1.062      |  49.3 | 16.13
Output  | 0          | 0          | 0          |   0.0 |  0.00
Modify  | 2.2454e-05 | 0.0030876  | 0.0065714  |   2.6 |  0.14
Other   |            | 0.267      |            |       | 12.12

Nlocal:        2776.45 ave        3960 max           0 min
Histogram: 8 4 4 0 4 12 8 4 26 34
Nghost:        3879.03 ave        5424 max         232 min
Histogram: 8 0 8 0 16 0 8 8 16 40
Neighs:        79213.4 ave      115459 max           0 min
Histogram: 8 4 4 0 10 6 8 8 24 32

Total # of neighbors = 8238198
Ave neighs/atom = 28.530457
Neighbor list builds = 0
Dangerous builds = 0
The dot product: -4.71197858567544e-07
The angle: 90.9551954105498
Setting atom values ...
  1 settings made for x
  1 settings made for y
  1 settings made for z
Setting up cg style minimization ...
  Unit style    : metal
  Current step  : 4410
Per MPI rank memory allocation (min/avg/max) = 5.441 | 5.816 | 6.074 Mbytes
Step PotEng KinEng TotEng v_fx v_fy v_fz 
    4410   -1152449.3            0   -1152449.3 -0.091524524  0.044695739 -0.043113241 
    4610   -1152449.3            0   -1152449.3 5.1890015e-07 1.5420087e-06 -5.1230052e-06 
Loop time of 2.35484 on 104 procs for 200 steps with 288751 atoms

99.9% CPU use with 104 MPI tasks x 1 OpenMP threads

Minimization stats:
  Stopping criterion = force tolerance
  Energy initial, next-to-last, final = 
     -1152449.32619439  -1152449.32897949   -1152449.3289795
  Force two-norm initial, final = 0.24256522 9.8991755e-05
  Force max component initial, final = 0.091524524 7.9560395e-06
  Final line search alpha, max atom move = 1.0000000 7.9560395e-06
  Iterations, force evaluations = 200 400

MPI task timing breakdown:
Section |  min time  |  avg time  |  max time  |%varavg| %total
---------------------------------------------------------------
Pair    | 0.61553    | 1.6791     | 2.1841     |  34.7 | 71.30
Neigh   | 0          | 0          | 0          |   0.0 |  0.00
Comm    | 0.04374    | 0.3819     | 1.1354     |  51.1 | 16.22
Output  | 0          | 0          | 0          |   0.0 |  0.00
Modify  | 2.3931e-05 | 0.0033053  | 0.0070208  |   2.7 |  0.14
Other   |            | 0.2906     |            |       | 12.34

Nlocal:        2776.45 ave        3959 max           0 min
Histogram: 8 4 4 0 4 12 8 4 26 34
Nghost:        3879.07 ave        5424 max         232 min
Histogram: 8 0 8 0 16 0 8 8 16 40
Neighs:        79213.4 ave      115434 max           0 min
Histogram: 8 4 4 0 10 6 8 8 24 32

Total # of neighbors = 8238196
Ave neighs/atom = 28.530450
Neighbor list builds = 0
Dangerous builds = 0
The dot product: 1.34940664731683e-08
The angle: 89.8561614173316
Setting atom values ...
  1 settings made for x
  1 settings made for y
  1 settings made for z
Setting up cg style minimization ...
  Unit style    : metal
  Current step  : 4610
Per MPI rank memory allocation (min/avg/max) = 5.441 | 5.816 | 6.074 Mbytes
Step PotEng KinEng TotEng v_fx v_fy v_fz 
    4610   -1152449.3            0   -1152449.3 -0.074440162  0.041358061 -0.046622196 
    4780   -1152449.3            0   -1152449.3 -9.0107671e-07 5.4835969e-06 -1.5275997e-05 
Loop time of 1.9843 on 104 procs for 170 steps with 288751 atoms

99.9% CPU use with 104 MPI tasks x 1 OpenMP threads

Minimization stats:
  Stopping criterion = energy tolerance
  Energy initial, next-to-last, final = 
     -1152449.33719076  -1152449.33991919  -1152449.33991919
  Force two-norm initial, final = 0.2379545 0.00029806537
  Force max component initial, final = 0.084502951 1.5275997e-05
  Final line search alpha, max atom move = 1.0000000 1.5275997e-05
  Iterations, force evaluations = 170 340

MPI task timing breakdown:
Section |  min time  |  avg time  |  max time  |%varavg| %total
---------------------------------------------------------------
Pair    | 0.52264    | 1.4362     | 1.8705     |  32.2 | 72.38
Neigh   | 0          | 0          | 0          |   0.0 |  0.00
Comm    | 0.031616   | 0.32483    | 0.98809    |  47.5 | 16.37
Output  | 0          | 0          | 0          |   0.0 |  0.00
Modify  | 2.0055e-05 | 0.0028129  | 0.0059773  |   2.5 |  0.14
Other   |            | 0.2205     |            |       | 11.11

Nlocal:        2776.45 ave        3959 max           0 min
Histogram: 8 4 4 0 4 12 8 4 26 34
Nghost:        3879.03 ave        5424 max         232 min
Histogram: 8 0 8 0 16 0 8 8 16 40
Neighs:        79213.4 ave      115434 max           0 min
Histogram: 8 4 4 0 10 6 8 8 24 32

Total # of neighbors = 8238197
Ave neighs/atom = 28.530454
Neighbor list builds = 0
Dangerous builds = 0
The dot product: 6.8587021172189e-08
The angle: 89.7582489706876
Setting atom values ...
  1 settings made for x
  1 settings made for y
  1 settings made for z
Setting up cg style minimization ...
  Unit style    : metal
  Current step  : 4780
Per MPI rank memory allocation (min/avg/max) = 5.441 | 5.816 | 6.074 Mbytes
Step PotEng KinEng TotEng v_fx v_fy v_fz 
    4780   -1152449.3            0   -1152449.3 -0.077850831  0.042334018 -0.043995252 
    4962   -1152449.3            0   -1152449.3 -1.8409296e-05 1.9143693e-05 -3.7004209e-05 
Loop time of 2.1177 on 104 procs for 182 steps with 288751 atoms

99.9% CPU use with 104 MPI tasks x 1 OpenMP threads

Minimization stats:
  Stopping criterion = energy tolerance
  Energy initial, next-to-last, final = 
       -1152449.344483  -1152449.34725546  -1152449.34725546
  Force two-norm initial, final = 0.23908027 0.000184355
  Force max component initial, final = 0.088135161 4.6397838e-05
  Final line search alpha, max atom move = 1.0000000 4.6397838e-05
  Iterations, force evaluations = 182 364

MPI task timing breakdown:
Section |  min time  |  avg time  |  max time  |%varavg| %total
---------------------------------------------------------------
Pair    | 0.55937    | 1.5269     | 1.9949     |  33.2 | 72.10
Neigh   | 0          | 0          | 0          |   0.0 |  0.00
Comm    | 0.033487   | 0.34491    | 1.0343     |  48.9 | 16.29
Output  | 0          | 0          | 0          |   0.0 |  0.00
Modify  | 2.1395e-05 | 0.0030046  | 0.0063966  |   2.6 |  0.14
Other   |            | 0.2428     |            |       | 11.47

Nlocal:        2776.45 ave        3959 max           0 min
Histogram: 8 4 4 0 4 12 8 2 28 34
Nghost:        3879.03 ave        5424 max         232 min
Histogram: 8 0 8 0 16 0 8 8 16 40
Neighs:        79213.4 ave      115433 max           0 min
Histogram: 8 4 4 0 10 6 8 8 24 32

Total # of neighbors = 8238193
Ave neighs/atom = 28.530440
Neighbor list builds = 0
Dangerous builds = 0
The dot product: 2.71636143681446e-07
The angle: 89.6583073200021
Setting atom values ...
  1 settings made for x
  1 settings made for y
  1 settings made for z
Setting up cg style minimization ...
  Unit style    : metal
  Current step  : 4962
Per MPI rank memory allocation (min/avg/max) = 5.441 | 5.816 | 6.074 Mbytes
Step PotEng KinEng TotEng v_fx v_fy v_fz 
    4962   -1152449.3            0   -1152449.3 -0.077007777  0.041502822 -0.040286214 
    5000   -1152449.4            0   -1152449.4 -7.407395e-05 0.00012959832 -0.00029645195 
    5168   -1152449.4            0   -1152449.4 9.4811559e-06 1.5499774e-06 -1.4177956e-05 
Loop time of 2.39316 on 104 procs for 206 steps with 288751 atoms

99.9% CPU use with 104 MPI tasks x 1 OpenMP threads

Minimization stats:
  Stopping criterion = force tolerance
  Energy initial, next-to-last, final = 
     -1152449.34824224  -1152449.35101168  -1152449.35101167
  Force two-norm initial, final = 0.23753034 9.9165051e-05
  Force max component initial, final = 0.091548896 2.0127979e-05
  Final line search alpha, max atom move = 1.0000000 2.0127979e-05
  Iterations, force evaluations = 206 412

MPI task timing breakdown:
Section |  min time  |  avg time  |  max time  |%varavg| %total
---------------------------------------------------------------
Pair    | 0.63083    | 1.7344     | 2.2527     |  35.4 | 72.47
Neigh   | 0          | 0          | 0          |   0.0 |  0.00
Comm    | 0.040732   | 0.39106    | 1.195      |  52.5 | 16.34
Output  | 9.376e-05  | 9.7994e-05 | 0.0001848  |   0.0 |  0.00
Modify  | 2.4325e-05 | 0.0034087  | 0.0072698  |   2.8 |  0.14
Other   |            | 0.2642     |            |       | 11.04

Nlocal:        2776.45 ave        3959 max           0 min
Histogram: 8 4 4 0 4 12 8 2 28 34
Nghost:        3879.03 ave        5424 max         232 min
Histogram: 8 0 8 0 16 0 8 8 16 40
Neighs:        79213.3 ave      115430 max           0 min
Histogram: 8 4 4 0 10 6 8 8 24 32

Total # of neighbors = 8238188
Ave neighs/atom = 28.530422
Neighbor list builds = 0
Dangerous builds = 0
The dot product: -2.255048413582e-09
The angle: 90.0075442431394
Setting atom values ...
  1 settings made for x
  1 settings made for y
  1 settings made for z
Setting up cg style minimization ...
  Unit style    : metal
  Current step  : 5168
Per MPI rank memory allocation (min/avg/max) = 5.441 | 5.816 | 6.074 Mbytes
Step PotEng KinEng TotEng v_fx v_fy v_fz 
    5168   -1152449.3            0   -1152449.3  -0.07594706  0.040576314 -0.036739951 
    5351   -1152449.4            0   -1152449.4 -1.076732e-05 -5.7151908e-06 2.7331746e-05 
Loop time of 2.14076 on 104 procs for 183 steps with 288751 atoms

99.9% CPU use with 104 MPI tasks x 1 OpenMP threads

Minimization stats:
  Stopping criterion = energy tolerance
  Energy initial, next-to-last, final = 
     -1152449.34850356  -1152449.35125545  -1152449.35125545
  Force two-norm initial, final = 0.23564247 0.0001722059
  Force max component initial, final = 0.094750953 3.3598638e-05
  Final line search alpha, max atom move = 1.0000000 3.3598638e-05
  Iterations, force evaluations = 183 366

MPI task timing breakdown:
Section |  min time  |  avg time  |  max time  |%varavg| %total
---------------------------------------------------------------
Pair    | 0.56296    | 1.541      | 2.0119     |  33.4 | 71.99
Neigh   | 0          | 0          | 0          |   0.0 |  0.00
Comm    | 0.037811   | 0.34737    | 1.0509     |  49.4 | 16.23
Output  | 0          | 0          | 0          |   0.0 |  0.00
Modify  | 2.154e-05  | 0.0030231  | 0.0064288  |   2.6 |  0.14
Other   |            | 0.2493     |            |       | 11.65

Nlocal:        2776.45 ave        3959 max           0 min
Histogram: 8 4 4 0 4 12 8 2 28 34
Nghost:        3879.03 ave        5424 max         232 min
Histogram: 8 0 8 0 16 0 8 8 16 40
Neighs:        79213.4 ave      115432 max           0 min
Histogram: 8 4 4 0 10 6 8 8 24 32

Total # of neighbors = 8238193
Ave neighs/atom = 28.530440
Neighbor list builds = 0
Dangerous builds = 0
The dot product: -3.78745320533466e-08
The angle: 90.0725115888705
Setting atom values ...
  1 settings made for x
  1 settings made for y
  1 settings made for z
Setting up cg style minimization ...
  Unit style    : metal
  Current step  : 5351
Per MPI rank memory allocation (min/avg/max) = 5.441 | 5.816 | 6.074 Mbytes
Step PotEng KinEng TotEng v_fx v_fy v_fz 
    5351   -1152449.3            0   -1152449.3 -0.076818166  0.041255342 -0.035869902 
    5536   -1152449.3            0   -1152449.3 -6.8044622e-06 -5.230418e-06 2.1735763e-05 
Loop time of 2.16234 on 104 procs for 185 steps with 288751 atoms

99.9% CPU use with 104 MPI tasks x 1 OpenMP threads

Minimization stats:
  Stopping criterion = energy tolerance
  Energy initial, next-to-last, final = 
     -1152449.34543476  -1152449.34818723  -1152449.34818723
  Force two-norm initial, final = 0.23501481 0.00013873424
  Force max component initial, final = 0.097836957 2.1735763e-05
  Final line search alpha, max atom move = 1.0000000 2.1735763e-05
  Iterations, force evaluations = 185 370

MPI task timing breakdown:
Section |  min time  |  avg time  |  max time  |%varavg| %total
---------------------------------------------------------------
Pair    | 0.56557    | 1.5584     | 2.035      |  33.6 | 72.07
Neigh   | 0          | 0          | 0          |   0.0 |  0.00
Comm    | 0.038143   | 0.35285    | 1.0561     |  49.0 | 16.32
Output  | 0          | 0          | 0          |   0.0 |  0.00
Modify  | 2.1492e-05 | 0.0030566  | 0.0064938  |   2.6 |  0.14
Other   |            | 0.2481     |            |       | 11.47

Nlocal:        2776.45 ave        3956 max           0 min
Histogram: 8 4 4 0 4 12 8 0 30 34
Nghost:        3879.03 ave        5424 max         232 min
Histogram: 8 0 8 0 16 0 8 8 16 40
Neighs:        79213.4 ave      115321 max           0 min
Histogram: 8 4 4 0 10 6 8 8 24 32

Total # of neighbors = 8238193
Ave neighs/atom = 28.530440
Neighbor list builds = 0
Dangerous builds = 0
The dot product: -4.52469751113271e-08
The angle: 90.1109368473995
Setting atom values ...
  1 settings made for x
  1 settings made for y
  1 settings made for z
Setting up cg style minimization ...
  Unit style    : metal
  Current step  : 5536
Per MPI rank memory allocation (min/avg/max) = 5.441 | 5.816 | 6.074 Mbytes
Step PotEng KinEng TotEng v_fx v_fy v_fz 
    5536   -1152449.3            0   -1152449.3 -0.082575225  0.046129048  -0.04130157 
    5717   -1152449.3            0   -1152449.3 -7.7647702e-06 -1.6941223e-06 1.281112e-05 
Loop time of 2.13277 on 104 procs for 181 steps with 288751 atoms

99.9% CPU use with 104 MPI tasks x 1 OpenMP threads

Minimization stats:
  Stopping criterion = force tolerance
  Energy initial, next-to-last, final = 
     -1152449.33953211  -1152449.34252647  -1152449.34252646
  Force two-norm initial, final = 0.23857471 9.8794152e-05
  Force max component initial, final = 0.10069658 1.8587957e-05
  Final line search alpha, max atom move = 1.0000000 1.8587957e-05
  Iterations, force evaluations = 181 362

MPI task timing breakdown:
Section |  min time  |  avg time  |  max time  |%varavg| %total
---------------------------------------------------------------
Pair    | 0.57096    | 1.5293     | 1.9832     |  32.7 | 71.71
Neigh   | 0          | 0          | 0          |   0.0 |  0.00
Comm    | 0.0352     | 0.34742    | 1.0345     |  49.0 | 16.29
Output  | 0          | 0          | 0          |   0.0 |  0.00
Modify  | 2.144e-05  | 0.002986   | 0.0063564  |   2.6 |  0.14
Other   |            | 0.253      |            |       | 11.86

Nlocal:        2776.45 ave        3955 max           0 min
Histogram: 8 4 4 0 4 12 8 0 30 34
Nghost:        3879.03 ave        5426 max         232 min
Histogram: 8 0 8 0 16 0 8 8 16 40
Neighs:        79213.4 ave      115279 max           0 min
Histogram: 8 4 4 0 10 6 8 8 24 32

Total # of neighbors = 8238194
Ave neighs/atom = 28.530443
Neighbor list builds = 0
Dangerous builds = 0
The dot product: -1.66345430252082e-08
The angle: 90.0632188769255
Setting atom values ...
  1 settings made for x
  1 settings made for y
  1 settings made for z
Setting up cg style minimization ...
  Unit style    : metal
  Current step  : 5717
Per MPI rank memory allocation (min/avg/max) = 5.441 | 5.816 | 6.074 Mbytes
Step PotEng KinEng TotEng v_fx v_fy v_fz 
    5717   -1152449.3            0   -1152449.3  -0.10111245  0.062796274  -0.06249028 
    5961   -1152449.4            0   -1152449.4 -2.5917198e-06 -1.6323351e-05 4.6719736e-05 
Loop time of 2.84708 on 104 procs for 244 steps with 288751 atoms

99.9% CPU use with 104 MPI tasks x 1 OpenMP threads

Minimization stats:
  Stopping criterion = energy tolerance
  Energy initial, next-to-last, final = 
     -1152449.33307633  -1152449.37462079  -1152449.37462079
  Force two-norm initial, final = 0.26273873 0.00012499816
  Force max component initial, final = 0.10345522 4.6719736e-05
  Final line search alpha, max atom move = 1.0000000 4.6719736e-05
  Iterations, force evaluations = 244 488

MPI task timing breakdown:
Section |  min time  |  avg time  |  max time  |%varavg| %total
---------------------------------------------------------------
Pair    | 0.7522     | 2.0563     | 2.6735     |  38.3 | 72.23
Neigh   | 1.0194e-05 | 0.0029558  | 0.0043063  |   2.2 |  0.10
Comm    | 0.055704   | 0.46142    | 1.4        |  56.9 | 16.21
Output  | 0          | 0          | 0          |   0.0 |  0.00
Modify  | 2.8858e-05 | 0.0040264  | 0.0086181  |   3.0 |  0.14
Other   |            | 0.3223     |            |       | 11.32

Nlocal:        2776.45 ave        3955 max           0 min
Histogram: 8 4 4 0 4 12 8 0 30 34
Nghost:        3879.03 ave        5425 max         232 min
Histogram: 8 0 8 0 16 0 8 8 16 40
Neighs:        79213.4 ave      115288 max           0 min
Histogram: 8 4 4 0 10 6 8 8 24 32

Total # of neighbors = 8238194
Ave neighs/atom = 28.530443
Neighbor list builds = 1
Dangerous builds = 0
The dot product: -4.03521305856332e-06
The angle: 94.6705132832913
Setting atom values ...
  1 settings made for x
  1 settings made for y
  1 settings made for z
Setting up cg style minimization ...
  Unit style    : metal
  Current step  : 5961
Per MPI rank memory allocation (min/avg/max) = 5.441 | 5.816 | 6.074 Mbytes
Step PotEng KinEng TotEng v_fx v_fy v_fz 
    5961   -1152449.4            0   -1152449.4 -0.017263493 -0.0031703842  0.026079631 
    6000   -1152449.4            0   -1152449.4 -0.00033654192 0.0001024953 0.00017125708 
    6145   -1152449.4            0   -1152449.4 -1.657484e-05 1.4679461e-05 -1.132978e-05 
Loop time of 2.13986 on 104 procs for 184 steps with 288751 atoms

99.9% CPU use with 104 MPI tasks x 1 OpenMP threads

Minimization stats:
  Stopping criterion = energy tolerance
  Energy initial, next-to-last, final = 
     -1152449.38722621   -1152449.3903075   -1152449.3903075
  Force two-norm initial, final = 0.22849355 0.00010253373
  Force max component initial, final = 0.098363806 2.3792165e-05
  Final line search alpha, max atom move = 1.0000000 2.3792165e-05
  Iterations, force evaluations = 184 368

MPI task timing breakdown:
Section |  min time  |  avg time  |  max time  |%varavg| %total
---------------------------------------------------------------
Pair    | 0.56053    | 1.5406     | 2.0098     |  33.4 | 71.99
Neigh   | 0          | 0          | 0          |   0.0 |  0.00
Comm    | 0.035383   | 0.34639    | 1.0361     |  49.1 | 16.19
Output  | 9.3768e-05 | 0.0001019  | 0.00019299 |   0.0 |  0.00
Modify  | 2.2026e-05 | 0.0030414  | 0.0064586  |   2.6 |  0.14
Other   |            | 0.2498     |            |       | 11.67

Nlocal:        2776.45 ave        3960 max           0 min
Histogram: 8 4 4 0 4 12 8 4 26 34
Nghost:        3879.07 ave        5424 max         232 min
Histogram: 8 0 8 0 16 0 8 8 16 40
Neighs:        79213.5 ave      115455 max           0 min
Histogram: 8 4 4 0 10 6 8 8 24 32

Total # of neighbors = 8238205
Ave neighs/atom = 28.530481
Neighbor list builds = 0
Dangerous builds = 0
The dot product: -1.34244826680461e-07
The angle: 90.3092614815002
Setting atom values ...
  1 settings made for x
  1 settings made for y
  1 settings made for z
Setting up cg style minimization ...
  Unit style    : metal
  Current step  : 6145
Per MPI rank memory allocation (min/avg/max) = 5.441 | 5.816 | 6.074 Mbytes
Step PotEng KinEng TotEng v_fx v_fy v_fz 
    6145   -1152449.4            0   -1152449.4 -0.072439556  0.044337942 -0.0099386053 
    6260   -1152449.4            0   -1152449.4 -2.5756731e-05 5.8636235e-05 -9.2405696e-05 
Loop time of 1.35121 on 104 procs for 115 steps with 288751 atoms

99.9% CPU use with 104 MPI tasks x 1 OpenMP threads

Minimization stats:
  Stopping criterion = energy tolerance
  Energy initial, next-to-last, final = 
     -1152449.40196496   -1152449.4063363   -1152449.4063363
  Force two-norm initial, final = 0.24685379 0.00030871682
  Force max component initial, final = 0.10061029 9.2405696e-05
  Final line search alpha, max atom move = 1.0000000 9.2405696e-05
  Iterations, force evaluations = 115 230

MPI task timing breakdown:
Section |  min time  |  avg time  |  max time  |%varavg| %total
---------------------------------------------------------------
Pair    | 0.35524    | 0.97199    | 1.2736     |  26.4 | 71.93
Neigh   | 0          | 0          | 0          |   0.0 |  0.00
Comm    | 0.022223   | 0.21909    | 0.6593     |  39.0 | 16.21
Output  | 0          | 0          | 0          |   0.0 |  0.00
Modify  | 1.413e-05  | 0.0019074  | 0.0041067  |   2.1 |  0.14
Other   |            | 0.1582     |            |       | 11.71

Nlocal:        2776.45 ave        3959 max           0 min
Histogram: 8 4 4 0 4 12 8 4 26 34
Nghost:        3879.07 ave        5424 max         232 min
Histogram: 8 0 8 0 16 0 8 8 16 40
Neighs:        79213.5 ave      115429 max           0 min
Histogram: 8 4 4 0 10 6 8 8 24 32

Total # of neighbors = 8238206
Ave neighs/atom = 28.530485
Neighbor list builds = 0
Dangerous builds = 0
The dot product: 2.00473824346539e-06
The angle: 88.9783023322493
Setting atom values ...
  1 settings made for x
  1 settings made for y
  1 settings made for z
Setting up cg style minimization ...
  Unit style    : metal
  Current step  : 6260
Per MPI rank memory allocation (min/avg/max) = 5.441 | 5.816 | 6.074 Mbytes
Step PotEng KinEng TotEng v_fx v_fy v_fz 
    6260   -1152449.4            0   -1152449.4 -0.042403978  0.015215621  0.018633134 
    6435   -1152449.4            0   -1152449.4 -1.1302717e-05 1.2457538e-05 -1.1818743e-05 
Loop time of 2.03743 on 104 procs for 175 steps with 288751 atoms

99.9% CPU use with 104 MPI tasks x 1 OpenMP threads

Minimization stats:
  Stopping criterion = energy tolerance
  Energy initial, next-to-last, final = 
     -1152449.41901561  -1152449.42165191  -1152449.42165191
  Force two-norm initial, final = 0.23216296 0.00013942737
  Force max component initial, final = 0.098658413 2.2752257e-05
  Final line search alpha, max atom move = 1.0000000 2.2752257e-05
  Iterations, force evaluations = 175 350

MPI task timing breakdown:
Section |  min time  |  avg time  |  max time  |%varavg| %total
---------------------------------------------------------------
Pair    | 0.53772    | 1.4681     | 1.9191     |  32.5 | 72.06
Neigh   | 0          | 0          | 0          |   0.0 |  0.00
Comm    | 0.034804   | 0.33147    | 0.99615    |  48.2 | 16.27
Output  | 0          | 0          | 0          |   0.0 |  0.00
Modify  | 2.0685e-05 | 0.0028903  | 0.0061493  |   2.5 |  0.14
Other   |            | 0.235      |            |       | 11.53

Nlocal:        2776.45 ave        3959 max           0 min
Histogram: 8 4 4 0 4 12 8 4 26 34
Nghost:        3879.09 ave        5424 max         232 min
Histogram: 8 0 8 0 16 0 8 8 16 40
Neighs:        79213.5 ave      115427 max           0 min
Histogram: 8 4 4 0 10 6 8 8 24 32

Total # of neighbors = 8238204
Ave neighs/atom = 28.530478
Neighbor list builds = 0
Dangerous builds = 0
The dot product: 1.20826992117416e-08
The angle: 89.9663248641541
Setting atom values ...
  1 settings made for x
  1 settings made for y
  1 settings made for z
Setting up cg style minimization ...
  Unit style    : metal
  Current step  : 6435
Per MPI rank memory allocation (min/avg/max) = 5.441 | 5.816 | 6.074 Mbytes
Step PotEng KinEng TotEng v_fx v_fy v_fz 
    6435   -1152449.4            0   -1152449.4 -0.036955617 0.0044191548  0.034130362 
    6625   -1152449.4            0   -1152449.4 -8.0715262e-06 -1.0598383e-05 3.0597213e-05 
Loop time of 2.22916 on 104 procs for 190 steps with 288751 atoms

99.9% CPU use with 104 MPI tasks x 1 OpenMP threads

Minimization stats:
  Stopping criterion = energy tolerance
  Energy initial, next-to-last, final = 
     -1152449.43125659  -1152449.43399791  -1152449.43399791
  Force two-norm initial, final = 0.23610678 0.00013074809
  Force max component initial, final = 0.099478862 3.0597213e-05
  Final line search alpha, max atom move = 1.0000000 3.0597213e-05
  Iterations, force evaluations = 190 380

MPI task timing breakdown:
Section |  min time  |  avg time  |  max time  |%varavg| %total
---------------------------------------------------------------
Pair    | 0.58288    | 1.6058     | 2.0931     |  33.8 | 72.04
Neigh   | 0          | 0          | 0          |   0.0 |  0.00
Comm    | 0.036762   | 0.36334    | 1.0996     |  50.5 | 16.30
Output  | 0          | 0          | 0          |   0.0 |  0.00
Modify  | 2.2496e-05 | 0.0031392  | 0.0066905  |   2.6 |  0.14
Other   |            | 0.2569     |            |       | 11.52

Nlocal:        2776.45 ave        3959 max           0 min
Histogram: 8 4 4 0 4 12 8 4 26 34
Nghost:        3879.07 ave        5424 max         232 min
Histogram: 8 0 8 0 16 0 8 8 16 40
Neighs:        79213.5 ave      115428 max           0 min
Histogram: 8 4 4 0 10 6 8 8 24 32

Total # of neighbors = 8238205
Ave neighs/atom = 28.530481
Neighbor list builds = 0
Dangerous builds = 0
The dot product: 6.89418991491201e-08
The angle: 89.881633459475
Setting atom values ...
  1 settings made for x
  1 settings made for y
  1 settings made for z
Setting up cg style minimization ...
  Unit style    : metal
  Current step  : 6625
Per MPI rank memory allocation (min/avg/max) = 5.441 | 5.816 | 6.074 Mbytes
Step PotEng KinEng TotEng v_fx v_fy v_fz 
    6625   -1152449.4            0   -1152449.4 -0.029861603 -0.0040757912   0.04316112 
    6809   -1152449.4            0   -1152449.4 1.7399467e-05 -1.1260588e-05 2.283119e-06 
Loop time of 2.14022 on 104 procs for 184 steps with 288751 atoms

99.9% CPU use with 104 MPI tasks x 1 OpenMP threads

Minimization stats:
  Stopping criterion = energy tolerance
  Energy initial, next-to-last, final = 
     -1152449.44004565  -1152449.44293913  -1152449.44293913
  Force two-norm initial, final = 0.24192917 0.00015998847
  Force max component initial, final = 0.10223839 1.7399467e-05
  Final line search alpha, max atom move = 1.0000000 1.7399467e-05
  Iterations, force evaluations = 184 368

MPI task timing breakdown:
Section |  min time  |  avg time  |  max time  |%varavg| %total
---------------------------------------------------------------
Pair    | 0.56274    | 1.5453     | 2.0142     |  33.5 | 72.20
Neigh   | 0          | 0          | 0          |   0.0 |  0.00
Comm    | 0.03421    | 0.34698    | 1.0426     |  49.5 | 16.21
Output  | 0          | 0          | 0          |   0.0 |  0.00
Modify  | 2.1796e-05 | 0.0030415  | 0.0065146  |   2.6 |  0.14
Other   |            | 0.2449     |            |       | 11.44

Nlocal:        2776.45 ave        3959 max           0 min
Histogram: 8 4 4 0 4 12 8 4 26 34
Nghost:        3879.03 ave        5424 max         232 min
Histogram: 8 0 8 0 16 0 8 8 16 40
Neighs:        79213.5 ave      115429 max           0 min
Histogram: 8 4 4 0 10 6 8 8 24 32

Total # of neighbors = 8238207
Ave neighs/atom = 28.530488
Neighbor list builds = 0
Dangerous builds = 0
The dot product: 1.6037898438495e-08
The angle: 89.9559295109861
Setting atom values ...
  1 settings made for x
  1 settings made for y
  1 settings made for z
Setting up cg style minimization ...
  Unit style    : metal
  Current step  : 6809
Per MPI rank memory allocation (min/avg/max) = 5.441 | 5.816 | 6.074 Mbytes
Step PotEng KinEng TotEng v_fx v_fy v_fz 
    6809   -1152449.4            0   -1152449.4 -0.025485588 -0.009340895  0.048965888 
    7000   -1152449.4            0   -1152449.4 4.5099946e-06 -8.8442036e-07 -3.5214985e-06 
    7011   -1152449.4            0   -1152449.4 1.4430264e-05 -2.5972925e-05 3.5646401e-05 
Loop time of 2.38056 on 104 procs for 202 steps with 288751 atoms

99.9% CPU use with 104 MPI tasks x 1 OpenMP threads

Minimization stats:
  Stopping criterion = energy tolerance
  Energy initial, next-to-last, final = 
     -1152449.44536309  -1152449.44837656  -1152449.44837656
  Force two-norm initial, final = 0.24714707 0.000121418
  Force max component initial, final = 0.10616223 3.5646401e-05
  Final line search alpha, max atom move = 1.0000000 3.5646401e-05
  Iterations, force evaluations = 202 404

MPI task timing breakdown:
Section |  min time  |  avg time  |  max time  |%varavg| %total
---------------------------------------------------------------
Pair    | 0.61877    | 1.7058     | 2.219      |  35.2 | 71.65
Neigh   | 0          | 0          | 0          |   0.0 |  0.00
Comm    | 0.043783   | 0.38832    | 1.1845     |  51.1 | 16.31
Output  | 0.00011199 | 0.00011547 | 0.00025287 |   0.0 |  0.00
Modify  | 2.3842e-05 | 0.0033443  | 0.0071355  |   2.7 |  0.14
Other   |            | 0.283      |            |       | 11.89

Nlocal:        2776.45 ave        3958 max           0 min
Histogram: 8 4 4 0 4 12 8 2 28 34
Nghost:        3879.03 ave        5424 max         232 min
Histogram: 8 0 8 0 16 0 8 8 16 40
Neighs:        79213.5 ave      115393 max           0 min
Histogram: 8 4 4 0 10 6 8 8 24 32

Total # of neighbors = 8238206
Ave neighs/atom = 28.530485
Neighbor list builds = 0
Dangerous builds = 0
The dot product: 1.46353118472376e-07
The angle: 89.8193018219002
Setting atom values ...
  1 settings made for x
  1 settings made for y
  1 settings made for z
Setting up cg style minimization ...
  Unit style    : metal
  Current step  : 7011
Per MPI rank memory allocation (min/avg/max) = 5.441 | 5.816 | 6.074 Mbytes
Step PotEng KinEng TotEng v_fx v_fy v_fz 
    7011   -1152449.4            0   -1152449.4 -0.023373682 -0.011531476  0.051308259 
    7187   -1152449.5            0   -1152449.5 5.1913406e-06 -1.3235034e-05 2.0919501e-05 
Loop time of 2.05529 on 104 procs for 176 steps with 288751 atoms

99.9% CPU use with 104 MPI tasks x 1 OpenMP threads

Minimization stats:
  Stopping criterion = energy tolerance
  Energy initial, next-to-last, final = 
     -1152449.44726532  -1152449.45034484  -1152449.45034484
  Force two-norm initial, final = 0.25016741 0.00024207452
  Force max component initial, final = 0.10997704 2.1376361e-05
  Final line search alpha, max atom move = 1.0000000 2.1376361e-05
  Iterations, force evaluations = 176 352

MPI task timing breakdown:
Section |  min time  |  avg time  |  max time  |%varavg| %total
---------------------------------------------------------------
Pair    | 0.54003    | 1.4802     | 1.9363     |  32.7 | 72.02
Neigh   | 0          | 0          | 0          |   0.0 |  0.00
Comm    | 0.033004   | 0.33355    | 0.99738    |  48.2 | 16.23
Output  | 0          | 0          | 0          |   0.0 |  0.00
Modify  | 2.1125e-05 | 0.0029096  | 0.0061918  |   2.5 |  0.14
Other   |            | 0.2386     |            |       | 11.61

Nlocal:        2776.45 ave        3958 max           0 min
Histogram: 8 4 4 0 4 12 8 2 28 34
Nghost:        3879.03 ave        5424 max         232 min
Histogram: 8 0 8 0 16 0 8 8 16 40
Neighs:        79213.4 ave      115390 max           0 min
Histogram: 8 4 4 0 10 6 8 8 24 32

Total # of neighbors = 8238198
Ave neighs/atom = 28.530457
Neighbor list builds = 0
Dangerous builds = 0
The dot product: 9.25823495253188e-08
The angle: 89.7902753489725
Setting atom values ...
  1 settings made for x
  1 settings made for y
  1 settings made for z
Setting up cg style minimization ...
  Unit style    : metal
  Current step  : 7187
Per MPI rank memory allocation (min/avg/max) = 5.441 | 5.816 | 6.074 Mbytes
Step PotEng KinEng TotEng v_fx v_fy v_fz 
    7187   -1152449.4            0   -1152449.4 -0.031209973 -0.0011610433  0.039649241 
    7394   -1152449.4            0   -1152449.4 -5.8649898e-06 4.2379474e-06 -1.7593163e-06 
Loop time of 2.42276 on 104 procs for 207 steps with 288751 atoms

99.9% CPU use with 104 MPI tasks x 1 OpenMP threads

Minimization stats:
  Stopping criterion = force tolerance
  Energy initial, next-to-last, final = 
     -1152449.44562654  -1152449.44866467  -1152449.44866467
  Force two-norm initial, final = 0.24814257 9.4631580e-05
  Force max component initial, final = 0.11372257 5.8649898e-06
  Final line search alpha, max atom move = 1.0000000 5.8649898e-06
  Iterations, force evaluations = 207 414

MPI task timing breakdown:
Section |  min time  |  avg time  |  max time  |%varavg| %total
---------------------------------------------------------------
Pair    | 0.63528    | 1.7468     | 2.2859     |  35.5 | 72.10
Neigh   | 0          | 0          | 0          |   0.0 |  0.00
Comm    | 0.041522   | 0.39514    | 1.1875     |  51.9 | 16.31
Output  | 0          | 0          | 0          |   0.0 |  0.00
Modify  | 2.4487e-05 | 0.0034144  | 0.0072714  |   2.8 |  0.14
[...]
Neighbor list builds = 1
Dangerous builds = 0
The dot product: -2.77039563631893e-06
The angle: 94.5996511048034
Setting atom values ...
  1 settings made for x
  1 settings made for y
  1 settings made for z
Setting up cg style minimization ...
  Unit style    : metal
  Current step  : 5890
Per MPI rank memory allocation (min/avg/max) = 5.441 | 5.816 | 6.074 Mbytes
Step PotEng KinEng TotEng v_fx v_fy v_fz 
    5890   -1152448.6            0   -1152448.6  0.038490186  0.043286943 -0.082552061 
    6000   -1152448.6            0   -1152448.6 0.0001642296 -3.2152306e-07 -0.00025916899 
    6109   -1152448.6            0   -1152448.6 -1.94761e-05 -6.795061e-07 3.1095997e-05 
Loop time of 2.53991 on 104 procs for 219 steps with 288751 atoms

99.9% CPU use with 104 MPI tasks x 1 OpenMP threads

Minimization stats:
  Stopping criterion = energy tolerance
  Energy initial, next-to-last, final = 
     -1152448.55010693  -1152448.55498105  -1152448.55498105
  Force two-norm initial, final = 0.22202466 0.00016725112
  Force max component initial, final = 0.14249028 3.1095997e-05
  Final line search alpha, max atom move = 1.0000000 3.1095997e-05
  Iterations, force evaluations = 219 438

MPI task timing breakdown:
Section |  min time  |  avg time  |  max time  |%varavg| %total
---------------------------------------------------------------
Pair    | 0.6691     | 1.84       | 2.3972     |  36.5 | 72.44
Neigh   | 0          | 0          | 0          |   0.0 |  0.00
Comm    | 0.042383   | 0.41698    | 1.2673     |  53.8 | 16.42
Output  | 0.00010218 | 0.00011411 | 0.00027368 |   0.0 |  0.00
Modify  | 2.902e-05  | 0.0036174  | 0.0077128  |   2.8 |  0.14
Other   |            | 0.2792     |            |       | 10.99

Nlocal:        2776.45 ave        3953 max           0 min
Histogram: 8 4 4 0 4 12 8 0 30 34
Nghost:        3879.13 ave        5425 max         232 min
Histogram: 8 0 8 0 16 0 8 8 16 40
Neighs:        79213.5 ave      115248 max           0 min
Histogram: 8 4 4 0 10 6 8 8 24 32

Total # of neighbors = 8238204
Ave neighs/atom = 28.530478
Neighbor list builds = 0
Dangerous builds = 0
The dot product: 7.17113745665881e-07
The angle: 88.8803140161264
Setting atom values ...
  1 settings made for x
  1 settings made for y
  1 settings made for z
Setting up cg style minimization ...
  Unit style    : metal
  Current step  : 6109
Per MPI rank memory allocation (min/avg/max) = 5.441 | 5.816 | 6.074 Mbytes
Step PotEng KinEng TotEng v_fx v_fy v_fz 
    6109   -1152448.6            0   -1152448.6  0.051959073  0.032461539 -0.093744478 
    6318   -1152448.6            0   -1152448.6 -1.9655923e-05 -9.4183854e-07 3.0148396e-05 
Loop time of 2.4602 on 104 procs for 209 steps with 288751 atoms

99.9% CPU use with 104 MPI tasks x 1 OpenMP threads

Minimization stats:
  Stopping criterion = energy tolerance
  Energy initial, next-to-last, final = 
     -1152448.55239013  -1152448.55519569  -1152448.55519569
  Force two-norm initial, final = 0.21853072 0.00019315084
  Force max component initial, final = 0.1370075 3.0148396e-05
  Final line search alpha, max atom move = 1.0000000 3.0148396e-05
  Iterations, force evaluations = 209 418

MPI task timing breakdown:
Section |  min time  |  avg time  |  max time  |%varavg| %total
---------------------------------------------------------------
Pair    | 0.64682    | 1.7579     | 2.3142     |  35.5 | 71.45
Neigh   | 0          | 0          | 0          |   0.0 |  0.00
Comm    | 0.039238   | 0.40092    | 1.1889     |  52.0 | 16.30
Output  | 0          | 0          | 0          |   0.0 |  0.00
Modify  | 2.7925e-05 | 0.0034527  | 0.0073573  |   2.8 |  0.14
Other   |            | 0.2979     |            |       | 12.11

Nlocal:        2776.45 ave        3950 max           0 min
Histogram: 8 4 4 0 4 12 8 0 28 36
Nghost:        3879.03 ave        5426 max         232 min
Histogram: 8 0 8 0 16 0 8 8 16 40
Neighs:        79213.5 ave      115145 max           0 min
Histogram: 8 4 4 0 10 6 8 8 24 32

Total # of neighbors = 8238202
Ave neighs/atom = 28.530471
Neighbor list builds = 0
Dangerous builds = 0
The dot product: 1.40232237643736e-07
The angle: 89.7768273752081
Setting atom values ...
  1 settings made for x
  1 settings made for y
  1 settings made for z
Setting up cg style minimization ...
  Unit style    : metal
  Current step  : 6318
Per MPI rank memory allocation (min/avg/max) = 5.441 | 5.816 | 6.074 Mbytes
Step PotEng KinEng TotEng v_fx v_fy v_fz 
    6318   -1152448.6            0   -1152448.6  0.054041031  0.037113647 -0.098018202 
    6505   -1152448.6            0   -1152448.6 -3.2398038e-06 -1.4686638e-07 4.9224198e-06 
Loop time of 2.19068 on 104 procs for 187 steps with 288751 atoms

99.9% CPU use with 104 MPI tasks x 1 OpenMP threads

Minimization stats:
  Stopping criterion = force tolerance
  Energy initial, next-to-last, final = 
     -1152448.55080224  -1152448.55350615  -1152448.55350614
  Force two-norm initial, final = 0.22677899 9.9272761e-05
  Force max component initial, final = 0.13355804 4.9224198e-06
  Final line search alpha, max atom move = 1.0000000 4.9224198e-06
  Iterations, force evaluations = 187 374

MPI task timing breakdown:
Section |  min time  |  avg time  |  max time  |%varavg| %total
---------------------------------------------------------------
Pair    | 0.57364    | 1.5717     | 2.0591     |  33.6 | 71.75
Neigh   | 0          | 0          | 0          |   0.0 |  0.00
Comm    | 0.034627   | 0.35752    | 1.0668     |  49.6 | 16.32
Output  | 0          | 0          | 0          |   0.0 |  0.00
Modify  | 2.4448e-05 | 0.0030847  | 0.0065794  |   2.6 |  0.14
Other   |            | 0.2584     |            |       | 11.79

Nlocal:        2776.45 ave        3950 max           0 min
Histogram: 8 4 4 0 4 12 8 0 28 36
Nghost:        3879.05 ave        5426 max         232 min
Histogram: 8 0 8 0 16 0 8 8 16 40
Neighs:        79213.5 ave      115147 max           0 min
Histogram: 8 4 4 0 10 6 8 8 24 32

Total # of neighbors = 8238207
Ave neighs/atom = 28.530488
Neighbor list builds = 0
Dangerous builds = 0
The dot product: -6.7367282253977e-09
The angle: 90.0654796168968
Setting atom values ...
  1 settings made for x
  1 settings made for y
  1 settings made for z
Setting up cg style minimization ...
  Unit style    : metal
  Current step  : 6505
Per MPI rank memory allocation (min/avg/max) = 5.441 | 5.816 | 6.074 Mbytes
Step PotEng KinEng TotEng v_fx v_fy v_fz 
    6505   -1152448.5            0   -1152448.5  0.053824185  0.041061949 -0.099751602 
    6687   -1152448.5            0   -1152448.5 7.7050024e-06 -4.2316085e-07 -1.138119e-05 
Loop time of 2.12308 on 104 procs for 182 steps with 288751 atoms

99.9% CPU use with 104 MPI tasks x 1 OpenMP threads

Minimization stats:
  Stopping criterion = energy tolerance
  Energy initial, next-to-last, final = 
     -1152448.54616966  -1152448.54895196  -1152448.54895196
  Force two-norm initial, final = 0.23133802 0.00013039241
  Force max component initial, final = 0.13155172 1.1381190e-05
  Final line search alpha, max atom move = 1.0000000 1.1381190e-05
  Iterations, force evaluations = 182 364

MPI task timing breakdown:
Section |  min time  |  avg time  |  max time  |%varavg| %total
---------------------------------------------------------------
Pair    | 0.55656    | 1.5282     | 1.9986     |  33.3 | 71.98
Neigh   | 0          | 0          | 0          |   0.0 |  0.00
Comm    | 0.03329    | 0.34672    | 1.0333     |  48.4 | 16.33
Output  | 0          | 0          | 0          |   0.0 |  0.00
Modify  | 2.4329e-05 | 0.0030083  | 0.0064035  |   2.6 |  0.14
Other   |            | 0.2452     |            |       | 11.55

Nlocal:        2776.45 ave        3950 max           0 min
Histogram: 8 4 4 0 4 12 8 0 28 36
Nghost:        3879.07 ave        5426 max         232 min
Histogram: 8 0 8 0 16 0 8 8 16 40
Neighs:        79213.5 ave      115150 max           0 min
Histogram: 8 4 4 0 10 6 8 8 24 32

Total # of neighbors = 8238209
Ave neighs/atom = 28.530495
Neighbor list builds = 0
Dangerous builds = 0
The dot product: 2.266144715487e-08
The angle: 89.9055742577853
Setting atom values ...
  1 settings made for x
  1 settings made for y
  1 settings made for z
Setting up cg style minimization ...
  Unit style    : metal
  Current step  : 6687
Per MPI rank memory allocation (min/avg/max) = 5.441 | 5.816 | 6.074 Mbytes
Step PotEng KinEng TotEng v_fx v_fy v_fz 
    6687   -1152448.5            0   -1152448.5  0.052569109  0.043471072 -0.099428972 
    6874   -1152448.5            0   -1152448.5 -2.0725391e-06 6.8987849e-07 2.8057378e-06 
Loop time of 2.18731 on 104 procs for 187 steps with 288751 atoms

99.9% CPU use with 104 MPI tasks x 1 OpenMP threads

Minimization stats:
  Stopping criterion = energy tolerance
  Energy initial, next-to-last, final = 
     -1152448.53830435  -1152448.54111733  -1152448.54111733
  Force two-norm initial, final = 0.2315389 0.00012750526
  Force max component initial, final = 0.12989659 5.0821199e-06
  Final line search alpha, max atom move = 1.0000000 5.0821199e-06
  Iterations, force evaluations = 187 374

MPI task timing breakdown:
Section |  min time  |  avg time  |  max time  |%varavg| %total
---------------------------------------------------------------
Pair    | 0.57383    | 1.5743     | 2.0589     |  33.7 | 71.98
Neigh   | 0          | 0          | 0          |   0.0 |  0.00
Comm    | 0.033885   | 0.35799    | 1.0721     |  49.3 | 16.37
Output  | 0          | 0          | 0          |   0.0 |  0.00
Modify  | 2.331e-05  | 0.003088   | 0.0066075  |   2.6 |  0.14
Other   |            | 0.2519     |            |       | 11.52

Nlocal:        2776.45 ave        3951 max           0 min
Histogram: 8 4 4 0 4 12 8 0 30 34
Nghost:        3879.07 ave        5426 max         232 min
Histogram: 8 0 8 0 16 0 8 8 16 40
Neighs:        79213.5 ave      115176 max           0 min
Histogram: 8 4 4 0 10 6 8 8 24 32

Total # of neighbors = 8238206
Ave neighs/atom = 28.530485
Neighbor list builds = 0
Dangerous builds = 0
The dot product: -4.29672776263373e-09
The angle: 90.0692351526139
Setting atom values ...
  1 settings made for x
  1 settings made for y
  1 settings made for z
Setting up cg style minimization ...
  Unit style    : metal
  Current step  : 6874
Per MPI rank memory allocation (min/avg/max) = 5.441 | 5.816 | 6.074 Mbytes
Step PotEng KinEng TotEng v_fx v_fy v_fz 
    6874   -1152448.5            0   -1152448.5  0.050513755  0.044941815 -0.097510299 
    7000   -1152448.5            0   -1152448.5 -9.0867668e-06 -2.3156412e-05 2.4601417e-05 
    7075   -1152448.5            0   -1152448.5 -7.1339704e-06 -4.6639822e-07 1.101637e-05 
Loop time of 2.34476 on 104 procs for 201 steps with 288751 atoms

99.9% CPU use with 104 MPI tasks x 1 OpenMP threads

Minimization stats:
  Stopping criterion = energy tolerance
  Energy initial, next-to-last, final = 
     -1152448.52699821  -1152448.52994143  -1152448.52994143
  Force two-norm initial, final = 0.22853723 0.00020354026
  Force max component initial, final = 0.12840081 1.1016370e-05
  Final line search alpha, max atom move = 1.0000000 1.1016370e-05
  Iterations, force evaluations = 201 402

MPI task timing breakdown:
Section |  min time  |  avg time  |  max time  |%varavg| %total
---------------------------------------------------------------
Pair    | 0.61508    | 1.6875     | 2.2118     |  34.9 | 71.97
Neigh   | 0          | 0          | 0          |   0.0 |  0.00
Comm    | 0.042076   | 0.38299    | 1.1426     |  51.2 | 16.33
Output  | 0.0001032  | 0.00010714 | 0.00030528 |   0.0 |  0.00
Modify  | 2.6559e-05 | 0.0033128  | 0.0070579  |   2.7 |  0.14
Other   |            | 0.2708     |            |       | 11.55

Nlocal:        2776.45 ave        3953 max           0 min
Histogram: 8 4 4 0 4 12 8 0 30 34
Nghost:        3879.09 ave        5426 max         232 min
Histogram: 8 0 8 0 16 0 8 8 16 40
Neighs:        79213.5 ave      115251 max           0 min
Histogram: 8 4 4 0 10 6 8 8 24 32

Total # of neighbors = 8238204
Ave neighs/atom = 28.530478
Neighbor list builds = 0
Dangerous builds = 0
The dot product: 1.48099447569729e-09
The angle: 89.9935387365984
Setting atom values ...
  1 settings made for x
  1 settings made for y
  1 settings made for z
Setting up cg style minimization ...
  Unit style    : metal
  Current step  : 7075
Per MPI rank memory allocation (min/avg/max) = 5.441 | 5.816 | 6.074 Mbytes
Step PotEng KinEng TotEng v_fx v_fy v_fz 
    7075   -1152448.5            0   -1152448.5  0.047544933  0.045452871 -0.093356097 
    7252   -1152448.5            0   -1152448.5 3.5923374e-06 3.0788417e-06 -6.8861803e-06 
Loop time of 2.05648 on 104 procs for 177 steps with 288751 atoms

99.9% CPU use with 104 MPI tasks x 1 OpenMP threads

Minimization stats:
  Stopping criterion = energy tolerance
  Energy initial, next-to-last, final = 
     -1152448.51247262  -1152448.51521896  -1152448.51521896
  Force two-norm initial, final = 0.22324066 0.00018326531
  Force max component initial, final = 0.1267653 6.8861803e-06
  Final line search alpha, max atom move = 1.0000000 6.8861803e-06
  Iterations, force evaluations = 177 354

MPI task timing breakdown:
Section |  min time  |  avg time  |  max time  |%varavg| %total
---------------------------------------------------------------
Pair    | 0.54157    | 1.4865     | 1.9343     |  32.7 | 72.29
Neigh   | 0          | 0          | 0          |   0.0 |  0.00
Comm    | 0.033184   | 0.33397    | 1.0072     |  48.6 | 16.24
Output  | 0          | 0          | 0          |   0.0 |  0.00
Modify  | 2.2355e-05 | 0.0029241  | 0.0062616  |   2.5 |  0.14
Other   |            | 0.233      |            |       | 11.33

Nlocal:        2776.45 ave        3952 max           0 min
Histogram: 8 4 4 0 4 12 8 0 30 34
Nghost:        3879.03 ave        5426 max         232 min
Histogram: 8 0 8 0 16 0 8 8 16 40
Neighs:        79213.5 ave      115227 max           0 min
Histogram: 8 4 4 0 10 6 8 8 24 32

Total # of neighbors = 8238206
Ave neighs/atom = 28.530485
Neighbor list builds = 0
Dangerous builds = 0
The dot product: 1.3072995938794e-08
The angle: 89.9103482186201
Setting atom values ...
  1 settings made for x
  1 settings made for y
  1 settings made for z
Setting up cg style minimization ...
  Unit style    : metal
  Current step  : 7252
Per MPI rank memory allocation (min/avg/max) = 5.441 | 5.816 | 6.074 Mbytes
Step PotEng KinEng TotEng v_fx v_fy v_fz 
    7252   -1152448.5            0   -1152448.5  0.044420577  0.046950335  -0.08968906 
    7463   -1152448.5            0   -1152448.5 8.0669269e-07 3.416086e-07 -1.3850205e-06 
Loop time of 2.46425 on 104 procs for 211 steps with 288751 atoms

99.9% CPU use with 104 MPI tasks x 1 OpenMP threads

Minimization stats:
  Stopping criterion = force tolerance
  Energy initial, next-to-last, final = 
     -1152448.49421262  -1152448.49690423  -1152448.49690423
  Force two-norm initial, final = 0.21893293 9.9629198e-05
  Force max component initial, final = 0.12552951 2.8900079e-06
  Final line search alpha, max atom move = 1.0000000 2.8900079e-06
  Iterations, force evaluations = 211 422

MPI task timing breakdown:
Section |  min time  |  avg time  |  max time  |%varavg| %total
---------------------------------------------------------------
Pair    | 0.64428    | 1.7708     | 2.3201     |  35.8 | 71.86
Neigh   | 0          | 0          | 0          |   0.0 |  0.00
Comm    | 0.040303   | 0.40325    | 1.1981     |  52.4 | 16.36
Output  | 0          | 0          | 0          |   0.0 |  0.00
Modify  | 2.8125e-05 | 0.0034813  | 0.0074108  |   2.8 |  0.14
Other   |            | 0.2867     |            |       | 11.64

Nlocal:        2776.45 ave        3952 max           0 min
Histogram: 8 4 4 0 4 12 8 0 30 34
Nghost:        3879.01 ave        5426 max         232 min
Histogram: 8 0 8 0 16 0 8 8 16 40
Neighs:        79213.5 ave      115229 max           0 min
Histogram: 8 4 4 0 10 6 8 8 24 32

Total # of neighbors = 8238205
Ave neighs/atom = 28.530481
Neighbor list builds = 0
Dangerous builds = 0
The dot product: 1.02944549355419e-09
The angle: 89.9640089325141
Setting atom values ...
  1 settings made for x
  1 settings made for y
  1 settings made for z
Setting up cg style minimization ...
  Unit style    : metal
  Current step  : 7463
Per MPI rank memory allocation (min/avg/max) = 5.441 | 5.816 | 6.074 Mbytes
Step PotEng KinEng TotEng v_fx v_fy v_fz 
    7463   -1152448.5            0   -1152448.5  0.040444981  0.048708281 -0.084804349 
    7678   -1152448.5            0   -1152448.5 -5.489051e-08 -3.2298144e-07 2.3927245e-07 
Loop time of 2.49518 on 104 procs for 215 steps with 288751 atoms

99.9% CPU use with 104 MPI tasks x 1 OpenMP threads

Minimization stats:
  Stopping criterion = energy tolerance
  Energy initial, next-to-last, final = 
     -1152448.47238936  -1152448.47523862  -1152448.47523862
  Force two-norm initial, final = 0.21549695 0.00015321301
  Force max component initial, final = 0.12432997 4.8061452e-06
  Final line search alpha, max atom move = 1.0000000 4.8061452e-06
  Iterations, force evaluations = 215 430

MPI task timing breakdown:
Section |  min time  |  avg time  |  max time  |%varavg| %total
---------------------------------------------------------------
Pair    | 0.65516    | 1.8038     | 2.3521     |  36.1 | 72.29
Neigh   | 0          | 0          | 0          |   0.0 |  0.00
Comm    | 0.045213   | 0.40749    | 1.232      |  53.4 | 16.33
Output  | 0          | 0          | 0          |   0.0 |  0.00
Modify  | 2.7085e-05 | 0.0035546  | 0.0076414  |   2.8 |  0.14
Other   |            | 0.2804     |            |       | 11.24

Nlocal:        2776.45 ave        3952 max           0 min
Histogram: 8 4 4 0 4 12 8 0 30 34
Nghost:        3879.02 ave        5425 max         232 min
Histogram: 8 0 8 0 16 0 8 8 16 40
Neighs:        79213.5 ave      115229 max           0 min
Histogram: 8 4 4 0 10 6 8 8 24 32

Total # of neighbors = 8238199
Ave neighs/atom = 28.530461
Neighbor list builds = 0
Dangerous builds = 0
The dot product: -3.81087315446273e-10
The angle: 90.0538216443224
Setting up cg style minimization ...
  Unit style    : metal
  Current step  : 7678
Per MPI rank memory allocation (min/avg/max) = 5.441 | 5.816 | 6.074 Mbytes
Step PotEng KinEng TotEng v_fx v_fy v_fz 
    7678   -1152448.5            0   -1152448.5   -0.6279994  -0.20044121  -0.41463124 
    8000   -1152448.6            0   -1152448.6 -1.9548952e-05 4.1460964e-06 0.00010726082 
    8110   -1152448.6            0   -1152448.6 -7.841543e-07 -2.8352849e-06 2.9117643e-05 
Loop time of 5.05773 on 104 procs for 432 steps with 288751 atoms

99.9% CPU use with 104 MPI tasks x 1 OpenMP threads

Minimization stats:
  Stopping criterion = energy tolerance
  Energy initial, next-to-last, final = 
     -1152448.47523862  -1152448.55525044  -1152448.55525044
  Force two-norm initial, final = 0.77876763 0.00018750298
  Force max component initial, final = 0.6279994 2.9117643e-05
  Final line search alpha, max atom move = 1.0000000 2.9117643e-05
  Iterations, force evaluations = 432 864

MPI task timing breakdown:
Section |  min time  |  avg time  |  max time  |%varavg| %total
---------------------------------------------------------------
Pair    | 1.3245     | 3.6272     | 4.756      |  51.0 | 71.72
Neigh   | 1.0227e-05 | 0.0029762  | 0.0043239  |   2.2 |  0.06
Comm    | 0.086112   | 0.82381    | 2.4644     |  75.1 | 16.29
Output  | 0.00010864 | 0.00011525 | 0.0003184  |   0.0 |  0.00
Modify  | 5.1067e-05 | 0.0046311  | 0.011909   |   4.3 |  0.09
Other   |            | 0.599      |            |       | 11.84

Nlocal:        2776.45 ave        3953 max           0 min
Histogram: 8 4 4 0 4 12 8 0 30 34
Nghost:        3879.08 ave        5425 max         232 min
Histogram: 8 0 8 0 16 0 8 8 16 40
Neighs:        79213.6 ave      115273 max           0 min
Histogram: 8 4 4 0 10 6 8 8 24 32

Total # of neighbors = 8238212
Ave neighs/atom = 28.530506
Neighbor list builds = 1
Dangerous builds = 0
