LAMMPS (29 Oct 2020)
OMP_NUM_THREADS environment is not set. Defaulting to 1 thread. (../comm.cpp:94)
  using 1 OpenMP thread(s) per MPI task
OMP_NUM_THREADS environment is not set. Defaulting to 1 thread. (../comm.cpp:94)
  using 1 OpenMP thread(s) per MPI task
Reading data file ...
  orthogonal box = (-122.39241 -121.13707 -37.090501) to (122.39241 121.13707 37.090501)
  13 by 4 by 2 MPI processor grid
  reading atoms ...
  288751 atoms
  read_data CPU = 0.376 seconds
199981 atoms in group inner
88770 atoms in group outer
1 atoms in group carbon
Neighbor list info ...
  update every 1 steps, delay 0 steps, check yes
  max neighbors/atom: 2000, page size: 100000
  master list distance cutoff = 5.6
  ghost atom cutoff = 5.6
  binsize = 2.8, bins = 88 87 27
  1 neighbor lists, perpetual/occasional/extra = 1 0 0
  (1) pair eam/alloy, perpetual
      attributes: half, newton on
      pair build: half/bin/atomonly/newton
      stencil: half/bin/3d/newton
      bin: standard
Setting up cg style minimization ...
  Unit style    : metal
  Current step  : 0
Per MPI rank memory allocation (min/avg/max) = 5.441 | 5.816 | 6.074 Mbytes
Step v_fx v_fy v_fz PotEng KinEng TotEng 
       0    25.674719  -0.40308926   -13.112889   -1152441.8            0   -1152441.8 
     301 5.764501e-06 -7.5177612e-07 -6.5113823e-06     -1152449            0     -1152449 
Loop time of 3.6107 on 104 procs for 301 steps with 288751 atoms

99.8% CPU use with 104 MPI tasks x 1 OpenMP threads

Minimization stats:
  Stopping criterion = energy tolerance
  Energy initial, next-to-last, final = 
     -1152441.84463287  -1152448.97218902  -1152448.97218902
  Force two-norm initial, final = 47.079462 4.9313266e-05
  Force max component initial, final = 32.703473 8.6812670e-06
  Final line search alpha, max atom move = 1.0000000 8.6812670e-06
  Iterations, force evaluations = 301 598

MPI task timing breakdown:
Section |  min time  |  avg time  |  max time  |%varavg| %total
---------------------------------------------------------------
Pair    | 0.94587    | 2.5285     | 3.3378     |  42.3 | 70.03
Neigh   | 7.2571e-05 | 0.020546   | 0.029839   |   5.9 |  0.57
Comm    | 0.068863   | 0.58438    | 1.7034     |  61.7 | 16.18
Output  | 0          | 0          | 0          |   0.0 |  0.00
Modify  | 3.6241e-05 | 0.003225   | 0.0083339  |   3.6 |  0.09
Other   |            | 0.474      |            |       | 13.13

Nlocal:        2776.45 ave        3956 max           0 min
Histogram: 8 4 4 0 4 12 8 0 30 34
Nghost:        3879.04 ave        5425 max         232 min
Histogram: 8 0 8 0 16 0 8 8 16 40
Neighs:        79213.6 ave      115337 max           0 min
Histogram: 8 4 4 0 10 6 8 8 24 32

Total # of neighbors = 8238212
Ave neighs/atom = 28.530506
Neighbor list builds = 7
Dangerous builds = 0
Setting atom values ...
  1 settings made for x
  1 settings made for y
  1 settings made for z
Setting up cg style minimization ...
  Unit style    : metal
  Current step  : 301
Per MPI rank memory allocation (min/avg/max) = 5.441 | 5.816 | 6.074 Mbytes
Step PotEng KinEng TotEng v_fx v_fy v_fz 
     301     -1152449            0     -1152449 -0.064826036  0.065584761  0.037312122 
     537     -1152449            0     -1152449 -1.6469425e-06 3.5284581e-06 4.8946719e-06 
Loop time of 2.86343 on 104 procs for 236 steps with 288751 atoms

99.9% CPU use with 104 MPI tasks x 1 OpenMP threads

Minimization stats:
  Stopping criterion = energy tolerance
  Energy initial, next-to-last, final = 
     -1152448.96539649  -1152448.97032193  -1152448.97032193
  Force two-norm initial, final = 0.32070463 0.00010231094
  Force max component initial, final = 0.14907296 1.3643075e-05
  Final line search alpha, max atom move = 1.0000000 1.3643075e-05
  Iterations, force evaluations = 236 472

MPI task timing breakdown:
Section |  min time  |  avg time  |  max time  |%varavg| %total
---------------------------------------------------------------
Pair    | 0.72981    | 2.007      | 2.6847     |  38.2 | 70.09
Neigh   | 0          | 0          | 0          |   0.0 |  0.00
Comm    | 0.049862   | 0.4708     | 1.3907     |  55.0 | 16.44
Output  | 0          | 0          | 0          |   0.0 |  0.00
Modify  | 3.0096e-05 | 0.0038945  | 0.0084094  |   3.0 |  0.14
Other   |            | 0.3817     |            |       | 13.33

Nlocal:        2776.45 ave        3955 max           0 min
Histogram: 8 4 4 0 4 12 8 2 28 34
Nghost:        3879.17 ave        5425 max         232 min
Histogram: 8 0 8 0 16 0 8 8 16 40
Neighs:        79213.5 ave      115279 max           0 min
Histogram: 8 4 4 0 10 6 8 8 24 32

Total # of neighbors = 8238206
Ave neighs/atom = 28.530485
Neighbor list builds = 0
Dangerous builds = 0
Setting atom values ...
  1 settings made for x
  1 settings made for y
  1 settings made for z
Setting up cg style minimization ...
  Unit style    : metal
  Current step  : 537
Per MPI rank memory allocation (min/avg/max) = 5.441 | 5.816 | 6.074 Mbytes
Step PotEng KinEng TotEng v_fx v_fy v_fz 
     537     -1152449            0     -1152449 -0.080383627  0.058352371 -0.0025072772 
     699     -1152449            0     -1152449 1.7548007e-05 -2.8621601e-05 -1.3600769e-05 
Loop time of 1.93852 on 104 procs for 162 steps with 288751 atoms

99.9% CPU use with 104 MPI tasks x 1 OpenMP threads

Minimization stats:
  Stopping criterion = energy tolerance
  Energy initial, next-to-last, final = 
     -1152448.96194351   -1152448.9675857   -1152448.9675857
  Force two-norm initial, final = 0.29871178 0.00017484986
  Force max component initial, final = 0.15370634 3.4526689e-05
  Final line search alpha, max atom move = 1.0000000 3.4526689e-05
  Iterations, force evaluations = 162 324

MPI task timing breakdown:
Section |  min time  |  avg time  |  max time  |%varavg| %total
---------------------------------------------------------------
Pair    | 0.49111    | 1.3637     | 1.8157     |  31.8 | 70.35
Neigh   | 0          | 0          | 0          |   0.0 |  0.00
Comm    | 0.027756   | 0.31568    | 0.92304    |  45.5 | 16.28
Output  | 0          | 0          | 0          |   0.0 |  0.00
Modify  | 2.2054e-05 | 0.0026802  | 0.0057358  |   2.4 |  0.14
Other   |            | 0.2565     |            |       | 13.23

Nlocal:        2776.45 ave        3956 max           0 min
Histogram: 8 4 4 0 4 12 8 0 30 34
Nghost:        3879.12 ave        5426 max         232 min
Histogram: 8 0 8 0 16 0 8 8 16 40
Neighs:        79213.5 ave      115316 max           0 min
Histogram: 8 4 4 0 10 6 8 8 24 32

Total # of neighbors = 8238202
Ave neighs/atom = 28.530471
Neighbor list builds = 0
Dangerous builds = 0
The dot product: 1.15105066210539e-05
The cos of the angle between the force vector and the displacement vector: 0.317767438797545
The angle: 71.4720373482827
Setting atom values ...
  1 settings made for x
  1 settings made for y
  1 settings made for z
Setting up cg style minimization ...
  Unit style    : metal
  Current step  : 699
Per MPI rank memory allocation (min/avg/max) = 5.441 | 5.816 | 6.074 Mbytes
Step PotEng KinEng TotEng v_fx v_fy v_fz 
     699     -1152449            0     -1152449 -0.094099085  0.032634756 -0.023824868 
     889     -1152449            0     -1152449 9.0690077e-06 -4.0967627e-06 2.0612973e-06 
Loop time of 2.26792 on 104 procs for 190 steps with 288751 atoms

99.9% CPU use with 104 MPI tasks x 1 OpenMP threads

Minimization stats:
  Stopping criterion = energy tolerance
  Energy initial, next-to-last, final = 
     -1152448.95882159  -1152448.96526248  -1152448.96526248
  Force two-norm initial, final = 0.31996817 6.1136147e-05
  Force max component initial, final = 0.16910428 1.0597549e-05
  Final line search alpha, max atom move = 1.0000000 1.0597549e-05
  Iterations, force evaluations = 190 380

MPI task timing breakdown:
Section |  min time  |  avg time  |  max time  |%varavg| %total
---------------------------------------------------------------
Pair    | 0.57943    | 1.6094     | 2.1211     |  34.3 | 70.96
Neigh   | 0          | 0          | 0          |   0.0 |  0.00
Comm    | 0.045227   | 0.36947    | 1.0999     |  49.8 | 16.29
Output  | 0          | 0          | 0          |   0.0 |  0.00
Modify  | 2.4511e-05 | 0.0031292  | 0.0067173  |   2.6 |  0.14
Other   |            | 0.2859     |            |       | 12.61

Nlocal:        2776.45 ave        3957 max           0 min
Histogram: 8 4 4 0 4 12 8 2 28 34
Nghost:        3879.06 ave        5425 max         232 min
Histogram: 8 0 8 0 16 0 8 8 16 40
Neighs:        79213.6 ave      115358 max           0 min
Histogram: 8 4 4 0 10 6 8 8 24 32

Total # of neighbors = 8238212
Ave neighs/atom = 28.530506
Neighbor list builds = 0
Dangerous builds = 0
The dot product: 1.77512305034072e-07
The cos of the angle between the force vector and the displacement vector: 0.0174671397543285
The angle: 88.999155714418
Setting atom values ...
  1 settings made for x
  1 settings made for y
  1 settings made for z
Setting up cg style minimization ...
  Unit style    : metal
  Current step  : 889
Per MPI rank memory allocation (min/avg/max) = 5.441 | 5.816 | 6.074 Mbytes
Step PotEng KinEng TotEng v_fx v_fy v_fz 
     889     -1152449            0     -1152449 -0.088374481  0.038436834 -0.021978582 
    1000     -1152449            0     -1152449 1.1193358e-05 2.8822909e-06 3.2744666e-06 
    1049     -1152449            0     -1152449 1.5348017e-05 -2.0759335e-06 4.1082167e-06 
Loop time of 1.90877 on 104 procs for 160 steps with 288751 atoms

99.9% CPU use with 104 MPI tasks x 1 OpenMP threads

Minimization stats:
  Stopping criterion = energy tolerance
  Energy initial, next-to-last, final = 
     -1152448.95667748  -1152448.96317791  -1152448.96317791
  Force two-norm initial, final = 0.32378733 8.9016011e-05
  Force max component initial, final = 0.16890339 1.9062346e-05
  Final line search alpha, max atom move = 1.0000000 1.9062346e-05
  Iterations, force evaluations = 160 320

MPI task timing breakdown:
Section |  min time  |  avg time  |  max time  |%varavg| %total
---------------------------------------------------------------
Pair    | 0.4867     | 1.347      | 1.7899     |  31.5 | 70.57
Neigh   | 0          | 0          | 0          |   0.0 |  0.00
Comm    | 0.031101   | 0.31039    | 0.9069     |  45.3 | 16.26
Output  | 0.00011832 | 0.00012171 | 0.0002646  |   0.0 |  0.01
Modify  | 2.1654e-05 | 0.0026444  | 0.0056949  |   2.4 |  0.14
Other   |            | 0.2486     |            |       | 13.02

Nlocal:        2776.45 ave        3958 max           0 min
Histogram: 8 4 4 0 4 12 8 2 28 34
Nghost:        3879.07 ave        5425 max         232 min
Histogram: 8 0 8 0 16 0 8 8 16 40
Neighs:        79213.6 ave      115383 max           0 min
Histogram: 8 4 4 0 10 6 8 8 24 32

Total # of neighbors = 8238215
Ave neighs/atom = 28.530516
Neighbor list builds = 0
Dangerous builds = 0
The dot product: -2.48753673895005e-07
The cos of the angle between the force vector and the displacement vector: -0.0155244233475577
The angle: 90.8895196698144
Setting atom values ...
  1 settings made for x
  1 settings made for y
  1 settings made for z
Setting up cg style minimization ...
  Unit style    : metal
  Current step  : 1049
Per MPI rank memory allocation (min/avg/max) = 5.441 | 5.816 | 6.074 Mbytes
Step PotEng KinEng TotEng v_fx v_fy v_fz 
    1049     -1152449            0     -1152449 -0.092871993  0.046219586 -0.022017782 
    1248     -1152449            0     -1152449 -2.2797636e-05 1.9955132e-06 -5.7621699e-06 
Loop time of 2.37958 on 104 procs for 199 steps with 288751 atoms

99.9% CPU use with 104 MPI tasks x 1 OpenMP threads

Minimization stats:
  Stopping criterion = energy tolerance
  Energy initial, next-to-last, final = 
     -1152448.95424277  -1152448.95983043  -1152448.95983043
  Force two-norm initial, final = 0.32622005 0.00012608171
  Force max component initial, final = 0.16840256 2.2797636e-05
  Final line search alpha, max atom move = 1.0000000 2.2797636e-05
  Iterations, force evaluations = 199 398

MPI task timing breakdown:
Section |  min time  |  avg time  |  max time  |%varavg| %total
---------------------------------------------------------------
Pair    | 0.59636    | 1.6804     | 2.2516     |  35.4 | 70.62
Neigh   | 0          | 0          | 0          |   0.0 |  0.00
Comm    | 0.038818   | 0.38914    | 1.1463     |  50.7 | 16.35
Output  | 0          | 0          | 0          |   0.0 |  0.00
Modify  | 2.4653e-05 | 0.0032808  | 0.0071478  |   2.7 |  0.14
Other   |            | 0.3067     |            |       | 12.89

Nlocal:        2776.45 ave        3959 max           0 min
Histogram: 8 4 4 0 4 12 8 2 28 34
Nghost:        3879.09 ave        5425 max         232 min
Histogram: 8 0 8 0 16 0 8 8 16 40
Neighs:        79213.6 ave      115407 max           0 min
Histogram: 8 4 4 0 10 6 8 8 24 32

Total # of neighbors = 8238212
Ave neighs/atom = 28.530506
Neighbor list builds = 0
Dangerous builds = 0
The dot product: 1.03609121327024e-06
The cos of the angle between the force vector and the displacement vector: 0.0439038688647868
The angle: 87.4836847807138
Setting atom values ...
  1 settings made for x
  1 settings made for y
  1 settings made for z
Setting up cg style minimization ...
  Unit style    : metal
  Current step  : 1248
Per MPI rank memory allocation (min/avg/max) = 5.441 | 5.816 | 6.074 Mbytes
Step PotEng KinEng TotEng v_fx v_fy v_fz 
    1248   -1152448.9            0   -1152448.9  -0.10540265    0.0524384 -0.019588032 
    1490     -1152449            0     -1152449 6.6053233e-06 -6.0971699e-07 1.3608006e-06 
Loop time of 2.88418 on 104 procs for 242 steps with 288751 atoms

99.9% CPU use with 104 MPI tasks x 1 OpenMP threads

Minimization stats:
  Stopping criterion = energy tolerance
  Energy initial, next-to-last, final = 
     -1152448.94979425  -1152448.95539005  -1152448.95539005
  Force two-norm initial, final = 0.32581038 3.6626558e-05
  Force max component initial, final = 0.16347289 1.0814168e-05
  Final line search alpha, max atom move = 1.0000000 1.0814168e-05
  Iterations, force evaluations = 242 484

MPI task timing breakdown:
Section |  min time  |  avg time  |  max time  |%varavg| %total
---------------------------------------------------------------
Pair    | 0.75468    | 2.0384     | 2.6649     |  38.0 | 70.67
Neigh   | 0          | 0          | 0          |   0.0 |  0.00
Comm    | 0.047554   | 0.46345    | 1.3671     |  56.2 | 16.07
Output  | 0          | 0          | 0          |   0.0 |  0.00
Modify  | 3.1257e-05 | 0.0039881  | 0.0085474  |   3.0 |  0.14
Other   |            | 0.3784     |            |       | 13.12

Nlocal:        2776.45 ave        3960 max           0 min
Histogram: 8 4 4 0 4 12 8 2 28 34
Nghost:        3879.03 ave        5424 max         232 min
Histogram: 8 0 8 0 16 0 8 8 16 40
Neighs:        79213.5 ave      115434 max           0 min
Histogram: 8 4 4 0 10 6 8 8 24 32

Total # of neighbors = 8238208
Ave neighs/atom = 28.530492
Neighbor list builds = 0
Dangerous builds = 0
The dot product: -2.94412082889216e-07
The cos of the angle between the force vector and the displacement vector: -0.0434778264027544
The angle: 92.4918814523035
Setting atom values ...
  1 settings made for x
  1 settings made for y
  1 settings made for z
Setting up cg style minimization ...
  Unit style    : metal
  Current step  : 1490
Per MPI rank memory allocation (min/avg/max) = 5.441 | 5.816 | 6.074 Mbytes
Step PotEng KinEng TotEng v_fx v_fy v_fz 
    1490   -1152448.9            0   -1152448.9  -0.11412238    0.0570923 -0.015167034 
    1696   -1152448.9            0   -1152448.9 2.4127719e-05 -2.2696678e-06 3.875011e-06 
Loop time of 2.49085 on 104 procs for 206 steps with 288751 atoms

99.9% CPU use with 104 MPI tasks x 1 OpenMP threads

Minimization stats:
  Stopping criterion = energy tolerance
  Energy initial, next-to-last, final = 
      -1152448.9441648    -1152448.949224    -1152448.949224
  Force two-norm initial, final = 0.32358294 0.00012669996
  Force max component initial, final = 0.1574125 4.1801544e-05
  Final line search alpha, max atom move = 1.0000000 4.1801544e-05
  Iterations, force evaluations = 206 412

MPI task timing breakdown:
Section |  min time  |  avg time  |  max time  |%varavg| %total
---------------------------------------------------------------
Pair    | 0.63484    | 1.7441     | 2.3158     |  35.5 | 70.02
Neigh   | 0          | 0          | 0          |   0.0 |  0.00
Comm    | 0.0456     | 0.40296    | 1.1928     |  51.5 | 16.18
Output  | 0          | 0          | 0          |   0.0 |  0.00
Modify  | 2.624e-05  | 0.0033973  | 0.0072932  |   2.7 |  0.14
Other   |            | 0.3404     |            |       | 13.66

Nlocal:        2776.45 ave        3960 max           0 min
Histogram: 8 4 4 0 4 12 8 2 28 34
Nghost:        3879.06 ave        5425 max         232 min
Histogram: 8 0 8 0 16 0 8 8 16 40
Neighs:        79213.5 ave      115433 max           0 min
Histogram: 8 4 4 0 10 6 8 8 24 32

Total # of neighbors = 8238201
Ave neighs/atom = 28.530467
Neighbor list builds = 0
Dangerous builds = 0
The dot product: -1.26155289344117e-06
The cos of the angle between the force vector and the displacement vector: -0.0514036565093663
The angle: 92.9465111543561
Setting atom values ...
  1 settings made for x
  1 settings made for y
  1 settings made for z
Setting up cg style minimization ...
  Unit style    : metal
  Current step  : 1696
Per MPI rank memory allocation (min/avg/max) = 5.441 | 5.816 | 6.074 Mbytes
Step PotEng KinEng TotEng v_fx v_fy v_fz 
    1696   -1152448.9            0   -1152448.9  -0.12323728  0.060020248 -0.0090802148 
    1886   -1152448.9            0   -1152448.9 7.9530652e-06 -1.5791801e-06 7.8502276e-07 
Loop time of 2.25211 on 104 procs for 190 steps with 288751 atoms

99.9% CPU use with 104 MPI tasks x 1 OpenMP threads

Minimization stats:
  Stopping criterion = energy tolerance
  Energy initial, next-to-last, final = 
     -1152448.93647811  -1152448.94135273  -1152448.94135273
  Force two-norm initial, final = 0.32006659 0.00013540977
  Force max component initial, final = 0.14859932 1.0565098e-05
  Final line search alpha, max atom move = 1.0000000 1.0565098e-05
  Iterations, force evaluations = 190 380

MPI task timing breakdown:
Section |  min time  |  avg time  |  max time  |%varavg| %total
---------------------------------------------------------------
Pair    | 0.57592    | 1.5997     | 2.1219     |  34.3 | 71.03
Neigh   | 0          | 0          | 0          |   0.0 |  0.00
Comm    | 0.033324   | 0.36584    | 1.0785     |  49.8 | 16.24
Output  | 0          | 0          | 0          |   0.0 |  0.00
Modify  | 2.4217e-05 | 0.003143   | 0.0067183  |   2.7 |  0.14
Other   |            | 0.2834     |            |       | 12.58

Nlocal:        2776.45 ave        3961 max           0 min
Histogram: 8 4 4 0 6 10 8 2 28 34
Nghost:        3879.07 ave        5425 max         232 min
Histogram: 8 0 8 0 16 0 8 8 16 40
Neighs:        79213.5 ave      115464 max           0 min
Histogram: 8 4 4 0 10 6 8 8 24 32

Total # of neighbors = 8238207
Ave neighs/atom = 28.530488
Neighbor list builds = 0
Dangerous builds = 0
The dot product: -3.85942510204667e-07
The cos of the angle between the force vector and the displacement vector: -0.0473767343424387
The angle: 92.7155034211618
Setting atom values ...
  1 settings made for x
  1 settings made for y
  1 settings made for z
Setting up cg style minimization ...
  Unit style    : metal
  Current step  : 1886
Per MPI rank memory allocation (min/avg/max) = 5.441 | 5.816 | 6.074 Mbytes
Step PotEng KinEng TotEng v_fx v_fy v_fz 
    1886   -1152448.9            0   -1152448.9  -0.12684654  0.061790722 -0.0024258013 
    2000   -1152448.9            0   -1152448.9 -0.00023832036 3.5249539e-05 -1.3147508e-05 
    2050   -1152448.9            0   -1152448.9 -7.5121188e-05 1.1688223e-05 -4.082911e-06 
Loop time of 1.94844 on 104 procs for 164 steps with 288751 atoms

99.9% CPU use with 104 MPI tasks x 1 OpenMP threads

Minimization stats:
  Stopping criterion = energy tolerance
  Energy initial, next-to-last, final = 
     -1152448.92706174  -1152448.93161116  -1152448.93161116
  Force two-norm initial, final = 0.31546634 0.0002467566
  Force max component initial, final = 0.1394927 8.4707764e-05
  Final line search alpha, max atom move = 1.0000000 8.4707764e-05
  Iterations, force evaluations = 164 328

MPI task timing breakdown:
Section |  min time  |  avg time  |  max time  |%varavg| %total
---------------------------------------------------------------
Pair    | 0.49793    | 1.3874     | 1.8368     |  31.8 | 71.21
Neigh   | 0          | 0          | 0          |   0.0 |  0.00
Comm    | 0.036402   | 0.31885    | 0.94143    |  46.3 | 16.36
Output  | 0.00013785 | 0.00014669 | 0.00028069 |   0.0 |  0.01
Modify  | 2.1104e-05 | 0.0027017  | 0.0057851  |   2.5 |  0.14
Other   |            | 0.2393     |            |       | 12.28

Nlocal:        2776.45 ave        3961 max           0 min
Histogram: 8 4 4 0 6 10 8 2 28 34
Nghost:        3879.07 ave        5425 max         232 min
Histogram: 8 0 8 0 16 0 8 8 16 40
Neighs:        79213.5 ave      115461 max           0 min
Histogram: 8 4 4 0 10 6 8 8 24 32

Total # of neighbors = 8238202
Ave neighs/atom = 28.530471
Neighbor list builds = 0
Dangerous builds = 0
The dot product: 2.78843867165136e-06
The cos of the angle between the force vector and the displacement vector: 0.0366251168145268
The angle: 87.9010659524834
Setting atom values ...
  1 settings made for x
  1 settings made for y
  1 settings made for z
Setting up cg style minimization ...
  Unit style    : metal
  Current step  : 2050
Per MPI rank memory allocation (min/avg/max) = 5.441 | 5.816 | 6.074 Mbytes
Step PotEng KinEng TotEng v_fx v_fy v_fz 
    2050   -1152448.9            0   -1152448.9  -0.12546183  0.048515108 0.0015782208 
    2221   -1152448.9            0   -1152448.9 -6.4487764e-07 1.7834748e-06 2.0384323e-07 
Loop time of 2.02086 on 104 procs for 171 steps with 288751 atoms

99.9% CPU use with 104 MPI tasks x 1 OpenMP threads

Minimization stats:
  Stopping criterion = energy tolerance
  Energy initial, next-to-last, final = 
     -1152448.91524351  -1152448.91952307  -1152448.91952307
  Force two-norm initial, final = 0.30763341 0.00017535428
  Force max component initial, final = 0.13167456 2.5551411e-05
  Final line search alpha, max atom move = 1.0000000 2.5551411e-05
  Iterations, force evaluations = 171 342

MPI task timing breakdown:
Section |  min time  |  avg time  |  max time  |%varavg| %total
---------------------------------------------------------------
Pair    | 0.51571    | 1.44       | 1.9113     |  32.7 | 71.26
Neigh   | 0          | 0          | 0          |   0.0 |  0.00
Comm    | 0.030513   | 0.32892    | 0.97872    |  47.6 | 16.28
Output  | 0          | 0          | 0          |   0.0 |  0.00
Modify  | 2.151e-05  | 0.0028221  | 0.0061026  |   2.5 |  0.14
Other   |            | 0.2491     |            |       | 12.33

Nlocal:        2776.45 ave        3961 max           0 min
Histogram: 8 4 4 0 6 10 8 2 28 34
Nghost:        3879.11 ave        5425 max         232 min
Histogram: 8 0 8 0 16 0 8 8 16 40
Neighs:        79213.5 ave      115457 max           0 min
Histogram: 8 4 4 0 10 6 8 8 24 32

Total # of neighbors = 8238199
Ave neighs/atom = 28.530461
Neighbor list builds = 0
Dangerous builds = 0
The dot product: 3.46922737057879e-08
The cos of the angle between the force vector and the displacement vector: 0.0181881855376889
The angle: 88.9578362665891
Setting atom values ...
  1 settings made for x
  1 settings made for y
  1 settings made for z
Setting up cg style minimization ...
  Unit style    : metal
  Current step  : 2221
Per MPI rank memory allocation (min/avg/max) = 5.441 | 5.816 | 6.074 Mbytes
Step PotEng KinEng TotEng v_fx v_fy v_fz 
    2221   -1152448.9            0   -1152448.9  -0.12423918  0.033298778 0.0032143931 
    2421   -1152448.9            0   -1152448.9 -2.6159156e-05 5.1168658e-06 4.1548647e-07 
Loop time of 2.41232 on 104 procs for 200 steps with 288751 atoms

99.9% CPU use with 104 MPI tasks x 1 OpenMP threads

Minimization stats:
  Stopping criterion = energy tolerance
  Energy initial, next-to-last, final = 
     -1152448.90022796  -1152448.90446842  -1152448.90446842
  Force two-norm initial, final = 0.30288465 0.00010626604
  Force max component initial, final = 0.12517698 2.6159156e-05
  Final line search alpha, max atom move = 1.0000000 2.6159156e-05
  Iterations, force evaluations = 200 400

MPI task timing breakdown:
Section |  min time  |  avg time  |  max time  |%varavg| %total
---------------------------------------------------------------
Pair    | 0.6211     | 1.7017     | 2.2842     |  35.2 | 70.54
Neigh   | 0          | 0          | 0          |   0.0 |  0.00
Comm    | 0.041769   | 0.39627    | 1.1702     |  50.9 | 16.43
Output  | 0          | 0          | 0          |   0.0 |  0.00
Modify  | 2.5507e-05 | 0.0032926  | 0.0071216  |   2.7 |  0.14
Other   |            | 0.3111     |            |       | 12.90

Nlocal:        2776.45 ave        3961 max           0 min
Histogram: 8 4 4 0 6 10 8 3 27 34
Nghost:        3879.09 ave        5426 max         232 min
Histogram: 8 0 8 0 16 0 8 8 16 40
Neighs:        79213.5 ave      115466 max           0 min
Histogram: 8 4 4 0 10 6 8 8 24 32

Total # of neighbors = 8238199
Ave neighs/atom = 28.530461
Neighbor list builds = 0
Dangerous builds = 0
The dot product: 5.01887252446727e-07
The cos of the angle between the force vector and the displacement vector: 0.0188267926259477
The angle: 88.921240506985
Setting atom values ...
  1 settings made for x
  1 settings made for y
  1 settings made for z
Setting up cg style minimization ...
  Unit style    : metal
  Current step  : 2421
Per MPI rank memory allocation (min/avg/max) = 5.441 | 5.816 | 6.074 Mbytes
Step PotEng KinEng TotEng v_fx v_fy v_fz 
    2421   -1152448.9            0   -1152448.9  -0.12301663  0.025168368 0.0044919394 
    2625   -1152448.9            0   -1152448.9 -1.1995028e-05 4.3788695e-06 7.0745399e-07 
Loop time of 2.40571 on 104 procs for 204 steps with 288751 atoms

99.9% CPU use with 104 MPI tasks x 1 OpenMP threads

Minimization stats:
  Stopping criterion = energy tolerance
  Energy initial, next-to-last, final = 
     -1152448.88214108  -1152448.88643916  -1152448.88643916
  Force two-norm initial, final = 0.30047943 0.00013447483
  Force max component initial, final = 0.12753628 1.5510144e-05
  Final line search alpha, max atom move = 1.0000000 1.5510144e-05
  Iterations, force evaluations = 204 408

MPI task timing breakdown:
Section |  min time  |  avg time  |  max time  |%varavg| %total
---------------------------------------------------------------
Pair    | 0.62099    | 1.7134     | 2.2508     |  35.3 | 71.22
Neigh   | 0          | 0          | 0          |   0.0 |  0.00
Comm    | 0.040658   | 0.38933    | 1.1561     |  51.7 | 16.18
Output  | 0          | 0          | 0          |   0.0 |  0.00
Modify  | 2.5742e-05 | 0.0033612  | 0.0072389  |   2.7 |  0.14
Other   |            | 0.2996     |            |       | 12.45

Nlocal:        2776.45 ave        3961 max           0 min
Histogram: 8 4 4 0 6 10 8 4 26 34
Nghost:        3879.12 ave        5426 max         232 min
Histogram: 8 0 8 0 16 0 8 8 16 40
Neighs:        79213.5 ave      115450 max           0 min
Histogram: 8 4 4 0 10 6 8 8 24 32

Total # of neighbors = 8238200
Ave neighs/atom = 28.530464
Neighbor list builds = 0
Dangerous builds = 0
The dot product: 6.71085614734571e-08
The cos of the angle between the force vector and the displacement vector: 0.00524741133047009
The angle: 89.6993440976079
Setting atom values ...
  1 settings made for x
  1 settings made for y
  1 settings made for z
Setting up cg style minimization ...
  Unit style    : metal
  Current step  : 2625
Per MPI rank memory allocation (min/avg/max) = 5.441 | 5.816 | 6.074 Mbytes
Step PotEng KinEng TotEng v_fx v_fy v_fz 
    2625   -1152448.9            0   -1152448.9  -0.11682964  0.020339506  0.004444407 
    2845   -1152448.9            0   -1152448.9 -6.9938237e-06 1.2118834e-06 2.652626e-07 
Loop time of 2.6384 on 104 procs for 220 steps with 288751 atoms

99.9% CPU use with 104 MPI tasks x 1 OpenMP threads

Minimization stats:
  Stopping criterion = energy tolerance
  Energy initial, next-to-last, final = 
     -1152448.86140639  -1152448.86691629  -1152448.86691629
  Force two-norm initial, final = 0.29819626 6.8300771e-05
  Force max component initial, final = 0.12967534 1.0606533e-05
  Final line search alpha, max atom move = 1.0000000 1.0606533e-05
  Iterations, force evaluations = 220 440

MPI task timing breakdown:
Section |  min time  |  avg time  |  max time  |%varavg| %total
---------------------------------------------------------------
Pair    | 0.65866    | 1.8589     | 2.4956     |  37.3 | 70.46
Neigh   | 0          | 0          | 0          |   0.0 |  0.00
Comm    | 0.03979    | 0.4296     | 1.2471     |  53.1 | 16.28
Output  | 0          | 0          | 0          |   0.0 |  0.00
Modify  | 2.8156e-05 | 0.0036178  | 0.0078447  |   2.8 |  0.14
Other   |            | 0.3462     |            |       | 13.12

Nlocal:        2776.45 ave        3961 max           0 min
Histogram: 8 4 4 0 6 10 8 4 26 34
Nghost:        3879.12 ave        5426 max         232 min
Histogram: 8 0 8 0 16 0 8 8 16 40
Neighs:        79213.4 ave      115461 max           0 min
Histogram: 8 4 4 0 10 6 8 8 24 32

Total # of neighbors = 8238194
Ave neighs/atom = 28.530443
Neighbor list builds = 0
Dangerous builds = 0
The dot product: -3.31957362464847e-07
The cos of the angle between the force vector and the displacement vector: -0.0467348175341669
The angle: 92.6786835098502
Setting atom values ...
  1 settings made for x
  1 settings made for y
  1 settings made for z
Setting up cg style minimization ...
  Unit style    : metal
  Current step  : 2845
Per MPI rank memory allocation (min/avg/max) = 5.441 | 5.816 | 6.074 Mbytes
Step PotEng KinEng TotEng v_fx v_fy v_fz 
    2845   -1152448.8            0   -1152448.8 -0.085807599  0.019609584 -0.00021306748 
    3000   -1152448.8            0   -1152448.8 -8.4060161e-05 1.8680447e-05 -2.8080786e-07 
    3069   -1152448.8            0   -1152448.8 -2.1463795e-05 3.0347826e-06 -3.0775773e-07 
Loop time of 2.65208 on 104 procs for 224 steps with 288751 atoms

99.9% CPU use with 104 MPI tasks x 1 OpenMP threads

Minimization stats:
  Stopping criterion = energy tolerance
  Energy initial, next-to-last, final = 
     -1152448.84079482  -1152448.84537581  -1152448.84537581
  Force two-norm initial, final = 0.29400878 6.6886564e-05
  Force max component initial, final = 0.12956186 2.5219728e-05
  Final line search alpha, max atom move = 1.0000000 2.5219728e-05
  Iterations, force evaluations = 224 448

MPI task timing breakdown:
Section |  min time  |  avg time  |  max time  |%varavg| %total
---------------------------------------------------------------
Pair    | 0.67729    | 1.8837     | 2.5023     |  37.3 | 71.03
Neigh   | 0          | 0          | 0          |   0.0 |  0.00
Comm    | 0.040132   | 0.431      | 1.2761     |  54.0 | 16.25
Output  | 0.00013149 | 0.00013726 | 0.00029098 |   0.0 |  0.01
Modify  | 2.8763e-05 | 0.003686   | 0.0079082  |   2.9 |  0.14
Other   |            | 0.3335     |            |       | 12.58

Nlocal:        2776.45 ave        3961 max           0 min
Histogram: 8 4 4 0 6 10 8 4 26 34
Nghost:        3879.09 ave        5426 max         232 min
Histogram: 8 0 8 0 16 0 8 8 16 40
Neighs:        79213.4 ave      115450 max           0 min
Histogram: 8 4 4 0 10 6 8 8 24 32

Total # of neighbors = 8238193
Ave neighs/atom = 28.530440
Neighbor list builds = 0
Dangerous builds = 0
The dot product: -6.56855899875823e-07
The cos of the angle between the force vector and the displacement vector: -0.0302985312696209
The angle: 91.7362436818937
Setting atom values ...
  1 settings made for x
  1 settings made for y
  1 settings made for z
Setting up cg style minimization ...
  Unit style    : metal
  Current step  : 3069
Per MPI rank memory allocation (min/avg/max) = 5.441 | 5.816 | 6.074 Mbytes
Step PotEng KinEng TotEng v_fx v_fy v_fz 
    3069   -1152448.8            0   -1152448.8 -0.094984254  0.016236049 -0.0039323113 
    3252   -1152448.8            0   -1152448.8 5.2500735e-05 -1.3918776e-05 1.5267863e-06 
Loop time of 2.16133 on 104 procs for 183 steps with 288751 atoms

99.9% CPU use with 104 MPI tasks x 1 OpenMP threads

Minimization stats:
  Stopping criterion = energy tolerance
  Energy initial, next-to-last, final = 
     -1152448.81618092  -1152448.82085262  -1152448.82085262
  Force two-norm initial, final = 0.30031397 0.00024105171
  Force max component initial, final = 0.13762915 5.2500735e-05
  Final line search alpha, max atom move = 1.0000000 5.2500735e-05
  Iterations, force evaluations = 183 366

MPI task timing breakdown:
Section |  min time  |  avg time  |  max time  |%varavg| %total
---------------------------------------------------------------
Pair    | 0.55467    | 1.5413     | 2.0351     |  33.6 | 71.31
Neigh   | 0          | 0          | 0          |   0.0 |  0.00
Comm    | 0.032254   | 0.3505     | 1.0379     |  49.0 | 16.22
Output  | 0          | 0          | 0          |   0.0 |  0.00
Modify  | 2.3824e-05 | 0.0030154  | 0.0064642  |   2.6 |  0.14
Other   |            | 0.2665     |            |       | 12.33

Nlocal:        2776.45 ave        3961 max           0 min
Histogram: 8 4 4 0 6 10 8 4 26 34
Nghost:        3879.01 ave        5425 max         232 min
Histogram: 8 0 8 0 16 0 8 8 16 40
Neighs:        79213.4 ave      115447 max           0 min
Histogram: 8 4 4 0 10 6 8 8 24 32

Total # of neighbors = 8238191
Ave neighs/atom = 28.530433
Neighbor list builds = 0
Dangerous builds = 0
The dot product: 1.51876169167856e-06
The cos of the angle between the force vector and the displacement vector: 0.0279513462540189
The angle: 88.3982972192901
Setting atom values ...
  1 settings made for x
  1 settings made for y
  1 settings made for z
Setting up cg style minimization ...
  Unit style    : metal
  Current step  : 3252
Per MPI rank memory allocation (min/avg/max) = 5.441 | 5.816 | 6.074 Mbytes
Step PotEng KinEng TotEng v_fx v_fy v_fz 
    3252   -1152448.8            0   -1152448.8 -0.096039376   0.01174053 -0.0072844157 
    3472   -1152448.8            0   -1152448.8 -2.4091925e-05 4.6698031e-06 -1.6160295e-06 
Loop time of 2.59581 on 104 procs for 220 steps with 288751 atoms

99.9% CPU use with 104 MPI tasks x 1 OpenMP threads

Minimization stats:
  Stopping criterion = energy tolerance
  Energy initial, next-to-last, final = 
     -1152448.78875844  -1152448.79324141  -1152448.79324141
  Force two-norm initial, final = 0.30348901 6.2478800e-05
  Force max component initial, final = 0.14513969 2.4393053e-05
  Final line search alpha, max atom move = 1.0000000 2.4393053e-05
  Iterations, force evaluations = 220 440

MPI task timing breakdown:
Section |  min time  |  avg time  |  max time  |%varavg| %total
---------------------------------------------------------------
Pair    | 0.66732    | 1.8475     | 2.4416     |  36.7 | 71.17
Neigh   | 0          | 0          | 0          |   0.0 |  0.00
Comm    | 0.043902   | 0.4202     | 1.2412     |  53.6 | 16.19
Output  | 0          | 0          | 0          |   0.0 |  0.00
Modify  | 2.7048e-05 | 0.0036361  | 0.0087099  |   2.9 |  0.14
Other   |            | 0.3245     |            |       | 12.50

Nlocal:        2776.45 ave        3961 max           0 min
Histogram: 8 4 4 0 6 10 8 4 26 34
Nghost:        3879.05 ave        5425 max         232 min
Histogram: 8 0 8 0 16 0 8 8 16 40
Neighs:        79213.4 ave      115431 max           0 min
Histogram: 8 4 4 0 10 6 8 8 24 32

Total # of neighbors = 8238190
Ave neighs/atom = 28.530429
Neighbor list builds = 0
Dangerous builds = 0
The dot product: -3.54155018577599e-07
The cos of the angle between the force vector and the displacement vector: -0.0144003596698687
The angle: 90.8251083513989
Setting atom values ...
  1 settings made for x
  1 settings made for y
  1 settings made for z
Setting up cg style minimization ...
  Unit style    : metal
  Current step  : 3472
Per MPI rank memory allocation (min/avg/max) = 5.441 | 5.816 | 6.074 Mbytes
Step PotEng KinEng TotEng v_fx v_fy v_fz 
    3472   -1152448.8            0   -1152448.8  -0.10778792  0.012324006 -0.0098276701 
    3731   -1152448.8            0   -1152448.8 2.8749839e-06 -5.6325301e-07 2.3492709e-07 
Loop time of 3.07757 on 104 procs for 259 steps with 288751 atoms

99.9% CPU use with 104 MPI tasks x 1 OpenMP threads

Minimization stats:
  Stopping criterion = energy tolerance
  Energy initial, next-to-last, final = 
     -1152448.75805009  -1152448.76226344  -1152448.76226344
  Force two-norm initial, final = 0.30854464 8.5621835e-06
  Force max component initial, final = 0.14904245 2.8749839e-06
  Final line search alpha, max atom move = 1.0000000 2.8749839e-06
  Iterations, force evaluations = 259 518

MPI task timing breakdown:
Section |  min time  |  avg time  |  max time  |%varavg| %total
---------------------------------------------------------------
Pair    | 0.78071    | 2.1888     | 2.9141     |  40.2 | 71.12
Neigh   | 0          | 0          | 0          |   0.0 |  0.00
Comm    | 0.060942   | 0.50338    | 1.481      |  58.2 | 16.36
Output  | 0          | 0          | 0          |   0.0 |  0.00
Modify  | 3.2637e-05 | 0.0042653  | 0.009157   |   3.1 |  0.14
Other   |            | 0.3811     |            |       | 12.38

Nlocal:        2776.45 ave        3960 max           0 min
Histogram: 8 4 4 0 4 12 8 4 26 34
Nghost:        3879.01 ave        5425 max         232 min
Histogram: 8 0 8 0 16 0 8 8 16 40
Neighs:        79213.4 ave      115407 max           0 min
Histogram: 8 4 4 0 10 6 8 8 24 32

Total # of neighbors = 8238189
Ave neighs/atom = 28.530426
Neighbor list builds = 0
Dangerous builds = 0
The dot product: 5.64566530553002e-10
The cos of the angle between the force vector and the displacement vector: 0.000192091925089567
The angle: 89.9889939433464
Setting up cg style minimization ...
  Unit style    : metal
  Current step  : 3731
Per MPI rank memory allocation (min/avg/max) = 5.441 | 5.816 | 6.074 Mbytes
Step PotEng KinEng TotEng v_fx v_fy v_fz 
    3731   -1152448.8            0   -1152448.8   -0.1125811  -0.12503038    1.0780099 
    4000     -1152449            0     -1152449 3.6585405e-05 -6.5814586e-06 -3.0278426e-05 
    4021     -1152449            0     -1152449 -4.1104057e-05 4.4325552e-06 4.3846064e-05 
Loop time of 3.41006 on 104 procs for 290 steps with 288751 atoms

99.9% CPU use with 104 MPI tasks x 1 OpenMP threads

Minimization stats:
  Stopping criterion = energy tolerance
  Energy initial, next-to-last, final = 
     -1152448.76226344  -1152448.97218892  -1152448.97218892
  Force two-norm initial, final = 1.0910603 0.00019381113
  Force max component initial, final = 1.0780099 5.7125261e-05
  Final line search alpha, max atom move = 1.0000000 5.7125261e-05
  Iterations, force evaluations = 290 580

MPI task timing breakdown:
Section |  min time  |  avg time  |  max time  |%varavg| %total
---------------------------------------------------------------
Pair    | 0.90027    | 2.4412     | 3.1885     |  41.7 | 71.59
Neigh   | 6.0793e-05 | 0.017766   | 0.02575    |   5.5 |  0.52
Comm    | 0.052156   | 0.55247    | 1.6558     |  62.3 | 16.20
Output  | 0.00012279 | 0.00013111 | 0.0003027  |   0.0 |  0.00
Modify  | 3.3314e-05 | 0.0031158  | 0.0080273  |   3.5 |  0.09
Other   |            | 0.3954     |            |       | 11.60

Nlocal:        2776.45 ave        3958 max           0 min
Histogram: 8 4 4 0 4 12 8 2 28 34
Nghost:        3879.13 ave        5427 max         232 min
Histogram: 8 0 8 0 16 0 8 8 16 40
Neighs:        79213.6 ave      115405 max           0 min
Histogram: 8 4 4 0 10 6 8 8 24 32

Total # of neighbors = 8238212
Ave neighs/atom = 28.530506
Neighbor list builds = 6
Dangerous builds = 0
OMP_NUM_THREADS environment is not set. Defaulting to 1 thread. (../comm.cpp:94)
  using 1 OpenMP thread(s) per MPI task
Reading data file ...
  orthogonal box = (-122.39241 -121.13707 -37.090501) to (122.39241 121.13707 37.090501)
  13 by 4 by 2 MPI processor grid
  reading atoms ...
  288751 atoms
  read_data CPU = 0.343 seconds
199981 atoms in group inner
88770 atoms in group outer
1 atoms in group carbon
Neighbor list info ...
  update every 1 steps, delay 0 steps, check yes
  max neighbors/atom: 2000, page size: 100000
  master list distance cutoff = 5.6
  ghost atom cutoff = 5.6
  binsize = 2.8, bins = 88 87 27
  1 neighbor lists, perpetual/occasional/extra = 1 0 0
  (1) pair eam/alloy, perpetual
      attributes: half, newton on
      pair build: half/bin/atomonly/newton
      stencil: half/bin/3d/newton
      bin: standard
Setting up cg style minimization ...
  Unit style    : metal
  Current step  : 0
Per MPI rank memory allocation (min/avg/max) = 5.441 | 5.816 | 6.074 Mbytes
Step v_fx v_fy v_fz PotEng KinEng TotEng 
       0    25.674719  -0.40308926   -13.112889   -1152441.8            0   -1152441.8 
     301 5.764501e-06 -7.5177612e-07 -6.5113823e-06     -1152449            0     -1152449 
Loop time of 3.5303 on 104 procs for 301 steps with 288751 atoms

99.9% CPU use with 104 MPI tasks x 1 OpenMP threads

Minimization stats:
  Stopping criterion = energy tolerance
  Energy initial, next-to-last, final = 
     -1152441.84463287  -1152448.97218902  -1152448.97218902
  Force two-norm initial, final = 47.079462 4.9313266e-05
  Force max component initial, final = 32.703473 8.6812670e-06
  Final line search alpha, max atom move = 1.0000000 8.6812670e-06
  Iterations, force evaluations = 301 598

MPI task timing breakdown:
Section |  min time  |  avg time  |  max time  |%varavg| %total
---------------------------------------------------------------
Pair    | 0.93243    | 2.5302     | 3.2766     |  42.5 | 71.67
Neigh   | 7.0624e-05 | 0.020689   | 0.03001    |   5.9 |  0.59
Comm    | 0.053584   | 0.57209    | 1.7289     |  62.8 | 16.21
Output  | 0          | 0          | 0          |   0.0 |  0.00
Modify  | 3.435e-05  | 0.0032038  | 0.008315   |   3.6 |  0.09
Other   |            | 0.4041     |            |       | 11.45

Nlocal:        2776.45 ave        3956 max           0 min
Histogram: 8 4 4 0 4 12 8 0 30 34
Nghost:        3879.04 ave        5425 max         232 min
Histogram: 8 0 8 0 16 0 8 8 16 40
Neighs:        79213.6 ave      115337 max           0 min
Histogram: 8 4 4 0 10 6 8 8 24 32

Total # of neighbors = 8238212
Ave neighs/atom = 28.530506
Neighbor list builds = 7
Dangerous builds = 0
Setting atom values ...
  1 settings made for x
  1 settings made for y
  1 settings made for z
Setting up cg style minimization ...
  Unit style    : metal
  Current step  : 301
Per MPI rank memory allocation (min/avg/max) = 5.441 | 5.816 | 6.074 Mbytes
Step PotEng KinEng TotEng v_fx v_fy v_fz 
     301     -1152449            0     -1152449 -0.0073316003  0.012882169 0.00076406843 
     492     -1152449            0     -1152449 2.9317863e-05 -1.6695639e-06 -3.2443468e-05 
Loop time of 2.24174 on 104 procs for 191 steps with 288751 atoms

99.9% CPU use with 104 MPI tasks x 1 OpenMP threads

Minimization stats:
  Stopping criterion = energy tolerance
  Energy initial, next-to-last, final = 
     -1152448.96877923  -1152448.97141175  -1152448.97141175
  Force two-norm initial, final = 0.20075289 0.00017480943
  Force max component initial, final = 0.10907017 6.5815971e-05
  Final line search alpha, max atom move = 1.0000000 6.5815971e-05
  Iterations, force evaluations = 191 382

MPI task timing breakdown:
Section |  min time  |  avg time  |  max time  |%varavg| %total
---------------------------------------------------------------
Pair    | 0.5862     | 1.6055     | 2.0855     |  34.1 | 71.62
Neigh   | 0          | 0          | 0          |   0.0 |  0.00
Comm    | 0.035675   | 0.36192    | 1.0824     |  50.2 | 16.14
Output  | 0          | 0          | 0          |   0.0 |  0.00
Modify  | 2.2963e-05 | 0.0031438  | 0.0066909  |   2.6 |  0.14
Other   |            | 0.2712     |            |       | 12.10

Nlocal:        2776.45 ave        3955 max           0 min
Histogram: 8 4 4 0 4 12 8 2 28 34
Nghost:        3879.17 ave        5425 max         232 min
Histogram: 8 0 8 0 16 0 8 8 16 40
Neighs:        79213.5 ave      115279 max           0 min
Histogram: 8 4 4 0 10 6 8 8 24 32

Total # of neighbors = 8238206
Ave neighs/atom = 28.530485
Neighbor list builds = 0
Dangerous builds = 0
Setting atom values ...
  1 settings made for x
  1 settings made for y
  1 settings made for z
Setting up cg style minimization ...
  Unit style    : metal
  Current step  : 492
Per MPI rank memory allocation (min/avg/max) = 5.441 | 5.816 | 6.074 Mbytes
Step PotEng KinEng TotEng v_fx v_fy v_fz 
     492     -1152449            0     -1152449 -0.032123767  0.041023558 0.0098256646 
     717     -1152449            0     -1152449 2.4709374e-05 -9.5852026e-07 -1.412897e-05 
Loop time of 2.60957 on 104 procs for 225 steps with 288751 atoms

99.9% CPU use with 104 MPI tasks x 1 OpenMP threads

Minimization stats:
  Stopping criterion = energy tolerance
  Energy initial, next-to-last, final = 
     -1152448.96497929  -1152448.96892654  -1152448.96892654
  Force two-norm initial, final = 0.24467427 0.00010162814
  Force max component initial, final = 0.14545944 2.4709374e-05
  Final line search alpha, max atom move = 1.0000000 2.4709374e-05
  Iterations, force evaluations = 225 450

MPI task timing breakdown:
Section |  min time  |  avg time  |  max time  |%varavg| %total
---------------------------------------------------------------
Pair    | 0.68061    | 1.8937     | 2.4629     |  37.3 | 72.57
Neigh   | 0          | 0          | 0          |   0.0 |  0.00
Comm    | 0.038437   | 0.42537    | 1.291      |  55.0 | 16.30
Output  | 0          | 0          | 0          |   0.0 |  0.00
Modify  | 2.6866e-05 | 0.0037028  | 0.0079061  |   2.9 |  0.14
Other   |            | 0.2868     |            |       | 10.99

Nlocal:        2776.45 ave        3956 max           0 min
Histogram: 8 4 4 0 4 12 8 2 28 34
Nghost:        3879.12 ave        5425 max         232 min
Histogram: 8 0 8 0 16 0 8 8 16 40
Neighs:        79213.5 ave      115316 max           0 min
Histogram: 8 4 4 0 10 6 8 8 24 32

Total # of neighbors = 8238199
Ave neighs/atom = 28.530461
Neighbor list builds = 0
Dangerous builds = 0
The dot product: 5.51465674948012e-06
The cos of the angle between the force vector and the displacement vector: 0.193633884012647
The angle: 78.835070057956
Setting atom values ...
  1 settings made for x
  1 settings made for y
  1 settings made for z
Setting up cg style minimization ...
  Unit style    : metal
  Current step  : 717
Per MPI rank memory allocation (min/avg/max) = 5.441 | 5.816 | 6.074 Mbytes
Step PotEng KinEng TotEng v_fx v_fy v_fz 
     717     -1152449            0     -1152449 -0.049491032  0.053829099  0.013586159 
     942     -1152449            0     -1152449 1.3668135e-05 -6.8900539e-07 -4.5811805e-06 
Loop time of 2.61327 on 104 procs for 225 steps with 288751 atoms

99.9% CPU use with 104 MPI tasks x 1 OpenMP threads

Minimization stats:
  Stopping criterion = energy tolerance
  Energy initial, next-to-last, final = 
     -1152448.96057305  -1152448.96605623  -1152448.96605623
  Force two-norm initial, final = 0.2600211 5.0686695e-05
  Force max component initial, final = 0.14662181 1.3668135e-05
  Final line search alpha, max atom move = 1.0000000 1.3668135e-05
  Iterations, force evaluations = 225 450

MPI task timing breakdown:
Section |  min time  |  avg time  |  max time  |%varavg| %total
---------------------------------------------------------------
Pair    | 0.68363    | 1.891      | 2.4625     |  37.2 | 72.36
Neigh   | 0          | 0          | 0          |   0.0 |  0.00
Comm    | 0.041253   | 0.42475    | 1.281      |  54.8 | 16.25
Output  | 0          | 0          | 0          |   0.0 |  0.00
Modify  | 2.7514e-05 | 0.0037031  | 0.0078878  |   2.9 |  0.14
Other   |            | 0.2938     |            |       | 11.24

Nlocal:        2776.45 ave        3956 max           0 min
Histogram: 8 4 4 0 4 12 8 2 28 34
Nghost:        3879.17 ave        5426 max         232 min
Histogram: 8 0 8 0 16 0 8 8 16 40
Neighs:        79213.5 ave      115319 max           0 min
Histogram: 8 4 4 0 10 6 8 8 24 32

Total # of neighbors = 8238207
Ave neighs/atom = 28.530488
Neighbor list builds = 0
Dangerous builds = 0
The dot product: 4.65959699435714e-06
The cos of the angle between the force vector and the displacement vector: 0.322867783731007
The angle: 71.1635547512634
Setting atom values ...
  1 settings made for x
  1 settings made for y
  1 settings made for z
Setting up cg style minimization ...
  Unit style    : metal
  Current step  : 942
Per MPI rank memory allocation (min/avg/max) = 5.441 | 5.816 | 6.074 Mbytes
Step PotEng KinEng TotEng v_fx v_fy v_fz 
     942     -1152449            0     -1152449 -0.060327659  0.052608006 0.00013751976 
    1000     -1152449            0     -1152449 -0.0014809736 -3.4229996e-06 -9.2946514e-06 
    1174     -1152449            0     -1152449 1.0108815e-05 -1.1400852e-06 5.2058874e-08 
Loop time of 2.72714 on 104 procs for 232 steps with 288751 atoms

99.9% CPU use with 104 MPI tasks x 1 OpenMP threads

Minimization stats:
  Stopping criterion = energy tolerance
  Energy initial, next-to-last, final = 
     -1152448.95729169  -1152448.96392729  -1152448.96392729
  Force two-norm initial, final = 0.29162036 0.0001497983
  Force max component initial, final = 0.1272283 4.1577593e-05
  Final line search alpha, max atom move = 1.0000000 4.1577593e-05
  Iterations, force evaluations = 232 464

MPI task timing breakdown:
Section |  min time  |  avg time  |  max time  |%varavg| %total
---------------------------------------------------------------
Pair    | 0.70435    | 1.9607     | 2.5551     |  37.9 | 71.90
Neigh   | 0          | 0          | 0          |   0.0 |  0.00
Comm    | 0.048575   | 0.44602    | 1.3279     |  55.1 | 16.35
Output  | 0.00015066 | 0.00015852 | 0.00026194 |   0.0 |  0.01
Modify  | 2.8323e-05 | 0.0038259  | 0.0081215  |   2.9 |  0.14
Other   |            | 0.3164     |            |       | 11.60

Nlocal:        2776.45 ave        3957 max           0 min
Histogram: 8 4 4 0 4 12 8 2 28 34
Nghost:        3879.11 ave        5426 max         232 min
Histogram: 8 0 8 0 16 0 8 8 16 40
Neighs:        79213.6 ave      115359 max           0 min
Histogram: 8 4 4 0 10 6 8 8 24 32

Total # of neighbors = 8238214
Ave neighs/atom = 28.530512
Neighbor list builds = 0
Dangerous builds = 0
The dot product: 2.08997018613964e-06
The cos of the angle between the force vector and the displacement vector: 0.205442150442081
The angle: 78.1446166664822
Setting atom values ...
  1 settings made for x
  1 settings made for y
  1 settings made for z
Setting up cg style minimization ...
  Unit style    : metal
  Current step  : 1174
Per MPI rank memory allocation (min/avg/max) = 5.441 | 5.816 | 6.074 Mbytes
Step PotEng KinEng TotEng v_fx v_fy v_fz 
    1174     -1152449            0     -1152449 -0.078937313  0.047725985 -0.016137188 
    1386     -1152449            0     -1152449 7.5147801e-06 -7.4078736e-07 1.6326251e-06 
Loop time of 2.45319 on 104 procs for 212 steps with 288751 atoms

99.9% CPU use with 104 MPI tasks x 1 OpenMP threads

Minimization stats:
  Stopping criterion = energy tolerance
  Energy initial, next-to-last, final = 
     -1152448.95561329  -1152448.96112096  -1152448.96112096
  Force two-norm initial, final = 0.31907447 0.00010762915
  Force max component initial, final = 0.1624842 2.9902978e-05
  Final line search alpha, max atom move = 1.0000000 2.9902978e-05
  Iterations, force evaluations = 212 424

MPI task timing breakdown:
Section |  min time  |  avg time  |  max time  |%varavg| %total
---------------------------------------------------------------
Pair    | 0.64535    | 1.7791     | 2.3152     |  35.9 | 72.52
Neigh   | 0          | 0          | 0          |   0.0 |  0.00
Comm    | 0.039425   | 0.39839    | 1.1993     |  53.3 | 16.24
Output  | 0          | 0          | 0          |   0.0 |  0.00
Modify  | 2.5825e-05 | 0.0034907  | 0.0074808  |   2.8 |  0.14
Other   |            | 0.2722     |            |       | 11.10

Nlocal:        2776.45 ave        3958 max           0 min
Histogram: 8 4 4 0 4 12 8 2 28 34
Nghost:        3879.08 ave        5425 max         232 min
Histogram: 8 0 8 0 16 0 8 8 16 40
Neighs:        79213.6 ave      115381 max           0 min
Histogram: 8 4 4 0 10 6 8 8 24 32

Total # of neighbors = 8238213
Ave neighs/atom = 28.530509
Neighbor list builds = 0
Dangerous builds = 0
The dot product: -7.85652546387229e-08
The cos of the angle between the force vector and the displacement vector: -0.0101693627796748
The angle: 90.5826716108289
Setting atom values ...
  1 settings made for x
  1 settings made for y
  1 settings made for z
Setting up cg style minimization ...
  Unit style    : metal
  Current step  : 1386
Per MPI rank memory allocation (min/avg/max) = 5.441 | 5.816 | 6.074 Mbytes
Step PotEng KinEng TotEng v_fx v_fy v_fz 
    1386     -1152449            0     -1152449 -0.099159315   0.05168893 -0.018705846 
    1601     -1152449            0     -1152449 7.4835175e-06 -3.2630835e-07 1.5632459e-06 
Loop time of 2.51368 on 104 procs for 215 steps with 288751 atoms

99.9% CPU use with 104 MPI tasks x 1 OpenMP threads

Minimization stats:
  Stopping criterion = energy tolerance
  Energy initial, next-to-last, final = 
     -1152448.95137341  -1152448.95708681  -1152448.95708681
  Force two-norm initial, final = 0.323882 7.7202931e-05
  Force max component initial, final = 0.16296782 1.1824581e-05
  Final line search alpha, max atom move = 1.0000000 1.1824581e-05
  Iterations, force evaluations = 215 430

MPI task timing breakdown:
Section |  min time  |  avg time  |  max time  |%varavg| %total
---------------------------------------------------------------
Pair    | 0.65197    | 1.8078     | 2.3668     |  36.4 | 71.92
Neigh   | 0          | 0          | 0          |   0.0 |  0.00
Comm    | 0.03914    | 0.41133    | 1.2237     |  52.8 | 16.36
Output  | 0          | 0          | 0          |   0.0 |  0.00
Modify  | 2.622e-05  | 0.0035298  | 0.0075284  |   2.8 |  0.14
Other   |            | 0.291      |            |       | 11.58

Nlocal:        2776.45 ave        3960 max           0 min
Histogram: 8 4 4 0 4 12 8 2 28 34
Nghost:        3879.02 ave        5424 max         232 min
Histogram: 8 0 8 0 16 0 8 8 16 40
Neighs:        79213.5 ave      115435 max           0 min
Histogram: 8 4 4 0 10 6 8 8 24 32

Total # of neighbors = 8238208
Ave neighs/atom = 28.530492
Neighbor list builds = 0
Dangerous builds = 0
The dot product: -2.31249661465605e-07
The cos of the angle between the force vector and the displacement vector: -0.0302207757826606
The angle: 91.7317865796231
Setting atom values ...
  1 settings made for x
  1 settings made for y
  1 settings made for z
Setting up cg style minimization ...
  Unit style    : metal
  Current step  : 1601
Per MPI rank memory allocation (min/avg/max) = 5.441 | 5.816 | 6.074 Mbytes
Step PotEng KinEng TotEng v_fx v_fy v_fz 
    1601   -1152448.9            0   -1152448.9  -0.10945713  0.055771746 -0.016306569 
    1802     -1152449            0     -1152449 1.0232418e-06 -6.8297063e-07 1.4256845e-07 
Loop time of 2.32957 on 104 procs for 201 steps with 288751 atoms

99.9% CPU use with 104 MPI tasks x 1 OpenMP threads

Minimization stats:
  Stopping criterion = energy tolerance
  Energy initial, next-to-last, final = 
     -1152448.94643455  -1152448.95153081  -1152448.95153081
  Force two-norm initial, final = 0.32368192 0.00013108801
  Force max component initial, final = 0.15925595 2.0651922e-05
  Final line search alpha, max atom move = 1.0000000 2.0651922e-05
  Iterations, force evaluations = 201 402

MPI task timing breakdown:
Section |  min time  |  avg time  |  max time  |%varavg| %total
---------------------------------------------------------------
Pair    | 0.60811    | 1.6902     | 2.1947     |  35.2 | 72.55
Neigh   | 0          | 0          | 0          |   0.0 |  0.00
Comm    | 0.036023   | 0.3805     | 1.1463     |  52.0 | 16.33
Output  | 0          | 0          | 0          |   0.0 |  0.00
Modify  | 2.4396e-05 | 0.0033122  | 0.0076519  |   2.7 |  0.14
Other   |            | 0.2556     |            |       | 10.97

Nlocal:        2776.45 ave        3960 max           0 min
Histogram: 8 4 4 0 4 12 8 2 28 34
Nghost:        3879.07 ave        5425 max         232 min
Histogram: 8 0 8 0 16 0 8 8 16 40
Neighs:        79213.5 ave      115432 max           0 min
Histogram: 8 4 4 0 10 6 8 8 24 32

Total # of neighbors = 8238203
Ave neighs/atom = 28.530474
Neighbor list builds = 0
Dangerous builds = 0
The dot product: -6.069927476392e-08
The cos of the angle between the force vector and the displacement vector: -0.04901165272502
The angle: 92.8092863320378
Setting atom values ...
  1 settings made for x
  1 settings made for y
  1 settings made for z
Setting up cg style minimization ...
  Unit style    : metal
  Current step  : 1802
Per MPI rank memory allocation (min/avg/max) = 5.441 | 5.816 | 6.074 Mbytes
Step PotEng KinEng TotEng v_fx v_fy v_fz 
    1802   -1152448.9            0   -1152448.9  -0.12000872  0.059377897 -0.011185036 
    2000   -1152448.9            0   -1152448.9 -1.0397001e-05 1.6882401e-06 -1.247322e-06 
    2003   -1152448.9            0   -1152448.9 -3.1769099e-05 3.8265343e-06 -3.918587e-06 
Loop time of 2.34235 on 104 procs for 201 steps with 288751 atoms

99.9% CPU use with 104 MPI tasks x 1 OpenMP threads

Minimization stats:
  Stopping criterion = energy tolerance
  Energy initial, next-to-last, final = 
      -1152448.9392764   -1152448.9442501   -1152448.9442501
  Force two-norm initial, final = 0.3212587 0.00012189034
  Force max component initial, final = 0.1517686 4.4716843e-05
  Final line search alpha, max atom move = 1.0000000 4.4716843e-05
  Iterations, force evaluations = 201 402

MPI task timing breakdown:
Section |  min time  |  avg time  |  max time  |%varavg| %total
---------------------------------------------------------------
Pair    | 0.61848    | 1.6954     | 2.2063     |  35.0 | 72.38
Neigh   | 0          | 0          | 0          |   0.0 |  0.00
Comm    | 0.039693   | 0.381      | 1.1569     |  51.8 | 16.27
Output  | 0.00013541 | 0.00013919 | 0.00029458 |   0.0 |  0.01
Modify  | 2.4443e-05 | 0.003309   | 0.0070738  |   2.7 |  0.14
Other   |            | 0.2625     |            |       | 11.21

Nlocal:        2776.45 ave        3961 max           0 min
Histogram: 8 4 4 0 6 10 8 2 28 34
Nghost:        3879.07 ave        5425 max         232 min
Histogram: 8 0 8 0 16 0 8 8 16 40
Neighs:        79213.5 ave      115463 max           0 min
Histogram: 8 4 4 0 10 6 8 8 24 32

Total # of neighbors = 8238207
Ave neighs/atom = 28.530488
Neighbor list builds = 0
Dangerous builds = 0
The dot product: 1.59997283124143e-06
The cos of the angle between the force vector and the displacement vector: 0.04963039312483
The angle: 87.1552192563803
Setting atom values ...
  1 settings made for x
  1 settings made for y
  1 settings made for z
Setting up cg style minimization ...
  Unit style    : metal
  Current step  : 2003
Per MPI rank memory allocation (min/avg/max) = 5.441 | 5.816 | 6.074 Mbytes
Step PotEng KinEng TotEng v_fx v_fy v_fz 
    2003   -1152448.9            0   -1152448.9  -0.12638445  0.061233344 -0.0046052558 
    2208   -1152448.9            0   -1152448.9 -1.5830252e-05 1.721198e-06 -1.1670092e-06 
Loop time of 2.36694 on 104 procs for 205 steps with 288751 atoms

99.9% CPU use with 104 MPI tasks x 1 OpenMP threads

Minimization stats:
  Stopping criterion = energy tolerance
  Energy initial, next-to-last, final = 
     -1152448.93051945  -1152448.93517079  -1152448.93517079
  Force two-norm initial, final = 0.31707489 0.00011086091
  Force max component initial, final = 0.14244794 2.9991339e-05
  Final line search alpha, max atom move = 1.0000000 2.9991339e-05
  Iterations, force evaluations = 205 410

MPI task timing breakdown:
Section |  min time  |  avg time  |  max time  |%varavg| %total
---------------------------------------------------------------
Pair    | 0.61971    | 1.7151     | 2.2353     |  35.4 | 72.46
Neigh   | 0          | 0          | 0          |   0.0 |  0.00
Comm    | 0.037568   | 0.38498    | 1.1608     |  52.4 | 16.26
Output  | 0          | 0          | 0          |   0.0 |  0.00
Modify  | 2.5071e-05 | 0.0033745  | 0.0071855  |   2.7 |  0.14
Other   |            | 0.2635     |            |       | 11.13

Nlocal:        2776.45 ave        3961 max           0 min
Histogram: 8 4 4 0 6 10 8 2 28 34
Nghost:        3879.07 ave        5425 max         232 min
Histogram: 8 0 8 0 16 0 8 8 16 40
Neighs:        79213.5 ave      115461 max           0 min
Histogram: 8 4 4 0 10 6 8 8 24 32

Total # of neighbors = 8238203
Ave neighs/atom = 28.530474
Neighbor list builds = 0
Dangerous builds = 0
The dot product: 6.17789747156633e-07
The cos of the angle between the force vector and the displacement vector: 0.0386934658413428
The angle: 87.7824741368305
Setting atom values ...
  1 settings made for x
  1 settings made for y
  1 settings made for z
Setting up cg style minimization ...
  Unit style    : metal
  Current step  : 2208
Per MPI rank memory allocation (min/avg/max) = 5.441 | 5.816 | 6.074 Mbytes
Step PotEng KinEng TotEng v_fx v_fy v_fz 
    2208   -1152448.9            0   -1152448.9  -0.12594525  0.055682608 0.00073221798 
    2413   -1152448.9            0   -1152448.9 -7.1906044e-07 3.3157193e-08 -3.013952e-08 
Loop time of 2.38569 on 104 procs for 205 steps with 288751 atoms

99.9% CPU use with 104 MPI tasks x 1 OpenMP threads

Minimization stats:
  Stopping criterion = energy tolerance
  Energy initial, next-to-last, final = 
     -1152448.91964583  -1152448.92397793  -1152448.92397793
  Force two-norm initial, final = 0.31043421 9.6443147e-05
  Force max component initial, final = 0.13420415 1.1006542e-05
  Final line search alpha, max atom move = 1.0000000 1.1006542e-05
  Iterations, force evaluations = 205 410

MPI task timing breakdown:
Section |  min time  |  avg time  |  max time  |%varavg| %total
---------------------------------------------------------------
Pair    | 0.62752    | 1.7294     | 2.2453     |  35.4 | 72.49
Neigh   | 0          | 0          | 0          |   0.0 |  0.00
Comm    | 0.042858   | 0.3889     | 1.1816     |  52.4 | 16.30
Output  | 0          | 0          | 0          |   0.0 |  0.00
Modify  | 2.5556e-05 | 0.0033751  | 0.007248   |   2.7 |  0.14
Other   |            | 0.264      |            |       | 11.06

Nlocal:        2776.45 ave        3961 max           0 min
Histogram: 8 4 4 0 6 10 8 2 28 34
Nghost:        3879.07 ave        5425 max         232 min
Histogram: 8 0 8 0 16 0 8 8 16 40
Neighs:        79213.5 ave      115449 max           0 min
Histogram: 8 4 4 0 10 6 8 8 24 32

Total # of neighbors = 8238201
Ave neighs/atom = 28.530467
Neighbor list builds = 0
Dangerous builds = 0
The dot product: 2.07215369694123e-08
The cos of the angle between the force vector and the displacement vector: 0.0287617282215077
The angle: 88.3518470726055
Setting atom values ...
  1 settings made for x
  1 settings made for y
  1 settings made for z
Setting up cg style minimization ...
  Unit style    : metal
  Current step  : 2413
Per MPI rank memory allocation (min/avg/max) = 5.441 | 5.816 | 6.074 Mbytes
Step PotEng KinEng TotEng v_fx v_fy v_fz 
    2413   -1152448.9            0   -1152448.9   -0.1245816  0.037388289 0.0026923095 
    2612   -1152448.9            0   -1152448.9 1.8473784e-05 -3.5183362e-06 -1.2455035e-07 
Loop time of 2.38253 on 104 procs for 199 steps with 288751 atoms

99.8% CPU use with 104 MPI tasks x 1 OpenMP threads

Minimization stats:
  Stopping criterion = energy tolerance
  Energy initial, next-to-last, final = 
     -1152448.90571931  -1152448.90996848  -1152448.90996848
  Force two-norm initial, final = 0.30411549 0.000112805
  Force max component initial, final = 0.12723501 1.8473784e-05
  Final line search alpha, max atom move = 1.0000000 1.8473784e-05
  Iterations, force evaluations = 199 398

MPI task timing breakdown:
Section |  min time  |  avg time  |  max time  |%varavg| %total
---------------------------------------------------------------
Pair    | 0.60889    | 1.6787     | 2.1831     |  34.9 | 70.46
Neigh   | 0          | 0          | 0          |   0.0 |  0.00
Comm    | 0.037451   | 0.38457    | 1.1407     |  50.3 | 16.14
Output  | 0          | 0          | 0          |   0.0 |  0.00
Modify  | 2.5675e-05 | 0.0032726  | 0.0069758  |   2.7 |  0.14
Other   |            | 0.316      |            |       | 13.26

Nlocal:        2776.45 ave        3961 max           0 min
Histogram: 8 4 4 0 6 10 8 3 27 34
Nghost:        3879.08 ave        5426 max         232 min
Histogram: 8 0 8 0 16 0 8 8 16 40
Neighs:        79213.4 ave      115466 max           0 min
Histogram: 8 4 4 0 10 6 8 8 24 32

Total # of neighbors = 8238198
Ave neighs/atom = 28.530457
Neighbor list builds = 0
Dangerous builds = 0
The dot product: -4.02146520803083e-07
The cos of the angle between the force vector and the displacement vector: -0.0213836675808747
The angle: 91.2252872943937
Setting atom values ...
  1 settings made for x
  1 settings made for y
  1 settings made for z
Setting up cg style minimization ...
  Unit style    : metal
  Current step  : 2612
Per MPI rank memory allocation (min/avg/max) = 5.441 | 5.816 | 6.074 Mbytes
Step PotEng KinEng TotEng v_fx v_fy v_fz 
    2612   -1152448.9            0   -1152448.9  -0.12353227  0.027648215 0.0041237385 
    2776   -1152448.9            0   -1152448.9 6.4822086e-05 -1.3823568e-05 -2.0682753e-06 
Loop time of 1.9327 on 104 procs for 164 steps with 288751 atoms

99.9% CPU use with 104 MPI tasks x 1 OpenMP threads

Minimization stats:
  Stopping criterion = energy tolerance
  Energy initial, next-to-last, final = 
     -1152448.88867559  -1152448.89292523  -1152448.89292523
  Force two-norm initial, final = 0.30112961 0.00027762733
  Force max component initial, final = 0.12630229 6.4822086e-05
  Final line search alpha, max atom move = 1.0000000 6.4822086e-05
  Iterations, force evaluations = 164 328

MPI task timing breakdown:
Section |  min time  |  avg time  |  max time  |%varavg| %total
---------------------------------------------------------------
Pair    | 0.49903    | 1.3825     | 1.7957     |  31.7 | 71.53
Neigh   | 0          | 0          | 0          |   0.0 |  0.00
Comm    | 0.029075   | 0.31315    | 0.9459     |  46.7 | 16.20
Output  | 0          | 0          | 0          |   0.0 |  0.00
Modify  | 1.9834e-05 | 0.0026959  | 0.0057494  |   2.4 |  0.14
Other   |            | 0.2344     |            |       | 12.13

Nlocal:        2776.45 ave        3961 max           0 min
Histogram: 8 4 4 0 6 10 8 3 27 34
Nghost:        3879.12 ave        5426 max         232 min
Histogram: 8 0 8 0 16 0 8 8 16 40
Neighs:        79213.5 ave      115457 max           0 min
Histogram: 8 4 4 0 10 6 8 8 24 32

Total # of neighbors = 8238199
Ave neighs/atom = 28.530461
Neighbor list builds = 0
Dangerous builds = 0
The dot product: -8.48840427765647e-07
The cos of the angle between the force vector and the displacement vector: -0.0128007203204098
The angle: 90.7334472802714
Setting atom values ...
  1 settings made for x
  1 settings made for y
  1 settings made for z
Setting up cg style minimization ...
  Unit style    : metal
  Current step  : 2776
Per MPI rank memory allocation (min/avg/max) = 5.441 | 5.816 | 6.074 Mbytes
Step PotEng KinEng TotEng v_fx v_fy v_fz 
    2776   -1152448.9            0   -1152448.9  -0.12062028  0.021508877 0.0048552994 
    3000   -1152448.9            0   -1152448.9 1.3786819e-05 -3.376126e-06 -6.8308427e-07 
    3057   -1152448.9            0   -1152448.9 1.7284401e-07 8.2237908e-09 -1.5059292e-09 
Loop time of 3.24372 on 104 procs for 281 steps with 288751 atoms

99.9% CPU use with 104 MPI tasks x 1 OpenMP threads

Minimization stats:
  Stopping criterion = energy tolerance
  Energy initial, next-to-last, final = 
     -1152448.86869191  -1152448.87369937  -1152448.87369937
  Force two-norm initial, final = 0.2991353 5.7777701e-06
  Force max component initial, final = 0.1295134 1.1251475e-06
  Final line search alpha, max atom move = 1.0000000 1.1251475e-06
  Iterations, force evaluations = 281 562

MPI task timing breakdown:
Section |  min time  |  avg time  |  max time  |%varavg| %total
---------------------------------------------------------------
Pair    | 0.85164    | 2.3553     | 3.0642     |  41.4 | 72.61
Neigh   | 0          | 0          | 0          |   0.0 |  0.00
Comm    | 0.053539   | 0.52716    | 1.584      |  61.3 | 16.25
Output  | 0.00010578 | 0.00011473 | 0.0002719  |   0.0 |  0.00
Modify  | 3.3939e-05 | 0.0046202  | 0.0099439  |   3.2 |  0.14
Other   |            | 0.3566     |            |       | 10.99

Nlocal:        2776.45 ave        3961 max           0 min
Histogram: 8 4 4 0 6 10 8 4 26 34
Nghost:        3879.12 ave        5426 max         232 min
Histogram: 8 0 8 0 16 0 8 8 16 40
Neighs:        79213.4 ave      115448 max           0 min
Histogram: 8 4 4 0 10 6 8 8 24 32

Total # of neighbors = 8238198
Ave neighs/atom = 28.530457
Neighbor list builds = 0
Dangerous builds = 0
The dot product: 6.78937280237442e-09
The cos of the angle between the force vector and the displacement vector: 0.0392344760140541
The angle: 87.7514529799152
Setting atom values ...
  1 settings made for x
  1 settings made for y
  1 settings made for z
Setting up cg style minimization ...
  Unit style    : metal
  Current step  : 3057
Per MPI rank memory allocation (min/avg/max) = 5.441 | 5.816 | 6.074 Mbytes
Step PotEng KinEng TotEng v_fx v_fy v_fz 
    3057   -1152448.8            0   -1152448.8 -0.091194398  0.020570309 0.00059772808 
    3301   -1152448.9            0   -1152448.9 -3.188958e-07 2.8476208e-07 3.131135e-08 
Loop time of 2.83127 on 104 procs for 244 steps with 288751 atoms

99.9% CPU use with 104 MPI tasks x 1 OpenMP threads

Minimization stats:
  Stopping criterion = energy tolerance
  Energy initial, next-to-last, final = 
     -1152448.84831807  -1152448.85317701  -1152448.85317701
  Force two-norm initial, final = 0.29434836 2.7960286e-05
  Force max component initial, final = 0.12727739 5.3098843e-06
  Final line search alpha, max atom move = 1.0000000 5.3098843e-06
  Iterations, force evaluations = 244 488

MPI task timing breakdown:
Section |  min time  |  avg time  |  max time  |%varavg| %total
---------------------------------------------------------------
Pair    | 0.74406    | 2.051      | 2.6743     |  38.6 | 72.44
Neigh   | 0          | 0          | 0          |   0.0 |  0.00
Comm    | 0.04332    | 0.46173    | 1.3881     |  56.7 | 16.31
Output  | 0          | 0          | 0          |   0.0 |  0.00
Modify  | 2.9298e-05 | 0.0040086  | 0.0085493  |   3.0 |  0.14
Other   |            | 0.3145     |            |       | 11.11

Nlocal:        2776.45 ave        3961 max           0 min
Histogram: 8 4 4 0 6 10 8 4 26 34
Nghost:        3879.12 ave        5426 max         232 min
Histogram: 8 0 8 0 16 0 8 8 16 40
Neighs:        79213.4 ave      115450 max           0 min
Histogram: 8 4 4 0 10 6 8 8 24 32

Total # of neighbors = 8238193
Ave neighs/atom = 28.530440
Neighbor list builds = 0
Dangerous builds = 0
The dot product: -1.17521539845143e-08
The cos of the angle between the force vector and the displacement vector: -0.0274149093235291
The angle: 91.5709554242865
Setting atom values ...
  1 settings made for x
  1 settings made for y
  1 settings made for z
Setting up cg style minimization ...
  Unit style    : metal
  Current step  : 3301
Per MPI rank memory allocation (min/avg/max) = 5.441 | 5.816 | 6.074 Mbytes
Step PotEng KinEng TotEng v_fx v_fy v_fz 
    3301   -1152448.8            0   -1152448.8 -0.093795801  0.017522388 -0.0030750441 
    3497   -1152448.8            0   -1152448.8 -5.0748801e-05 1.0303992e-05 -1.5544735e-06 
Loop time of 2.27887 on 104 procs for 196 steps with 288751 atoms

99.9% CPU use with 104 MPI tasks x 1 OpenMP threads

Minimization stats:
  Stopping criterion = energy tolerance
  Energy initial, next-to-last, final = 
     -1152448.82505165  -1152448.82964156  -1152448.82964156
  Force two-norm initial, final = 0.29923934 0.00016893257
  Force max component initial, final = 0.13592338 5.8522036e-05
  Final line search alpha, max atom move = 1.0000000 5.8522036e-05
  Iterations, force evaluations = 196 392

MPI task timing breakdown:
Section |  min time  |  avg time  |  max time  |%varavg| %total
---------------------------------------------------------------
Pair    | 0.59718    | 1.6466     | 2.1424     |  34.6 | 72.25
Neigh   | 0          | 0          | 0          |   0.0 |  0.00
Comm    | 0.038581   | 0.37072    | 1.1157     |  51.1 | 16.27
Output  | 0          | 0          | 0          |   0.0 |  0.00
Modify  | 2.365e-05  | 0.003219   | 0.0068602  |   2.7 |  0.14
Other   |            | 0.2584     |            |       | 11.34

Nlocal:        2776.45 ave        3961 max           0 min
Histogram: 8 4 4 0 6 10 8 4 26 34
Nghost:        3879.05 ave        5425 max         232 min
Histogram: 8 0 8 0 16 0 8 8 16 40
Neighs:        79213.4 ave      115448 max           0 min
Histogram: 8 4 4 0 10 6 8 8 24 32

Total # of neighbors = 8238191
Ave neighs/atom = 28.530433
Neighbor list builds = 0
Dangerous builds = 0
The dot product: -1.56258797851141e-06
The cos of the angle between the force vector and the displacement vector: -0.0301613544901265
The angle: 91.7283804376431
Setting atom values ...
  1 settings made for x
  1 settings made for y
  1 settings made for z
Setting up cg style minimization ...
  Unit style    : metal
  Current step  : 3497
Per MPI rank memory allocation (min/avg/max) = 5.441 | 5.816 | 6.074 Mbytes
Step PotEng KinEng TotEng v_fx v_fy v_fz 
    3497   -1152448.8            0   -1152448.8 -0.094749023  0.012587095 -0.0066823451 
    3679   -1152448.8            0   -1152448.8 -5.3714866e-05 1.2499047e-05 -3.1196698e-06 
Loop time of 2.1256 on 104 procs for 182 steps with 288751 atoms

99.9% CPU use with 104 MPI tasks x 1 OpenMP threads

Minimization stats:
  Stopping criterion = energy tolerance
  Energy initial, next-to-last, final = 
     -1152448.79860093  -1152448.80311833  -1152448.80311833
  Force two-norm initial, final = 0.30283037 0.00019598312
  Force max component initial, final = 0.14420162 5.8678711e-05
  Final line search alpha, max atom move = 1.0000000 5.8678711e-05
  Iterations, force evaluations = 182 364

MPI task timing breakdown:
Section |  min time  |  avg time  |  max time  |%varavg| %total
---------------------------------------------------------------
Pair    | 0.55265    | 1.5334     | 2.0078     |  33.5 | 72.14
Neigh   | 0          | 0          | 0          |   0.0 |  0.00
Comm    | 0.031408   | 0.34493    | 1.0425     |  49.3 | 16.23
Output  | 0          | 0          | 0          |   0.0 |  0.00
Modify  | 2.2044e-05 | 0.0029938  | 0.0063851  |   2.6 |  0.14
Other   |            | 0.2442     |            |       | 11.49

Nlocal:        2776.45 ave        3961 max           0 min
Histogram: 8 4 4 0 6 10 8 4 26 34
Nghost:        3879.05 ave        5425 max         232 min
Histogram: 8 0 8 0 16 0 8 8 16 40
Neighs:        79213.4 ave      115440 max           0 min
Histogram: 8 4 4 0 10 6 8 8 24 32

Total # of neighbors = 8238191
Ave neighs/atom = 28.530433
Neighbor list builds = 0
Dangerous builds = 0
The dot product: -9.48338566884178e-07
The cos of the angle between the force vector and the displacement vector: -0.0171682033881866
The angle: 90.9837139244904
Setting atom values ...
  1 settings made for x
  1 settings made for y
  1 settings made for z
Setting up cg style minimization ...
  Unit style    : metal
  Current step  : 3679
Per MPI rank memory allocation (min/avg/max) = 5.441 | 5.816 | 6.074 Mbytes
Step PotEng KinEng TotEng v_fx v_fy v_fz 
    3679   -1152448.8            0   -1152448.8  -0.10558375  0.012325917 -0.0094618659 
    3874   -1152448.8            0   -1152448.8 7.0712212e-06 -2.6384934e-06 4.2001127e-07 
Loop time of 2.27001 on 104 procs for 195 steps with 288751 atoms

99.9% CPU use with 104 MPI tasks x 1 OpenMP threads

Minimization stats:
  Stopping criterion = energy tolerance
  Energy initial, next-to-last, final = 
     -1152448.76899104  -1152448.77332045  -1152448.77332045
  Force two-norm initial, final = 0.30792733 0.00011130184
  Force max component initial, final = 0.14874769 2.4752393e-05
  Final line search alpha, max atom move = 1.0000000 2.4752393e-05
  Iterations, force evaluations = 195 390

MPI task timing breakdown:
Section |  min time  |  avg time  |  max time  |%varavg| %total
---------------------------------------------------------------
Pair    | 0.59462    | 1.6378     | 2.1336     |  34.5 | 72.15
Neigh   | 0          | 0          | 0          |   0.0 |  0.00
Comm    | 0.034757   | 0.3694     | 1.1046     |  50.7 | 16.27
Output  | 0          | 0          | 0          |   0.0 |  0.00
Modify  | 2.3929e-05 | 0.0032038  | 0.0068429  |   2.7 |  0.14
Other   |            | 0.2596     |            |       | 11.44

Nlocal:        2776.45 ave        3961 max           0 min
Histogram: 8 4 4 0 6 10 8 4 26 34
Nghost:        3879.01 ave        5425 max         232 min
Histogram: 8 0 8 0 16 0 8 8 16 40
Neighs:        79213.4 ave      115431 max           0 min
Histogram: 8 4 4 0 10 6 8 8 24 32

Total # of neighbors = 8238189
Ave neighs/atom = 28.530426
Neighbor list builds = 0
Dangerous builds = 0
The dot product: 3.32282070742343e-08
The cos of the angle between the force vector and the displacement vector: 0.00439577980521054
The angle: 89.7481395583765
Setting atom values ...
  1 settings made for x
  1 settings made for y
  1 settings made for z
Setting up cg style minimization ...
  Unit style    : metal
  Current step  : 3874
Per MPI rank memory allocation (min/avg/max) = 5.441 | 5.816 | 6.074 Mbytes
Step PotEng KinEng TotEng v_fx v_fy v_fz 
    3874   -1152448.7            0   -1152448.7  -0.11808089  0.013328479 -0.011022392 
    4000   -1152448.7            0   -1152448.7 -0.00025768359 4.6472895e-05 -2.2103417e-05 
    4059   -1152448.7            0   -1152448.7 -2.7199538e-05 5.3515289e-06 -2.2830601e-06 
Loop time of 2.16731 on 104 procs for 185 steps with 288751 atoms

99.9% CPU use with 104 MPI tasks x 1 OpenMP threads

Minimization stats:
  Stopping criterion = energy tolerance
  Energy initial, next-to-last, final = 
     -1152448.73593006  -1152448.74004483  -1152448.74004483
  Force two-norm initial, final = 0.31179144 0.00010360234
  Force max component initial, final = 0.14940081 3.8239379e-05
  Final line search alpha, max atom move = 1.0000000 3.8239379e-05
  Iterations, force evaluations = 185 370

MPI task timing breakdown:
Section |  min time  |  avg time  |  max time  |%varavg| %total
---------------------------------------------------------------
Pair    | 0.56297    | 1.5594     | 2.0405     |  33.7 | 71.95
Neigh   | 0          | 0          | 0          |   0.0 |  0.00
Comm    | 0.039636   | 0.35403    | 1.0688     |  49.5 | 16.33
Output  | 0.00013822 | 0.00015067 | 0.00030119 |   0.0 |  0.01
Modify  | 2.2542e-05 | 0.0030464  | 0.0065574  |   2.6 |  0.14
Other   |            | 0.2507     |            |       | 11.57

Nlocal:        2776.45 ave        3960 max           0 min
Histogram: 8 4 4 0 4 12 8 4 26 34
Nghost:        3879.05 ave        5425 max         232 min
Histogram: 8 0 8 0 16 0 8 8 16 40
Neighs:        79213.3 ave      115408 max           0 min
Histogram: 8 4 4 0 10 6 8 8 24 32

Total # of neighbors = 8238188
[...]
     -1152449.19467621  -1152449.40209996  -1152449.40209996
  Force two-norm initial, final = 0.29400848 7.4523224e-05
  Force max component initial, final = 0.12676113 1.6655849e-05
  Final line search alpha, max atom move = 1.0000000 1.6655849e-05
  Iterations, force evaluations = 467 934

MPI task timing breakdown:
Section |  min time  |  avg time  |  max time  |%varavg| %total
---------------------------------------------------------------
Pair    | 1.459      | 3.9303     | 5.1082     |  52.7 | 71.98
Neigh   | 0.00010328 | 0.029492   | 0.042927   |   7.1 |  0.54
Comm    | 0.083336   | 0.88628    | 2.6404     |  78.6 | 16.23
Output  | 0          | 0          | 0          |   0.0 |  0.00
Modify  | 5.5463e-05 | 0.00769    | 0.016507   |   4.1 |  0.14
Other   |            | 0.6065     |            |       | 11.11

Nlocal:        2776.45 ave        3945 max           0 min
Histogram: 8 4 4 0 4 12 8 3 23 38
Nghost:        3879.55 ave        5429 max         232 min
Histogram: 8 0 8 0 16 0 8 8 16 40
Neighs:        79213.2 ave      114825 max           0 min
Histogram: 8 4 4 0 10 6 8 8 21 35

Total # of neighbors = 8238171
Ave neighs/atom = 28.530364
Neighbor list builds = 10
Dangerous builds = 0
The dot product: 1.85863946094575e-06
The cos of the angle between the force vector and the displacement vector: 0.379395687891281
The angle: 67.7037447976583
Setting atom values ...
  1 settings made for x
  1 settings made for y
  1 settings made for z
Setting up cg style minimization ...
  Unit style    : metal
  Current step  : 1866
Per MPI rank memory allocation (min/avg/max) = 5.441 | 5.816 | 6.074 Mbytes
Step PotEng KinEng TotEng v_fx v_fy v_fz 
    1866   -1152449.4            0   -1152449.4  -0.18929927  0.014298844   0.11162253 
    2000   -1152449.4            0   -1152449.4 -0.00032422735 4.2652439e-05 0.00019097713 
    2098   -1152449.4            0   -1152449.4 4.3858471e-06 -1.7018037e-06 -2.5705208e-06 
Loop time of 2.6956 on 104 procs for 232 steps with 288751 atoms

99.9% CPU use with 104 MPI tasks x 1 OpenMP threads

Minimization stats:
  Stopping criterion = linesearch alpha is zero
  Energy initial, next-to-last, final = 
     -1152449.41252574  -1152449.42349998  -1152449.42349998
  Force two-norm initial, final = 0.36445791 6.0281140e-05
  Force max component initial, final = 0.18929927 9.0442771e-06
  Final line search alpha, max atom move = 0.5 4.5221386e-06
  Iterations, force evaluations = 232 465

MPI task timing breakdown:
Section |  min time  |  avg time  |  max time  |%varavg| %total
---------------------------------------------------------------
Pair    | 0.70798    | 1.956      | 2.5387     |  37.7 | 72.56
Neigh   | 0          | 0          | 0          |   0.0 |  0.00
Comm    | 0.040668   | 0.44349    | 1.352      |  56.1 | 16.45
Output  | 0.00010066 | 0.00010394 | 0.00027313 |   0.0 |  0.00
Modify  | 2.737e-05  | 0.0038391  | 0.0082426  |   2.9 |  0.14
Other   |            | 0.2922     |            |       | 10.84

Nlocal:        2776.45 ave        3945 max           0 min
Histogram: 8 4 4 0 4 12 8 4 22 38
Nghost:        3879.51 ave        5429 max         232 min
Histogram: 8 0 8 0 16 0 8 8 16 40
Neighs:        79213.4 ave      114795 max           0 min
Histogram: 8 4 4 0 10 6 8 8 20 36

Total # of neighbors = 8238195
Ave neighs/atom = 28.530447
Neighbor list builds = 0
Dangerous builds = 0
The dot product: -1.38679523839756e-06
The cos of the angle between the force vector and the displacement vector: -0.258686483897157
The angle: 104.992137017389
Setting atom values ...
  1 settings made for x
  1 settings made for y
  1 settings made for z
Setting up cg style minimization ...
  Unit style    : metal
  Current step  : 2098
Per MPI rank memory allocation (min/avg/max) = 5.441 | 5.816 | 6.074 Mbytes
Step PotEng KinEng TotEng v_fx v_fy v_fz 
    2098   -1152449.4            0   -1152449.4   0.14707782 -0.015685087 -0.038884265 
    2393   -1152449.4            0   -1152449.4 -1.1405465e-06 9.1032193e-08 3.0214295e-07 
Loop time of 3.40853 on 104 procs for 295 steps with 288751 atoms

99.9% CPU use with 104 MPI tasks x 1 OpenMP threads

Minimization stats:
  Stopping criterion = energy tolerance
  Energy initial, next-to-last, final = 
     -1152449.42859305  -1152449.43480364  -1152449.43480364
  Force two-norm initial, final = 0.33951569 3.7587148e-06
  Force max component initial, final = 0.15161358 1.1405465e-06
  Final line search alpha, max atom move = 1.0000000 1.1405465e-06
  Iterations, force evaluations = 295 590

MPI task timing breakdown:
Section |  min time  |  avg time  |  max time  |%varavg| %total
---------------------------------------------------------------
Pair    | 0.89972    | 2.4763     | 3.213      |  42.4 | 72.65
Neigh   | 0          | 0          | 0          |   0.0 |  0.00
Comm    | 0.050557   | 0.55642    | 1.6964     |  63.1 | 16.32
Output  | 0          | 0          | 0          |   0.0 |  0.00
Modify  | 3.4594e-05 | 0.0048566  | 0.010369   |   3.3 |  0.14
Other   |            | 0.371      |            |       | 10.88

Nlocal:        2776.45 ave        3945 max           0 min
Histogram: 8 4 4 0 4 12 8 4 22 38
Nghost:        3879.56 ave        5428 max         232 min
Histogram: 8 0 8 0 16 0 8 8 16 40
Neighs:        79213.5 ave      114804 max           0 min
Histogram: 8 4 4 0 10 6 8 8 20 36

Total # of neighbors = 8238200
Ave neighs/atom = 28.530464
Neighbor list builds = 0
Dangerous builds = 0
The dot product: -1.3775351054037e-07
The cos of the angle between the force vector and the displacement vector: -0.116405362464752
The angle: 96.6846908402737
Setting atom values ...
  1 settings made for x
  1 settings made for y
  1 settings made for z
Setting up cg style minimization ...
  Unit style    : metal
  Current step  : 2393
Per MPI rank memory allocation (min/avg/max) = 5.441 | 5.816 | 6.074 Mbytes
Step PotEng KinEng TotEng v_fx v_fy v_fz 
    2393   -1152449.4            0   -1152449.4  0.012499115 -0.0068410303 -0.004845029 
    2589   -1152449.4            0   -1152449.4 1.2436159e-07 -4.516449e-07 -4.2298227e-08 
Loop time of 2.33027 on 104 procs for 196 steps with 288751 atoms

99.9% CPU use with 104 MPI tasks x 1 OpenMP threads

Minimization stats:
  Stopping criterion = energy tolerance
  Energy initial, next-to-last, final = 
     -1152449.43602654  -1152449.44041168  -1152449.44041168
  Force two-norm initial, final = 0.2986541 0.00010399032
  Force max component initial, final = 0.15127238 1.0721199e-05
  Final line search alpha, max atom move = 1.0000000 1.0721199e-05
  Iterations, force evaluations = 196 392

MPI task timing breakdown:
Section |  min time  |  avg time  |  max time  |%varavg| %total
---------------------------------------------------------------
Pair    | 0.60003    | 1.6527     | 2.1625     |  34.6 | 70.92
Neigh   | 0          | 0          | 0          |   0.0 |  0.00
Comm    | 0.041479   | 0.38203    | 1.1358     |  50.1 | 16.39
Output  | 0          | 0          | 0          |   0.0 |  0.00
Modify  | 2.3287e-05 | 0.0032418  | 0.0069528  |   2.7 |  0.14
Other   |            | 0.2923     |            |       | 12.54

Nlocal:        2776.45 ave        3945 max           0 min
Histogram: 8 4 4 0 4 12 8 4 22 38
Nghost:        3879.51 ave        5428 max         232 min
Histogram: 8 0 8 0 16 0 8 8 16 40
Neighs:        79213.4 ave      114824 max           0 min
Histogram: 8 4 4 0 10 6 8 8 20 36

Total # of neighbors = 8238196
Ave neighs/atom = 28.530450
Neighbor list builds = 0
Dangerous builds = 0
The dot product: -1.29694709294228e-09
The cos of the angle between the force vector and the displacement vector: -0.00275735281588957
The angle: 90.1579848791724
Setting atom values ...
  1 settings made for x
  1 settings made for y
  1 settings made for z
Setting up cg style minimization ...
  Unit style    : metal
  Current step  : 2589
Per MPI rank memory allocation (min/avg/max) = 5.441 | 5.816 | 6.074 Mbytes
Step PotEng KinEng TotEng v_fx v_fy v_fz 
    2589   -1152449.4            0   -1152449.4  0.049772118 0.0025342329 -0.018664498 
    2801   -1152449.4            0   -1152449.4 2.711924e-06 7.3733204e-07 -1.0244563e-06 
Loop time of 2.446 on 104 procs for 212 steps with 288751 atoms

99.9% CPU use with 104 MPI tasks x 1 OpenMP threads

Minimization stats:
  Stopping criterion = energy tolerance
  Energy initial, next-to-last, final = 
     -1152449.43708852  -1152449.44150803  -1152449.44150803
  Force two-norm initial, final = 0.30418123 5.5342310e-05
  Force max component initial, final = 0.14702261 3.5983073e-06
  Final line search alpha, max atom move = 1.0000000 3.5983073e-06
  Iterations, force evaluations = 212 424

MPI task timing breakdown:
Section |  min time  |  avg time  |  max time  |%varavg| %total
---------------------------------------------------------------
Pair    | 0.64817    | 1.7801     | 2.3075     |  35.9 | 72.78
Neigh   | 0          | 0          | 0          |   0.0 |  0.00
Comm    | 0.036128   | 0.39945    | 1.2105     |  53.6 | 16.33
Output  | 0          | 0          | 0          |   0.0 |  0.00
Modify  | 2.4674e-05 | 0.0034867  | 0.0074628  |   2.8 |  0.14
Other   |            | 0.263      |            |       | 10.75

Nlocal:        2776.45 ave        3945 max           0 min
Histogram: 8 4 4 0 4 12 8 4 22 38
Nghost:        3879.51 ave        5428 max         232 min
Histogram: 8 0 8 0 16 0 8 8 16 40
Neighs:        79213.5 ave      114822 max           0 min
Histogram: 8 4 4 0 10 6 8 8 20 36

Total # of neighbors = 8238199
Ave neighs/atom = 28.530461
Neighbor list builds = 0
Dangerous builds = 0
The dot product: 3.13018920703646e-08
The cos of the angle between the force vector and the displacement vector: 0.0104644125566655
The angle: 89.4004223823958
Setting atom values ...
  1 settings made for x
  1 settings made for y
  1 settings made for z
Setting up cg style minimization ...
  Unit style    : metal
  Current step  : 2801
Per MPI rank memory allocation (min/avg/max) = 5.441 | 5.816 | 6.074 Mbytes
Step PotEng KinEng TotEng v_fx v_fy v_fz 
    2801   -1152449.4            0   -1152449.4  0.051898378 0.00072313184 -0.020061155 
    2983   -1152449.4            0   -1152449.4 6.347789e-06 -3.0369695e-06 -2.4102451e-06 
Loop time of 2.12471 on 104 procs for 182 steps with 288751 atoms

99.9% CPU use with 104 MPI tasks x 1 OpenMP threads

Minimization stats:
  Stopping criterion = energy tolerance
  Energy initial, next-to-last, final = 
     -1152449.43365729  -1152449.43806594  -1152449.43806594
  Force two-norm initial, final = 0.30427715 0.00019934715
  Force max component initial, final = 0.14491952 1.2647164e-05
  Final line search alpha, max atom move = 1.0000000 1.2647164e-05
  Iterations, force evaluations = 182 364

MPI task timing breakdown:
Section |  min time  |  avg time  |  max time  |%varavg| %total
---------------------------------------------------------------
Pair    | 0.55227    | 1.5339     | 2.0062     |  33.5 | 72.19
Neigh   | 0          | 0          | 0          |   0.0 |  0.00
Comm    | 0.031989   | 0.34892    | 1.0484     |  49.3 | 16.42
Output  | 0          | 0          | 0          |   0.0 |  0.00
Modify  | 2.1719e-05 | 0.0029977  | 0.0064336  |   2.6 |  0.14
Other   |            | 0.2389     |            |       | 11.24

Nlocal:        2776.45 ave        3945 max           0 min
Histogram: 8 4 4 0 4 12 8 3 23 38
Nghost:        3879.50 ave        5428 max         232 min
Histogram: 8 0 8 0 16 0 8 8 16 40
Neighs:        79213.5 ave      114821 max           0 min
Histogram: 8 4 4 0 10 6 8 8 21 35

Total # of neighbors = 8238199
Ave neighs/atom = 28.530461
Neighbor list builds = 0
Dangerous builds = 0
The dot product: 7.77732848248187e-08
The cos of the angle between the force vector and the displacement vector: 0.0104559214652833
The angle: 89.4009089127127
Setting atom values ...
  1 settings made for x
  1 settings made for y
  1 settings made for z
Setting up cg style minimization ...
  Unit style    : metal
  Current step  : 2983
Per MPI rank memory allocation (min/avg/max) = 5.441 | 5.816 | 6.074 Mbytes
Step PotEng KinEng TotEng v_fx v_fy v_fz 
    2983   -1152449.4            0   -1152449.4  0.052563663 -0.0017884426 -0.020967639 
    3000   -1152449.4            0   -1152449.4 4.1871396e-07 -9.7249869e-05 1.1474258e-06 
    3213   -1152449.4            0   -1152449.4 1.4388505e-06 -2.1760009e-08 -5.7432496e-07 
Loop time of 2.66949 on 104 procs for 230 steps with 288751 atoms

99.9% CPU use with 104 MPI tasks x 1 OpenMP threads

Minimization stats:
  Stopping criterion = energy tolerance
  Energy initial, next-to-last, final = 
     -1152449.42571849   -1152449.4300944   -1152449.4300944
  Force two-norm initial, final = 0.30364976 2.5326968e-05
  Force max component initial, final = 0.15032866 1.7700230e-06
  Final line search alpha, max atom move = 1.0000000 1.7700230e-06
  Iterations, force evaluations = 230 460

MPI task timing breakdown:
Section |  min time  |  avg time  |  max time  |%varavg| %total
---------------------------------------------------------------
Pair    | 0.69899    | 1.9331     | 2.5151     |  37.4 | 72.42
Neigh   | 0          | 0          | 0          |   0.0 |  0.00
Comm    | 0.039544   | 0.43558    | 1.2995     |  55.5 | 16.32
Output  | 9.851e-05  | 0.00010091 | 0.00019743 |   0.0 |  0.00
Modify  | 2.7051e-05 | 0.0037877  | 0.0081449  |   2.9 |  0.14
Other   |            | 0.2969     |            |       | 11.12

Nlocal:        2776.45 ave        3945 max           0 min
Histogram: 8 4 4 0 4 12 8 2 24 38
Nghost:        3879.49 ave        5428 max         232 min
Histogram: 8 0 8 0 16 0 8 8 16 40
Neighs:        79213.4 ave      114777 max           0 min
Histogram: 8 4 4 0 10 6 8 8 21 35

Total # of neighbors = 8238198
Ave neighs/atom = 28.530457
Neighbor list builds = 0
Dangerous builds = 0
The dot product: 1.73745672434708e-08
The cos of the angle between the force vector and the displacement vector: 0.0112138016249197
The angle: 89.3574830281001
Setting atom values ...
  1 settings made for x
  1 settings made for y
  1 settings made for z
Setting up cg style minimization ...
  Unit style    : metal
  Current step  : 3213
Per MPI rank memory allocation (min/avg/max) = 5.441 | 5.816 | 6.074 Mbytes
Step PotEng KinEng TotEng v_fx v_fy v_fz 
    3213   -1152449.4            0   -1152449.4  0.051851988 -0.0050505398 -0.021320423 
    3422   -1152449.4            0   -1152449.4 -1.5142511e-05 -1.1991793e-06 6.2600648e-06 
Loop time of 2.45614 on 104 procs for 209 steps with 288751 atoms

99.9% CPU use with 104 MPI tasks x 1 OpenMP threads

Minimization stats:
  Stopping criterion = energy tolerance
  Energy initial, next-to-last, final = 
       -1152449.413268  -1152449.41760827  -1152449.41760827
  Force two-norm initial, final = 0.30268422 7.4809481e-05
  Force max component initial, final = 0.1557586 1.9215861e-05
  Final line search alpha, max atom move = 1.0000000 1.9215861e-05
  Iterations, force evaluations = 209 418

MPI task timing breakdown:
Section |  min time  |  avg time  |  max time  |%varavg| %total
---------------------------------------------------------------
Pair    | 0.64941    | 1.7672     | 2.2943     |  35.7 | 71.95
Neigh   | 0          | 0          | 0          |   0.0 |  0.00
Comm    | 0.040873   | 0.40567    | 1.2056     |  52.3 | 16.52
Output  | 0          | 0          | 0          |   0.0 |  0.00
Modify  | 2.489e-05  | 0.0034458  | 0.0074383  |   2.8 |  0.14
Other   |            | 0.2798     |            |       | 11.39

Nlocal:        2776.45 ave        3945 max           0 min
Histogram: 8 4 4 0 4 12 8 2 24 38
Nghost:        3879.51 ave        5428 max         232 min
Histogram: 8 0 8 0 16 0 8 8 16 40
Neighs:        79213.5 ave      114764 max           0 min
Histogram: 8 4 4 0 10 6 8 8 22 34

Total # of neighbors = 8238206
Ave neighs/atom = 28.530485
Neighbor list builds = 0
Dangerous builds = 0
The dot product: -1.73422904926596e-07
The cos of the angle between the force vector and the displacement vector: -0.0105557049306352
The angle: 90.6048085742539
Setting atom values ...
  1 settings made for x
  1 settings made for y
  1 settings made for z
Setting up cg style minimization ...
  Unit style    : metal
  Current step  : 3422
Per MPI rank memory allocation (min/avg/max) = 5.441 | 5.816 | 6.074 Mbytes
Step PotEng KinEng TotEng v_fx v_fy v_fz 
    3422   -1152449.4            0   -1152449.4  0.050212131 -0.0094590573 -0.021227554 
    3715   -1152449.4            0   -1152449.4 -2.8092766e-08 5.4575783e-09 1.1874512e-08 
Loop time of 3.38568 on 104 procs for 293 steps with 288751 atoms

99.9% CPU use with 104 MPI tasks x 1 OpenMP threads

Minimization stats:
  Stopping criterion = energy tolerance
  Energy initial, next-to-last, final = 
     -1152449.39634708  -1152449.40064728  -1152449.40064728
  Force two-norm initial, final = 0.30168923 2.9835773e-06
  Force max component initial, final = 0.16111693 6.1535429e-07
  Final line search alpha, max atom move = 1.0000000 6.1535429e-07
  Iterations, force evaluations = 293 586

MPI task timing breakdown:
Section |  min time  |  avg time  |  max time  |%varavg| %total
---------------------------------------------------------------
Pair    | 0.89242    | 2.4621     | 3.1891     |  42.2 | 72.72
Neigh   | 0          | 0          | 0          |   0.0 |  0.00
Comm    | 0.050559   | 0.55256    | 1.6737     |  63.0 | 16.32
Output  | 0          | 0          | 0          |   0.0 |  0.00
Modify  | 3.5026e-05 | 0.0048299  | 0.010343   |   3.3 |  0.14
Other   |            | 0.3662     |            |       | 10.82

Nlocal:        2776.45 ave        3945 max           0 min
Histogram: 8 4 4 0 4 12 8 2 24 38
Nghost:        3879.51 ave        5428 max         232 min
Histogram: 8 0 8 0 16 0 8 8 16 40
Neighs:        79213.6 ave      114766 max           0 min
Histogram: 8 4 4 0 10 6 8 8 22 34

Total # of neighbors = 8238211
Ave neighs/atom = 28.530502
Neighbor list builds = 0
Dangerous builds = 0
The dot product: -3.09342783245688e-10
The cos of the angle between the force vector and the displacement vector: -0.00998403344338526
The angle: 90.5720524828788
Setting up cg style minimization ...
  Unit style    : metal
  Current step  : 3715
Per MPI rank memory allocation (min/avg/max) = 5.441 | 5.816 | 6.074 Mbytes
Step PotEng KinEng TotEng v_fx v_fy v_fz 
    3715   -1152449.4            0   -1152449.4  -0.25019524 -0.0068147805  -0.58878065 
    3997   -1152449.4            0   -1152449.4 2.1551128e-06 -5.930947e-08 4.1098373e-06 
Loop time of 3.31619 on 104 procs for 282 steps with 288751 atoms

99.9% CPU use with 104 MPI tasks x 1 OpenMP threads

Minimization stats:
  Stopping criterion = energy tolerance
  Energy initial, next-to-last, final = 
     -1152449.40064728  -1152449.44165891  -1152449.44165891
  Force two-norm initial, final = 0.63977086 1.7764586e-05
  Force max component initial, final = 0.58878065 4.1098373e-06
  Final line search alpha, max atom move = 1.0000000 4.1098373e-06
  Iterations, force evaluations = 282 564

MPI task timing breakdown:
Section |  min time  |  avg time  |  max time  |%varavg| %total
---------------------------------------------------------------
Pair    | 0.86233    | 2.3748     | 3.1268     |  41.6 | 71.61
Neigh   | 1.0262e-05 | 0.0029536  | 0.0042922  |   2.2 |  0.09
Comm    | 0.049082   | 0.54758    | 1.6138     |  60.4 | 16.51
Output  | 0          | 0          | 0          |   0.0 |  0.00
Modify  | 3.141e-05  | 0.0030241  | 0.0078076  |   3.5 |  0.09
Other   |            | 0.3879     |            |       | 11.70

Nlocal:        2776.45 ave        3945 max           0 min
Histogram: 8 4 4 0 4 12 8 2 24 38
Nghost:        3879.36 ave        5427 max         232 min
Histogram: 8 0 8 0 16 0 8 8 16 40
Neighs:        79213.6 ave      114773 max           0 min
Histogram: 8 4 4 0 10 6 8 8 22 34

Total # of neighbors = 8238213
Ave neighs/atom = 28.530509
Neighbor list builds = 1
Dangerous builds = 0
