LAMMPS (29 Oct 2020)
OMP_NUM_THREADS environment is not set. Defaulting to 1 thread. (../comm.cpp:94)
  using 1 OpenMP thread(s) per MPI task
OMP_NUM_THREADS environment is not set. Defaulting to 1 thread. (../comm.cpp:94)
  using 1 OpenMP thread(s) per MPI task
Reading data file ...
  orthogonal box = (-122.39241 -121.13707 -37.090501) to (122.39241 121.13707 37.090501)
  13 by 4 by 1 MPI processor grid
  reading atoms ...
  288751 atoms
  read_data CPU = 0.427 seconds
199981 atoms in group inner
88770 atoms in group outer
1 atoms in group carbon
Neighbor list info ...
  update every 1 steps, delay 0 steps, check yes
  max neighbors/atom: 2000, page size: 100000
  master list distance cutoff = 5.6
  ghost atom cutoff = 5.6
  binsize = 2.8, bins = 88 87 27
  1 neighbor lists, perpetual/occasional/extra = 1 0 0
  (1) pair eam/alloy, perpetual
      attributes: half, newton on
      pair build: half/bin/atomonly/newton
      stencil: half/bin/3d/newton
      bin: standard
Setting up cg style minimization ...
  Unit style    : metal
  Current step  : 0
Per MPI rank memory allocation (min/avg/max) = 5.465 | 6.344 | 6.728 Mbytes
Step v_fx v_fy v_fz PotEng KinEng TotEng 
       0   0.52226071   0.23562904   0.35311214   -1152447.8            0   -1152447.8 
     157 -5.485669e-06 7.082844e-06 -2.9318961e-05   -1152449.5            0   -1152449.5 
Loop time of 3.5172 on 52 procs for 157 steps with 288751 atoms

99.8% CPU use with 52 MPI tasks x 1 OpenMP threads

Minimization stats:
  Stopping criterion = linesearch alpha is zero
  Energy initial, next-to-last, final = 
     -1152447.84003184  -1152449.45035269  -1152449.45035269
  Force two-norm initial, final = 9.7345696 0.00015068887
  Force max component initial, final = 4.2335465 3.6934438e-05
  Final line search alpha, max atom move = 0.5 1.8467219e-05
  Iterations, force evaluations = 157 314

MPI task timing breakdown:
Section |  min time  |  avg time  |  max time  |%varavg| %total
---------------------------------------------------------------
Pair    | 0.909      | 2.5172     | 3.2934     |  43.4 | 71.57
Neigh   | 4.4958e-05 | 0.013031   | 0.019504   |   4.8 |  0.37
Comm    | 0.054036   | 0.56883    | 1.7714     |  66.6 | 16.17
Output  | 0          | 0          | 0          |   0.0 |  0.00
Modify  | 4.8052e-05 | 0.0035181  | 0.0088081  |   3.5 |  0.10
Other   |            | 0.4147     |            |       | 11.79

Nlocal:        5552.90 ave        7916 max           0 min
Histogram: 4 2 2 0 2 6 4 1 14 17
Nghost:        6213.54 ave        8769 max         412 min
Histogram: 4 0 4 0 8 0 4 5 7 20
Neighs:       158427.0 ave      230754 max           0 min
Histogram: 4 2 2 0 5 3 4 4 12 16

Total # of neighbors = 8238197
Ave neighs/atom = 28.530454
Neighbor list builds = 2
Dangerous builds = 1
Setting atom values ...
  1 settings made for x
  1 settings made for y
  1 settings made for z
Setting up cg style minimization ...
  Unit style    : metal
  Current step  : 157
Per MPI rank memory allocation (min/avg/max) = 5.465 | 6.344 | 6.728 Mbytes
Step PotEng KinEng TotEng v_fx v_fy v_fz 
     157   -1152449.4            0   -1152449.4  0.039888537 0.0093236479 -0.052240501 
     349   -1152449.4            0   -1152449.4 -7.3715769e-07 -2.8872774e-07 7.443927e-07 
Loop time of 4.28917 on 52 procs for 192 steps with 288751 atoms

99.8% CPU use with 52 MPI tasks x 1 OpenMP threads

Minimization stats:
  Stopping criterion = energy tolerance
  Energy initial, next-to-last, final = 
     -1152449.44472912  -1152449.44870498  -1152449.44870498
  Force two-norm initial, final = 0.30398578 0.00012149269
  Force max component initial, final = 0.14710538 1.7665880e-05
  Final line search alpha, max atom move = 1.0000000 1.7665880e-05
  Iterations, force evaluations = 192 384

MPI task timing breakdown:
Section |  min time  |  avg time  |  max time  |%varavg| %total
---------------------------------------------------------------
Pair    | 1.0938     | 3.0655     | 4.0117     |  48.3 | 71.47
Neigh   | 0          | 0          | 0          |   0.0 |  0.00
Comm    | 0.062258   | 0.68918    | 2.1412     |  73.4 | 16.07
Output  | 0          | 0          | 0          |   0.0 |  0.00
Modify  | 7.4031e-05 | 0.0065412  | 0.013775   |   3.7 |  0.15
Other   |            | 0.5279     |            |       | 12.31

Nlocal:        5552.90 ave        7913 max           0 min
Histogram: 4 2 2 0 2 6 4 1 14 17
Nghost:        6213.54 ave        8769 max         412 min
Histogram: 4 0 4 0 8 0 4 5 7 20
Neighs:       158427.0 ave      230670 max           0 min
Histogram: 4 2 2 0 5 3 4 4 12 16

Total # of neighbors = 8238198
Ave neighs/atom = 28.530457
Neighbor list builds = 0
Dangerous builds = 0
Setting atom values ...
  1 settings made for x
  1 settings made for y
  1 settings made for z
Setting up cg style minimization ...
  Unit style    : metal
  Current step  : 349
Per MPI rank memory allocation (min/avg/max) = 5.465 | 6.344 | 6.728 Mbytes
Step PotEng KinEng TotEng v_fx v_fy v_fz 
     349   -1152449.4            0   -1152449.4  0.035809398  0.022099999 -0.046938551 
     458   -1152449.4            0   -1152449.4 4.1363277e-06 1.1540957e-06 -8.8742758e-06 
Loop time of 2.42443 on 52 procs for 109 steps with 288751 atoms

99.8% CPU use with 52 MPI tasks x 1 OpenMP threads

Minimization stats:
  Stopping criterion = energy tolerance
  Energy initial, next-to-last, final = 
     -1152449.44388088   -1152449.4457587   -1152449.4457587
  Force two-norm initial, final = 0.20979822 0.00023262381
  Force max component initial, final = 0.096648118 3.9258728e-05
  Final line search alpha, max atom move = 1.0000000 3.9258728e-05
  Iterations, force evaluations = 109 218

MPI task timing breakdown:
Section |  min time  |  avg time  |  max time  |%varavg| %total
---------------------------------------------------------------
Pair    | 0.61049    | 1.7362     | 2.2758     |  36.6 | 71.61
Neigh   | 0          | 0          | 0          |   0.0 |  0.00
Comm    | 0.032883   | 0.38827    | 1.2177     |  55.9 | 16.01
Output  | 0          | 0          | 0          |   0.0 |  0.00
Modify  | 3.9882e-05 | 0.003684   | 0.0077878  |   2.8 |  0.15
Other   |            | 0.2963     |            |       | 12.22

Nlocal:        5552.90 ave        7912 max           0 min
Histogram: 4 2 2 0 2 6 4 0 15 17
Nghost:        6213.54 ave        8769 max         412 min
Histogram: 4 0 4 0 8 0 4 5 7 20
Neighs:       158427.0 ave      230645 max           0 min
Histogram: 4 2 2 0 5 3 4 4 12 16

Total # of neighbors = 8238201
Ave neighs/atom = 28.530467
Neighbor list builds = 0
Dangerous builds = 0
The dot product: 5.11983225125121e-08
Setting atom values ...
  1 settings made for x
  1 settings made for y
  1 settings made for z
Setting up cg style minimization ...
  Unit style    : metal
  Current step  : 458
Per MPI rank memory allocation (min/avg/max) = 5.465 | 6.344 | 6.728 Mbytes
Step PotEng KinEng TotEng v_fx v_fy v_fz 
     458   -1152449.4            0   -1152449.4  0.034069068  0.032551711 -0.046207303 
     605   -1152449.4            0   -1152449.4 6.1046393e-07 -2.8584843e-07 -3.6358667e-06 
Loop time of 3.28792 on 52 procs for 147 steps with 288751 atoms

99.9% CPU use with 52 MPI tasks x 1 OpenMP threads

Minimization stats:
  Stopping criterion = linesearch alpha is zero
  Energy initial, next-to-last, final = 
     -1152449.43953397  -1152449.44134136  -1152449.44134136
  Force two-norm initial, final = 0.20560173 3.6536104e-05
  Force max component initial, final = 0.091181015 3.6358667e-06
  Final line search alpha, max atom move = 0.5 1.8179333e-06
  Iterations, force evaluations = 147 295

MPI task timing breakdown:
Section |  min time  |  avg time  |  max time  |%varavg| %total
---------------------------------------------------------------
Pair    | 0.84187    | 2.3582     | 3.0849     |  42.3 | 71.72
Neigh   | 0          | 0          | 0          |   0.0 |  0.00
Comm    | 0.049031   | 0.52698    | 1.6443     |  64.8 | 16.03
Output  | 0          | 0          | 0          |   0.0 |  0.00
Modify  | 5.4765e-05 | 0.0050203  | 0.010524   |   3.2 |  0.15
Other   |            | 0.3977     |            |       | 12.10

Nlocal:        5552.90 ave        7911 max           0 min
Histogram: 4 2 2 0 2 6 4 0 15 17
Nghost:        6213.54 ave        8769 max         412 min
Histogram: 4 0 4 0 8 0 4 5 7 20
Neighs:       158427.0 ave      230609 max           0 min
Histogram: 4 2 2 0 5 3 4 4 12 16

Total # of neighbors = 8238204
Ave neighs/atom = 28.530478
Neighbor list builds = 0
Dangerous builds = 0
The dot product: 1.45476722575475e-08
Setting atom values ...
  1 settings made for x
  1 settings made for y
  1 settings made for z
Setting up cg style minimization ...
  Unit style    : metal
  Current step  : 605
Per MPI rank memory allocation (min/avg/max) = 5.465 | 6.344 | 6.728 Mbytes
Step PotEng KinEng TotEng v_fx v_fy v_fz 
     605   -1152449.4            0   -1152449.4  0.030786239  0.039047138 -0.042551694 
     749   -1152449.4            0   -1152449.4 -1.1416126e-06 -9.7049005e-07 3.5853069e-06 
Loop time of 3.2117 on 52 procs for 144 steps with 288751 atoms

99.9% CPU use with 52 MPI tasks x 1 OpenMP threads

Minimization stats:
  Stopping criterion = linesearch alpha is zero
  Energy initial, next-to-last, final = 
     -1152449.43366874  -1152449.43540842  -1152449.43540842
  Force two-norm initial, final = 0.20104238 5.2964558e-05
  Force max component initial, final = 0.086288084 7.9999847e-06
  Final line search alpha, max atom move = 0.5 3.9999924e-06
  Iterations, force evaluations = 144 289

MPI task timing breakdown:
Section |  min time  |  avg time  |  max time  |%varavg| %total
---------------------------------------------------------------
Pair    | 0.81945    | 2.3045     | 3.0165     |  41.9 | 71.75
Neigh   | 0          | 0          | 0          |   0.0 |  0.00
Comm    | 0.043817   | 0.5148     | 1.6099     |  64.1 | 16.03
Output  | 0          | 0          | 0          |   0.0 |  0.00
Modify  | 5.694e-05  | 0.0048863  | 0.010308   |   3.2 |  0.15
Other   |            | 0.3875     |            |       | 12.07

Nlocal:        5552.90 ave        7910 max           0 min
Histogram: 4 2 2 0 2 6 4 0 15 17
Nghost:        6213.54 ave        8769 max         412 min
Histogram: 4 0 4 0 8 0 4 5 7 20
Neighs:       158427.0 ave      230566 max           0 min
Histogram: 4 2 2 0 5 3 4 4 12 16

Total # of neighbors = 8238202
Ave neighs/atom = 28.530471
Neighbor list builds = 0
Dangerous builds = 0
The dot product: -1.89336045212176e-08
Setting atom values ...
  1 settings made for x
  1 settings made for y
  1 settings made for z
Setting up cg style minimization ...
  Unit style    : metal
  Current step  : 749
Per MPI rank memory allocation (min/avg/max) = 5.465 | 6.344 | 6.728 Mbytes
Step PotEng KinEng TotEng v_fx v_fy v_fz 
     749   -1152449.4            0   -1152449.4  0.027819895  0.043290865 -0.038766791 
     897   -1152449.4            0   -1152449.4 2.3033839e-06 1.5219163e-06 -1.4375065e-05 
Loop time of 3.31164 on 52 procs for 148 steps with 288751 atoms

99.8% CPU use with 52 MPI tasks x 1 OpenMP threads

Minimization stats:
  Stopping criterion = energy tolerance
  Energy initial, next-to-last, final = 
     -1152449.42623549  -1152449.42792127  -1152449.42792127
  Force two-norm initial, final = 0.19697194 7.2935969e-05
  Force max component initial, final = 0.082073576 1.4375065e-05
  Final line search alpha, max atom move = 1.0000000 1.4375065e-05
  Iterations, force evaluations = 148 296

MPI task timing breakdown:
Section |  min time  |  avg time  |  max time  |%varavg| %total
---------------------------------------------------------------
Pair    | 0.83913    | 2.358      | 3.0907     |  42.4 | 71.20
Neigh   | 0          | 0          | 0          |   0.0 |  0.00
Comm    | 0.044449   | 0.53223    | 1.6503     |  64.2 | 16.07
Output  | 0          | 0          | 0          |   0.0 |  0.00
Modify  | 4.7776e-05 | 0.0050202  | 0.010532   |   3.2 |  0.15
Other   |            | 0.4164     |            |       | 12.57

Nlocal:        5552.90 ave        7907 max           0 min
Histogram: 4 2 2 0 2 6 4 0 15 17
Nghost:        6213.54 ave        8769 max         412 min
Histogram: 4 0 4 0 8 0 4 5 7 20
Neighs:       158427.0 ave      230460 max           0 min
Histogram: 4 2 2 0 5 3 4 4 12 16

Total # of neighbors = 8238199
Ave neighs/atom = 28.530461
Neighbor list builds = 0
Dangerous builds = 0
The dot product: 5.2271865400421e-08
Setting atom values ...
  1 settings made for x
  1 settings made for y
  1 settings made for z
Setting up cg style minimization ...
  Unit style    : metal
  Current step  : 897
Per MPI rank memory allocation (min/avg/max) = 5.465 | 6.344 | 6.728 Mbytes
Step PotEng KinEng TotEng v_fx v_fy v_fz 
     897   -1152449.4            0   -1152449.4  0.025567093  0.046647398 -0.036165782 
    1000   -1152449.4            0   -1152449.4 -2.2593032e-06 -1.1484705e-06 2.3795431e-05 
    1056   -1152449.4            0   -1152449.4 2.6420675e-06 3.8994197e-06 -1.0117816e-05 
Loop time of 3.54663 on 52 procs for 159 steps with 288751 atoms

99.9% CPU use with 52 MPI tasks x 1 OpenMP threads

Minimization stats:
  Stopping criterion = linesearch alpha is zero
  Energy initial, next-to-last, final = 
     -1152449.41720894  -1152449.41885385  -1152449.41885385
  Force two-norm initial, final = 0.19368539 8.4723615e-05
  Force max component initial, final = 0.078471659 1.0117816e-05
  Final line search alpha, max atom move = 0.5 5.0589082e-06
  Iterations, force evaluations = 159 319

MPI task timing breakdown:
Section |  min time  |  avg time  |  max time  |%varavg| %total
---------------------------------------------------------------
Pair    | 0.89585    | 2.5377     | 3.3314     |  44.1 | 71.55
Neigh   | 0          | 0          | 0          |   0.0 |  0.00
Comm    | 0.054879   | 0.5688     | 1.7801     |  67.3 | 16.04
Output  | 0.00037266 | 0.00037668 | 0.00053545 |   0.0 |  0.01
Modify  | 6.2763e-05 | 0.0053975  | 0.011364   |   3.4 |  0.15
Other   |            | 0.4344     |            |       | 12.25

Nlocal:        5552.90 ave        7906 max           0 min
Histogram: 4 2 2 0 2 6 4 0 15 17
Nghost:        6213.54 ave        8769 max         412 min
Histogram: 4 0 4 0 8 0 4 5 7 20
Neighs:       158427.0 ave      230424 max           0 min
Histogram: 4 2 2 0 5 3 4 4 12 16

Total # of neighbors = 8238201
Ave neighs/atom = 28.530467
Neighbor list builds = 0
Dangerous builds = 0
The dot product: 4.86060530585256e-08
Setting atom values ...
  1 settings made for x
  1 settings made for y
  1 settings made for z
Setting up cg style minimization ...
  Unit style    : metal
  Current step  : 1056
Per MPI rank memory allocation (min/avg/max) = 5.465 | 6.344 | 6.728 Mbytes
Step PotEng KinEng TotEng v_fx v_fy v_fz 
    1056   -1152449.4            0   -1152449.4  0.023977448  0.050046343 -0.035144699 
    1203   -1152449.4            0   -1152449.4 2.5987723e-06 8.2032098e-06 2.1155708e-05 
Loop time of 3.25882 on 52 procs for 147 steps with 288751 atoms

99.9% CPU use with 52 MPI tasks x 1 OpenMP threads

Minimization stats:
  Stopping criterion = energy tolerance
  Energy initial, next-to-last, final = 
     -1152449.40657912  -1152449.40819446  -1152449.40819446
  Force two-norm initial, final = 0.19116298 8.6250752e-05
  Force max component initial, final = 0.075164977 2.1155708e-05
  Final line search alpha, max atom move = 1.0000000 2.1155708e-05
  Iterations, force evaluations = 147 294

MPI task timing breakdown:
Section |  min time  |  avg time  |  max time  |%varavg| %total
---------------------------------------------------------------
Pair    | 0.84056    | 2.3438     | 3.0683     |  42.1 | 71.92
Neigh   | 0          | 0          | 0          |   0.0 |  0.00
Comm    | 0.043834   | 0.52365    | 1.6505     |  64.8 | 16.07
Output  | 0          | 0          | 0          |   0.0 |  0.00
Modify  | 5.2534e-05 | 0.0050122  | 0.010521   |   3.2 |  0.15
Other   |            | 0.3863     |            |       | 11.85

Nlocal:        5552.90 ave        7904 max           0 min
Histogram: 4 2 2 0 2 6 4 0 15 17
Nghost:        6213.54 ave        8769 max         412 min
Histogram: 4 0 4 0 8 0 4 5 7 20
Neighs:       158427.0 ave      230366 max           0 min
Histogram: 4 2 2 0 5 3 4 4 12 16

Total # of neighbors = 8238201
Ave neighs/atom = 28.530467
Neighbor list builds = 0
Dangerous builds = 0
The dot product: -1.42245231216488e-09
Setting atom values ...
  1 settings made for x
  1 settings made for y
  1 settings made for z
Setting up cg style minimization ...
  Unit style    : metal
  Current step  : 1203
Per MPI rank memory allocation (min/avg/max) = 5.465 | 6.344 | 6.728 Mbytes
Step PotEng KinEng TotEng v_fx v_fy v_fz 
    1203   -1152449.4            0   -1152449.4  0.022926354  0.054254752 -0.035844216 
    1317   -1152449.4            0   -1152449.4 9.5261176e-06 1.9700563e-05 -5.0247246e-05 
Loop time of 2.52885 on 52 procs for 114 steps with 288751 atoms

99.9% CPU use with 52 MPI tasks x 1 OpenMP threads

Minimization stats:
  Stopping criterion = energy tolerance
  Energy initial, next-to-last, final = 
     -1152449.39434916  -1152449.39594895  -1152449.39594895
  Force two-norm initial, final = 0.18945184 0.00024518321
  Force max component initial, final = 0.071863376 5.0247246e-05
  Final line search alpha, max atom move = 1.0000000 5.0247246e-05
  Iterations, force evaluations = 114 228

MPI task timing breakdown:
Section |  min time  |  avg time  |  max time  |%varavg| %total
---------------------------------------------------------------
Pair    | 0.63866    | 1.8169     | 2.3815     |  37.4 | 71.85
Neigh   | 0          | 0          | 0          |   0.0 |  0.00
Comm    | 0.034268   | 0.40462    | 1.2696     |  57.3 | 16.00
Output  | 0          | 0          | 0          |   0.0 |  0.00
Modify  | 4.3106e-05 | 0.0038483  | 0.0081125  |   2.8 |  0.15
Other   |            | 0.3035     |            |       | 12.00

Nlocal:        5552.90 ave        7902 max           0 min
Histogram: 4 2 2 0 2 6 4 0 15 17
Nghost:        6213.54 ave        8769 max         412 min
Histogram: 4 0 4 0 8 0 4 5 7 20
Neighs:       158427.0 ave      230305 max           0 min
Histogram: 4 2 2 0 5 3 4 4 12 16

Total # of neighbors = 8238197
Ave neighs/atom = 28.530454
Neighbor list builds = 0
Dangerous builds = 0
The dot product: 2.57769572206158e-07
Setting atom values ...
  1 settings made for x
  1 settings made for y
  1 settings made for z
Setting up cg style minimization ...
  Unit style    : metal
  Current step  : 1317
Per MPI rank memory allocation (min/avg/max) = 5.465 | 6.344 | 6.728 Mbytes
Step PotEng KinEng TotEng v_fx v_fy v_fz 
    1317   -1152449.4            0   -1152449.4  0.022252934   0.06005901 -0.038534746 
    1449   -1152449.4            0   -1152449.4 4.3834453e-06 1.1285733e-05 -1.9494605e-05 
Loop time of 2.94681 on 52 procs for 132 steps with 288751 atoms

99.9% CPU use with 52 MPI tasks x 1 OpenMP threads

Minimization stats:
  Stopping criterion = energy tolerance
  Energy initial, next-to-last, final = 
     -1152449.38054495  -1152449.38215136  -1152449.38215136
  Force two-norm initial, final = 0.18883737 0.00015468078
  Force max component initial, final = 0.068324409 2.2537877e-05
  Final line search alpha, max atom move = 1.0000000 2.2537877e-05
  Iterations, force evaluations = 132 264

MPI task timing breakdown:
Section |  min time  |  avg time  |  max time  |%varavg| %total
---------------------------------------------------------------
Pair    | 0.75529    | 2.1123     | 2.7722     |  40.1 | 71.68
Neigh   | 0          | 0          | 0          |   0.0 |  0.00
Comm    | 0.039483   | 0.47264    | 1.4671     |  61.2 | 16.04
Output  | 0          | 0          | 0          |   0.0 |  0.00
Modify  | 4.4872e-05 | 0.0045053  | 0.0094543  |   3.1 |  0.15
Other   |            | 0.3574     |            |       | 12.13

Nlocal:        5552.90 ave        7902 max           0 min
Histogram: 4 2 2 0 2 6 4 0 15 17
Nghost:        6213.54 ave        8769 max         412 min
Histogram: 4 0 4 0 8 0 4 5 7 20
Neighs:       158427.0 ave      230294 max           0 min
Histogram: 4 2 2 0 5 3 4 4 12 16

Total # of neighbors = 8238198
Ave neighs/atom = 28.530457
Neighbor list builds = 0
Dangerous builds = 0
The dot product: 1.50568839359544e-07
Setting atom values ...
  1 settings made for x
  1 settings made for y
  1 settings made for z
Setting up cg style minimization ...
  Unit style    : metal
  Current step  : 1449
Per MPI rank memory allocation (min/avg/max) = 5.465 | 6.344 | 6.728 Mbytes
Step PotEng KinEng TotEng v_fx v_fy v_fz 
    1449   -1152449.4            0   -1152449.4  0.022073917  0.069827209 -0.045417634 
    1568   -1152449.4            0   -1152449.4 2.1416228e-06 6.6275117e-06 4.0387667e-05 
Loop time of 2.65218 on 52 procs for 119 steps with 288751 atoms

99.9% CPU use with 52 MPI tasks x 1 OpenMP threads

Minimization stats:
  Stopping criterion = energy tolerance
  Energy initial, next-to-last, final = 
     -1152449.36523677  -1152449.36693744  -1152449.36693744
  Force two-norm initial, final = 0.19066978 0.0002521899
  Force max component initial, final = 0.069827209 4.0387667e-05
  Final line search alpha, max atom move = 1.0000000 4.0387667e-05
  Iterations, force evaluations = 119 238

MPI task timing breakdown:
Section |  min time  |  avg time  |  max time  |%varavg| %total
---------------------------------------------------------------
Pair    | 0.67228    | 1.8991     | 2.4821     |  38.1 | 71.60
Neigh   | 0          | 0          | 0          |   0.0 |  0.00
Comm    | 0.040778   | 0.42344    | 1.3288     |  58.6 | 15.97
Output  | 0          | 0          | 0          |   0.0 |  0.00
Modify  | 4.4555e-05 | 0.0040196  | 0.0084642  |   2.9 |  0.15
Other   |            | 0.3256     |            |       | 12.28

Nlocal:        5552.90 ave        7902 max           0 min
Histogram: 4 2 2 0 2 6 4 0 15 17
Nghost:        6213.54 ave        8769 max         412 min
Histogram: 4 0 4 0 8 0 4 5 7 20
Neighs:       158427.0 ave      230294 max           0 min
Histogram: 4 2 2 0 5 3 4 4 12 16

Total # of neighbors = 8238196
Ave neighs/atom = 28.530450
Neighbor list builds = 0
Dangerous builds = 0
The dot product: -1.63602581441774e-07
Setting atom values ...
  1 settings made for x
  1 settings made for y
  1 settings made for z
Setting up cg style minimization ...
  Unit style    : metal
  Current step  : 1568
Per MPI rank memory allocation (min/avg/max) = 5.465 | 6.344 | 6.728 Mbytes
Step PotEng KinEng TotEng v_fx v_fy v_fz 
    1568   -1152449.3            0   -1152449.3  0.022099612  0.092441349 -0.064398665 
    1714   -1152449.4            0   -1152449.4 -4.2186088e-06 -1.1398253e-05 -4.1538187e-05 
Loop time of 3.23673 on 52 procs for 146 steps with 288751 atoms

99.9% CPU use with 52 MPI tasks x 1 OpenMP threads

Minimization stats:
  Stopping criterion = energy tolerance
  Energy initial, next-to-last, final = 
     -1152449.34877251  -1152449.35244118  -1152449.35244118
  Force two-norm initial, final = 0.20201768 0.00031032045
  Force max component initial, final = 0.092441349 5.3156362e-05
  Final line search alpha, max atom move = 1.0000000 5.3156362e-05
  Iterations, force evaluations = 146 292

MPI task timing breakdown:
Section |  min time  |  avg time  |  max time  |%varavg| %total
---------------------------------------------------------------
Pair    | 0.81645    | 2.3212     | 3.045      |  42.3 | 71.71
Neigh   | 0          | 0          | 0          |   0.0 |  0.00
Comm    | 0.044118   | 0.52007    | 1.621      |  64.5 | 16.07
Output  | 0          | 0          | 0          |   0.0 |  0.00
Modify  | 4.9396e-05 | 0.0049279  | 0.010352   |   3.2 |  0.15
Other   |            | 0.3906     |            |       | 12.07

Nlocal:        5552.90 ave        7903 max           0 min
Histogram: 4 2 2 0 2 6 4 0 15 17
Nghost:        6213.54 ave        8769 max         412 min
Histogram: 4 0 4 0 8 0 4 5 7 20
Neighs:       158427.0 ave      230316 max           0 min
Histogram: 4 2 2 0 5 3 4 4 12 16

Total # of neighbors = 8238191
Ave neighs/atom = 28.530433
Neighbor list builds = 0
Dangerous builds = 0
The dot product: 9.90923645429112e-07
Setting atom values ...
  1 settings made for x
  1 settings made for y
  1 settings made for z
Setting up cg style minimization ...
  Unit style    : metal
  Current step  : 1714
Per MPI rank memory allocation (min/avg/max) = 5.465 | 6.344 | 6.728 Mbytes
Step PotEng KinEng TotEng v_fx v_fy v_fz 
    1714   -1152449.3            0   -1152449.3 -0.017536691   0.20530438  -0.14583291 
    1941   -1152449.3            0   -1152449.3 5.265272e-06 -9.0986193e-06 3.0114588e-05 
Loop time of 5.03364 on 52 procs for 227 steps with 288751 atoms

99.9% CPU use with 52 MPI tasks x 1 OpenMP threads

Minimization stats:
  Stopping criterion = energy tolerance
  Energy initial, next-to-last, final = 
     -1152449.33676909  -1152449.34713262  -1152449.34713262
  Force two-norm initial, final = 0.29417327 9.1399211e-05
  Force max component initial, final = 0.20530438 3.0114588e-05
  Final line search alpha, max atom move = 1.0000000 3.0114588e-05
  Iterations, force evaluations = 227 454

MPI task timing breakdown:
Section |  min time  |  avg time  |  max time  |%varavg| %total
---------------------------------------------------------------
Pair    | 1.2786     | 3.6109     | 4.7333     |  52.6 | 71.74
Neigh   | 1.9892e-05 | 0.0058212  | 0.0085531  |   3.2 |  0.12
Comm    | 0.070825   | 0.80854    | 2.5252     |  80.3 | 16.06
Output  | 0          | 0          | 0          |   0.0 |  0.00
Modify  | 8.8835e-05 | 0.0076496  | 0.016122   |   4.0 |  0.15
Other   |            | 0.6007     |            |       | 11.93

Nlocal:        5552.90 ave        7912 max           0 min
Histogram: 4 2 2 0 2 6 4 0 15 17
Nghost:        6213.54 ave        8769 max         412 min
Histogram: 4 0 4 0 8 0 4 5 7 20
Neighs:       158427.0 ave      230606 max           0 min
Histogram: 4 2 2 0 5 3 4 4 12 16

Total # of neighbors = 8238194
Ave neighs/atom = 28.530443
Neighbor list builds = 1
Dangerous builds = 0
The dot product: -1.80299672561055e-06
Setting atom values ...
  1 settings made for x
  1 settings made for y
  1 settings made for z
Setting up cg style minimization ...
  Unit style    : metal
  Current step  : 1941
Per MPI rank memory allocation (min/avg/max) = 5.465 | 6.344 | 6.728 Mbytes
Step PotEng KinEng TotEng v_fx v_fy v_fz 
    1941   -1152449.3            0   -1152449.3 -0.070237662    0.1803694 -0.089993204 
    2000   -1152449.3            0   -1152449.3 0.00034425379 0.0004788724  0.001280052 
    2120   -1152449.3            0   -1152449.3 -1.1734051e-05 8.0497169e-06 -2.8628249e-05 
Loop time of 3.98866 on 52 procs for 179 steps with 288751 atoms

99.9% CPU use with 52 MPI tasks x 1 OpenMP threads

Minimization stats:
  Stopping criterion = linesearch alpha is zero
  Energy initial, next-to-last, final = 
     -1152449.33428659  -1152449.34121493  -1152449.34121493
  Force two-norm initial, final = 0.25414113 0.000138364
  Force max component initial, final = 0.1803694 3.0499008e-05
  Final line search alpha, max atom move = 0.5 1.5249504e-05
  Iterations, force evaluations = 179 359

MPI task timing breakdown:
Section |  min time  |  avg time  |  max time  |%varavg| %total
---------------------------------------------------------------
Pair    | 1.0247     | 2.8612     | 3.7417     |  46.6 | 71.73
Neigh   | 0          | 0          | 0          |   0.0 |  0.00
Comm    | 0.054208   | 0.64142    | 2.0066     |  71.5 | 16.08
Output  | 0.00034701 | 0.00035199 | 0.00050798 |   0.0 |  0.01
Modify  | 6.2404e-05 | 0.0061167  | 0.012778   |   3.6 |  0.15
Other   |            | 0.4795     |            |       | 12.02

Nlocal:        5552.90 ave        7912 max           0 min
Histogram: 4 2 2 0 2 6 4 0 15 17
Nghost:        6213.54 ave        8769 max         412 min
Histogram: 4 0 4 0 8 0 4 5 7 20
Neighs:       158427.0 ave      230609 max           0 min
Histogram: 4 2 2 0 5 3 4 4 12 16

Total # of neighbors = 8238201
Ave neighs/atom = 28.530467
Neighbor list builds = 0
Dangerous builds = 0
The dot product: 1.55874758317189e-06
Setting atom values ...
  1 settings made for x
  1 settings made for y
  1 settings made for z
Setting up cg style minimization ...
  Unit style    : metal
  Current step  : 2120
Per MPI rank memory allocation (min/avg/max) = 5.465 | 6.344 | 6.728 Mbytes
Step PotEng KinEng TotEng v_fx v_fy v_fz 
    2120   -1152449.3            0   -1152449.3 -0.053307836  0.067778328 -0.047344616 
    2367   -1152449.3            0   -1152449.3 -3.1415812e-06 -6.2984069e-06 -1.149379e-05 
Loop time of 5.47699 on 52 procs for 247 steps with 288751 atoms

99.9% CPU use with 52 MPI tasks x 1 OpenMP threads

Minimization stats:
  Stopping criterion = linesearch alpha is zero
  Energy initial, next-to-last, final = 
     -1152449.33356162  -1152449.34651272  -1152449.34651272
  Force two-norm initial, final = 0.17923577 8.3257788e-05
  Force max component initial, final = 0.067778328 1.9944378e-05
  Final line search alpha, max atom move = 0.5 9.9721892e-06
  Iterations, force evaluations = 247 495

MPI task timing breakdown:
Section |  min time  |  avg time  |  max time  |%varavg| %total
---------------------------------------------------------------
Pair    | 1.3913     | 3.9227     | 5.1555     |  54.8 | 71.62
Neigh   | 1.9755e-05 | 0.005823   | 0.008599   |   3.2 |  0.11
Comm    | 0.075218   | 0.8765     | 2.7463     |  84.0 | 16.00
Output  | 0          | 0          | 0          |   0.0 |  0.00
Modify  | 8.3446e-05 | 0.0083439  | 0.017583   |   4.2 |  0.15
Other   |            | 0.6637     |            |       | 12.12

Nlocal:        5552.90 ave        7915 max           0 min
Histogram: 4 2 2 0 2 6 4 2 13 17
Nghost:        6213.62 ave        8769 max         412 min
Histogram: 4 0 4 0 8 0 4 5 7 20
Neighs:       158427.0 ave      230715 max           0 min
Histogram: 4 2 2 0 5 3 4 4 12 16

Total # of neighbors = 8238193
Ave neighs/atom = 28.530440
Neighbor list builds = 1
Dangerous builds = 0
The dot product: 3.33588312574192e-07
Setting atom values ...
  1 settings made for x
  1 settings made for y
  1 settings made for z
Setting up cg style minimization ...
  Unit style    : metal
  Current step  : 2367
Per MPI rank memory allocation (min/avg/max) = 5.465 | 6.344 | 6.728 Mbytes
Step PotEng KinEng TotEng v_fx v_fy v_fz 
    2367   -1152449.3            0   -1152449.3   0.02326149 -0.00010812807   0.03428667 
    2470   -1152449.3            0   -1152449.3 3.8019731e-05 -6.3559389e-06 5.1308966e-05 
Loop time of 2.31242 on 52 procs for 103 steps with 288751 atoms

99.9% CPU use with 52 MPI tasks x 1 OpenMP threads

Minimization stats:
  Stopping criterion = energy tolerance
  Energy initial, next-to-last, final = 
     -1152449.34841075  -1152449.34937331  -1152449.34937331
  Force two-norm initial, final = 0.13041704 0.00021044421
  Force max component initial, final = 0.04800002 5.1308966e-05
  Final line search alpha, max atom move = 1.0000000 5.1308966e-05
  Iterations, force evaluations = 103 208

MPI task timing breakdown:
Section |  min time  |  avg time  |  max time  |%varavg| %total
---------------------------------------------------------------
Pair    | 0.59643    | 1.6586     | 2.1747     |  35.4 | 71.72
Neigh   | 0          | 0          | 0          |   0.0 |  0.00
Comm    | 0.031075   | 0.37158    | 1.166      |  54.2 | 16.07
Output  | 0          | 0          | 0          |   0.0 |  0.00
Modify  | 3.8364e-05 | 0.0035468  | 0.0074449  |   2.7 |  0.15
Other   |            | 0.2787     |            |       | 12.05

Nlocal:        5552.90 ave        7913 max           0 min
Histogram: 4 2 2 0 2 6 4 1 14 17
Nghost:        6213.54 ave        8769 max         412 min
Histogram: 4 0 4 0 8 0 4 5 7 20
Neighs:       158427.0 ave      230643 max           0 min
Histogram: 4 2 2 0 5 3 4 4 12 16

Total # of neighbors = 8238192
Ave neighs/atom = 28.530436
Neighbor list builds = 0
Dangerous builds = 0
The dot product: 2.41961637362422e-07
Setting atom values ...
  1 settings made for x
  1 settings made for y
  1 settings made for z
Setting up cg style minimization ...
  Unit style    : metal
  Current step  : 2470
Per MPI rank memory allocation (min/avg/max) = 5.465 | 6.344 | 6.728 Mbytes
Step PotEng KinEng TotEng v_fx v_fy v_fz 
    2470   -1152449.4            0   -1152449.4 0.0093068464 0.0068111943  0.019362641 
    2650   -1152449.4            0   -1152449.4 1.7200953e-05 -8.634934e-06 1.9404929e-05 
Loop time of 3.99159 on 52 procs for 180 steps with 288751 atoms

99.9% CPU use with 52 MPI tasks x 1 OpenMP threads

Minimization stats:
  Stopping criterion = linesearch alpha is zero
  Energy initial, next-to-last, final = 
     -1152449.35019744  -1152449.35110151  -1152449.35110151
  Force two-norm initial, final = 0.12531994 0.00013487578
  Force max component initial, final = 0.047406447 1.9404929e-05
  Final line search alpha, max atom move = 0.5 9.7024643e-06
  Iterations, force evaluations = 180 361

MPI task timing breakdown:
Section |  min time  |  avg time  |  max time  |%varavg| %total
---------------------------------------------------------------
Pair    | 1.0077     | 2.8599     | 3.7624     |  46.9 | 71.65
Neigh   | 0          | 0          | 0          |   0.0 |  0.00
Comm    | 0.054516   | 0.63917    | 2.0007     |  71.7 | 16.01
Output  | 0          | 0          | 0          |   0.0 |  0.00
Modify  | 6.8674e-05 | 0.0060822  | 0.012802   |   3.6 |  0.15
Other   |            | 0.4864     |            |       | 12.19

Nlocal:        5552.90 ave        7913 max           0 min
Histogram: 4 2 2 0 2 6 4 1 14 17
Nghost:        6213.54 ave        8769 max         412 min
Histogram: 4 0 4 0 8 0 4 5 7 20
Neighs:       158427.0 ave      230644 max           0 min
Histogram: 4 2 2 0 5 3 4 4 12 16

Total # of neighbors = 8238192
Ave neighs/atom = 28.530436
Neighbor list builds = 0
Dangerous builds = 0
The dot product: 1.65335443985607e-09
Setting atom values ...
  1 settings made for x
  1 settings made for y
  1 settings made for z
Setting up cg style minimization ...
  Unit style    : metal
  Current step  : 2650
Per MPI rank memory allocation (min/avg/max) = 5.465 | 6.344 | 6.728 Mbytes
Step PotEng KinEng TotEng v_fx v_fy v_fz 
    2650   -1152449.4            0   -1152449.4  0.009912531 0.0065174242   0.02008953 
    2827   -1152449.4            0   -1152449.4 1.8217754e-05 -3.3075844e-05 2.0276999e-06 
Loop time of 3.97332 on 52 procs for 177 steps with 288751 atoms

99.9% CPU use with 52 MPI tasks x 1 OpenMP threads

Minimization stats:
  Stopping criterion = linesearch alpha is zero
  Energy initial, next-to-last, final = 
     -1152449.35065751  -1152449.35155736  -1152449.35155736
  Force two-norm initial, final = 0.1254828 0.00016387459
  Force max component initial, final = 0.046810325 3.5829650e-05
  Final line search alpha, max atom move = 0.25 8.9574125e-06
  Iterations, force evaluations = 177 357

MPI task timing breakdown:
Section |  min time  |  avg time  |  max time  |%varavg| %total
---------------------------------------------------------------
Pair    | 1.0173     | 2.8494     | 3.747      |  46.6 | 71.71
Neigh   | 0          | 0          | 0          |   0.0 |  0.00
Comm    | 0.053188   | 0.63709    | 1.9815     |  71.1 | 16.03
Output  | 0          | 0          | 0          |   0.0 |  0.00
Modify  | 5.8867e-05 | 0.0060723  | 0.012813   |   3.6 |  0.15
Other   |            | 0.4808     |            |       | 12.10

Nlocal:        5552.90 ave        7914 max           0 min
Histogram: 4 2 2 0 2 6 4 1 14 17
Nghost:        6213.54 ave        8769 max         412 min
Histogram: 4 0 4 0 8 0 4 5 7 20
Neighs:       158427.0 ave      230693 max           0 min
Histogram: 4 2 2 0 5 3 4 4 12 16

Total # of neighbors = 8238190
Ave neighs/atom = 28.530429
Neighbor list builds = 0
Dangerous builds = 0
The dot product: -6.56239332053143e-09
Setting atom values ...
  1 settings made for x
  1 settings made for y
  1 settings made for z
Setting up cg style minimization ...
  Unit style    : metal
  Current step  : 2827
Per MPI rank memory allocation (min/avg/max) = 5.465 | 6.344 | 6.728 Mbytes
Step PotEng KinEng TotEng v_fx v_fy v_fz 
    2827   -1152449.3            0   -1152449.3 0.0090981359 0.0065064226  0.018907214 
    3000   -1152449.4            0   -1152449.4 -5.1045486e-06 -9.2778788e-06 -1.4985706e-05 
    3026   -1152449.4            0   -1152449.4 -1.8959268e-05 2.6295722e-06 -2.6806887e-05 
Loop time of 4.39978 on 52 procs for 199 steps with 288751 atoms

99.9% CPU use with 52 MPI tasks x 1 OpenMP threads

Minimization stats:
  Stopping criterion = energy tolerance
  Energy initial, next-to-last, final = 
     -1152449.34978726  -1152449.35067753  -1152449.35067753
  Force two-norm initial, final = 0.1247898 8.4842017e-05
  Force max component initial, final = 0.046185077 2.6806887e-05
  Final line search alpha, max atom move = 1.0000000 2.6806887e-05
  Iterations, force evaluations = 199 398

MPI task timing breakdown:
Section |  min time  |  avg time  |  max time  |%varavg| %total
---------------------------------------------------------------
Pair    | 1.1172     | 3.1602     | 4.146      |  49.2 | 71.83
Neigh   | 0          | 0          | 0          |   0.0 |  0.00
Comm    | 0.060214   | 0.70381    | 2.2151     |  75.5 | 16.00
Output  | 0.00035274 | 0.0003579  | 0.00053773 |   0.0 |  0.01
Modify  | 6.7537e-05 | 0.0067053  | 0.014123   |   3.8 |  0.15
Other   |            | 0.5287     |            |       | 12.02

Nlocal:        5552.90 ave        7914 max           0 min
Histogram: 4 2 2 0 2 6 4 1 14 17
Nghost:        6213.54 ave        8769 max         412 min
Histogram: 4 0 4 0 8 0 4 5 7 20
Neighs:       158427.0 ave      230693 max           0 min
Histogram: 4 2 2 0 5 3 4 4 12 16

Total # of neighbors = 8238192
Ave neighs/atom = 28.530436
Neighbor list builds = 0
Dangerous builds = 0
The dot product: -1.25504443149285e-08
Setting atom values ...
  1 settings made for x
  1 settings made for y
  1 settings made for z
Setting up cg style minimization ...
  Unit style    : metal
  Current step  : 3026
Per MPI rank memory allocation (min/avg/max) = 5.465 | 6.344 | 6.728 Mbytes
Step PotEng KinEng TotEng v_fx v_fy v_fz 
    3026   -1152449.3            0   -1152449.3 0.0080987058 0.0063258349  0.017297552 
    3227   -1152449.3            0   -1152449.3 5.4360141e-06 8.5892713e-06 1.5003839e-05 
Loop time of 4.49471 on 52 procs for 201 steps with 288751 atoms

99.9% CPU use with 52 MPI tasks x 1 OpenMP threads

Minimization stats:
  Stopping criterion = linesearch alpha is zero
  Energy initial, next-to-last, final = 
     -1152449.34756699  -1152449.34844398  -1152449.34844398
  Force two-norm initial, final = 0.12377726 7.9553421e-05
  Force max component initial, final = 0.045515925 2.0452607e-05
  Final line search alpha, max atom move = 0.5 1.0226304e-05
  Iterations, force evaluations = 201 403

MPI task timing breakdown:
Section |  min time  |  avg time  |  max time  |%varavg| %total
---------------------------------------------------------------
Pair    | 1.1515     | 3.2176     | 4.2276     |  49.4 | 71.59
Neigh   | 0          | 0          | 0          |   0.0 |  0.00
Comm    | 0.062071   | 0.71883    | 2.2335     |  75.6 | 15.99
Output  | 0          | 0          | 0          |   0.0 |  0.00
Modify  | 7.0557e-05 | 0.0068527  | 0.014516   |   3.8 |  0.15
Other   |            | 0.5514     |            |       | 12.27

Nlocal:        5552.90 ave        7914 max           0 min
Histogram: 4 2 2 0 2 6 4 1 14 17
Nghost:        6213.62 ave        8769 max         412 min
Histogram: 4 0 4 0 8 0 4 5 7 20
Neighs:       158427.0 ave      230672 max           0 min
Histogram: 4 2 2 0 5 3 4 4 12 16

Total # of neighbors = 8238192
Ave neighs/atom = 28.530436
Neighbor list builds = 0
Dangerous builds = 0
The dot product: 9.30581762429196e-09
Setting atom values ...
  1 settings made for x
  1 settings made for y
  1 settings made for z
Setting up cg style minimization ...
  Unit style    : metal
  Current step  : 3227
Per MPI rank memory allocation (min/avg/max) = 5.465 | 6.344 | 6.728 Mbytes
Step PotEng KinEng TotEng v_fx v_fy v_fz 
    3227   -1152449.3            0   -1152449.3 0.0072110196 0.0058420805  0.015606484 
    3385   -1152449.3            0   -1152449.3 1.0898081e-05 1.8434579e-05 3.1121084e-05 
Loop time of 3.50455 on 52 procs for 158 steps with 288751 atoms

99.9% CPU use with 52 MPI tasks x 1 OpenMP threads

Minimization stats:
  Stopping criterion = energy tolerance
  Energy initial, next-to-last, final = 
     -1152449.34398873   -1152449.3448516   -1152449.3448516
  Force two-norm initial, final = 0.12284811 0.00027052258
  Force max component initial, final = 0.044810859 5.9177358e-05
  Final line search alpha, max atom move = 1.0000000 5.9177358e-05
  Iterations, force evaluations = 158 316

MPI task timing breakdown:
Section |  min time  |  avg time  |  max time  |%varavg| %total
---------------------------------------------------------------
Pair    | 0.88133    | 2.5136     | 3.2959     |  44.1 | 71.72
Neigh   | 0          | 0          | 0          |   0.0 |  0.00
Comm    | 0.047341   | 0.5621     | 1.763      |  67.2 | 16.04
Output  | 0          | 0          | 0          |   0.0 |  0.00
Modify  | 6.0687e-05 | 0.0053333  | 0.0112     |   3.3 |  0.15
Other   |            | 0.4235     |            |       | 12.08

Nlocal:        5552.90 ave        7914 max           0 min
Histogram: 4 2 2 0 2 6 4 1 14 17
Nghost:        6213.62 ave        8769 max         412 min
Histogram: 4 0 4 0 8 0 4 5 7 20
Neighs:       158427.0 ave      230664 max           0 min
Histogram: 4 2 2 0 5 3 4 4 12 16

Total # of neighbors = 8238190
Ave neighs/atom = 28.530429
Neighbor list builds = 0
Dangerous builds = 0
The dot product: 1.82634608506882e-08
Setting atom values ...
  1 settings made for x
  1 settings made for y
  1 settings made for z
Setting up cg style minimization ...
  Unit style    : metal
  Current step  : 3385
Per MPI rank memory allocation (min/avg/max) = 5.465 | 6.344 | 6.728 Mbytes
Step PotEng KinEng TotEng v_fx v_fy v_fz 
    3385   -1152449.3            0   -1152449.3 0.0064855593 0.0050736984   0.01392737 
    3571   -1152449.3            0   -1152449.3 4.9293291e-06 -2.0461024e-05 -8.5585564e-06 
Loop time of 4.15288 on 52 procs for 186 steps with 288751 atoms

99.8% CPU use with 52 MPI tasks x 1 OpenMP threads

Minimization stats:
  Stopping criterion = energy tolerance
  Energy initial, next-to-last, final = 
     -1152449.33904073  -1152449.33989336  -1152449.33989336
  Force two-norm initial, final = 0.12219597 0.0001045902
  Force max component initial, final = 0.0442041 2.0461024e-05
  Final line search alpha, max atom move = 1.0000000 2.0461024e-05
  Iterations, force evaluations = 186 372

MPI task timing breakdown:
Section |  min time  |  avg time  |  max time  |%varavg| %total
---------------------------------------------------------------
Pair    | 1.0645     | 2.9606     | 3.8805     |  47.3 | 71.29
Neigh   | 0          | 0          | 0          |   0.0 |  0.00
Comm    | 0.05899    | 0.66624    | 2.0766     |  71.9 | 16.04
Output  | 0          | 0          | 0          |   0.0 |  0.00
Modify  | 6.8707e-05 | 0.0063323  | 0.013298   |   3.6 |  0.15
Other   |            | 0.5197     |            |       | 12.51

Nlocal:        5552.90 ave        7914 max           0 min
Histogram: 4 2 2 0 2 6 4 2 13 17
Nghost:        6213.62 ave        8769 max         412 min
Histogram: 4 0 4 0 8 0 4 5 7 20
Neighs:       158427.0 ave      230663 max           0 min
Histogram: 4 2 2 0 5 3 4 4 12 16

Total # of neighbors = 8238191
Ave neighs/atom = 28.530433
Neighbor list builds = 0
Dangerous builds = 0
The dot product: -7.92472609402455e-09
Setting atom values ...
  1 settings made for x
  1 settings made for y
  1 settings made for z
Setting up cg style minimization ...
  Unit style    : metal
  Current step  : 3571
Per MPI rank memory allocation (min/avg/max) = 5.465 | 6.344 | 6.728 Mbytes
Step PotEng KinEng TotEng v_fx v_fy v_fz 
    3571   -1152449.3            0   -1152449.3 0.0059742286 0.0039429071  0.012275712 
    3732   -1152449.3            0   -1152449.3 5.7248423e-05 -3.9418219e-05 5.6684901e-05 
Loop time of 3.55601 on 52 procs for 161 steps with 288751 atoms

99.9% CPU use with 52 MPI tasks x 1 OpenMP threads

Minimization stats:
  Stopping criterion = energy tolerance
  Energy initial, next-to-last, final = 
     -1152449.33270803  -1152449.33355491  -1152449.33355491
  Force two-norm initial, final = 0.12186663 0.00025774632
  Force max component initial, final = 0.044117242 5.7248423e-05
  Final line search alpha, max atom move = 1.0000000 5.7248423e-05
  Iterations, force evaluations = 161 322

MPI task timing breakdown:
Section |  min time  |  avg time  |  max time  |%varavg| %total
---------------------------------------------------------------
Pair    | 0.89779    | 2.5547     | 3.357      |  44.4 | 71.84
Neigh   | 0          | 0          | 0          |   0.0 |  0.00
Comm    | 0.048518   | 0.56957    | 1.7893     |  68.1 | 16.02
Output  | 0          | 0          | 0          |   0.0 |  0.00
Modify  | 5.9404e-05 | 0.0054203  | 0.011433   |   3.4 |  0.15
Other   |            | 0.4263     |            |       | 11.99

Nlocal:        5552.90 ave        7915 max           0 min
Histogram: 4 2 2 0 2 6 4 2 13 17
Nghost:        6213.62 ave        8769 max         412 min
Histogram: 4 0 4 0 8 0 4 5 7 20
Neighs:       158427.0 ave      230686 max           0 min
Histogram: 4 2 2 0 5 3 4 4 12 16

Total # of neighbors = 8238190
Ave neighs/atom = 28.530429
Neighbor list builds = 0
Dangerous builds = 0
The dot product: 1.20126297651342e-08
Setting atom values ...
  1 settings made for x
  1 settings made for y
  1 settings made for z
Setting up cg style minimization ...
  Unit style    : metal
  Current step  : 3732
Per MPI rank memory allocation (min/avg/max) = 5.465 | 6.344 | 6.728 Mbytes
Step PotEng KinEng TotEng v_fx v_fy v_fz 
    3732   -1152449.3            0   -1152449.3 0.0058022058 0.0025376723  0.010919174 
    3913   -1152449.3            0   -1152449.3 8.132925e-06 2.7543214e-06 1.4670207e-05 
Loop time of 4.0262 on 52 procs for 181 steps with 288751 atoms

99.9% CPU use with 52 MPI tasks x 1 OpenMP threads

Minimization stats:
  Stopping criterion = energy tolerance
  Energy initial, next-to-last, final = 
     -1152449.32496573  -1152449.32581325  -1152449.32581325
  Force two-norm initial, final = 0.12196669 0.00012481265
  Force max component initial, final = 0.043941066 2.7266490e-05
  Final line search alpha, max atom move = 1.0000000 2.7266490e-05
  Iterations, force evaluations = 181 362

MPI task timing breakdown:
Section |  min time  |  avg time  |  max time  |%varavg| %total
---------------------------------------------------------------
Pair    | 1.0384     | 2.8924     | 3.785      |  46.8 | 71.84
Neigh   | 0          | 0          | 0          |   0.0 |  0.00
Comm    | 0.053548   | 0.64834    | 2.0278     |  71.7 | 16.10
Output  | 0          | 0          | 0          |   0.0 |  0.00
Modify  | 5.9374e-05 | 0.0061634  | 0.012971   |   3.6 |  0.15
Other   |            | 0.4793     |            |       | 11.90

Nlocal:        5552.90 ave        7915 max           0 min
Histogram: 4 2 2 0 2 6 4 2 13 17
Nghost:        6213.62 ave        8769 max         412 min
Histogram: 4 0 4 0 8 0 4 5 7 20
Neighs:       158427.0 ave      230686 max           0 min
Histogram: 4 2 2 0 5 3 4 4 12 16

Total # of neighbors = 8238190
Ave neighs/atom = 28.530429
Neighbor list builds = 0
Dangerous builds = 0
The dot product: 4.52146256819166e-09
Setting atom values ...
  1 settings made for x
  1 settings made for y
  1 settings made for z
Setting up cg style minimization ...
  Unit style    : metal
  Current step  : 3913
Per MPI rank memory allocation (min/avg/max) = 5.465 | 6.344 | 6.728 Mbytes
Step PotEng KinEng TotEng v_fx v_fy v_fz 
    3913   -1152449.3            0   -1152449.3 0.0058036299 0.00090904796 0.0096444165 
    4000   -1152449.3            0   -1152449.3 4.4886261e-05 -0.00010814514 -1.6674009e-05 
    4073   -1152449.3            0   -1152449.3 -2.3279799e-05 2.1176972e-06 -3.4118653e-05 
Loop time of 3.59608 on 52 procs for 160 steps with 288751 atoms

99.9% CPU use with 52 MPI tasks x 1 OpenMP threads

Minimization stats:
  Stopping criterion = linesearch alpha is zero
  Energy initial, next-to-last, final = 
     -1152449.31578344  -1152449.31663617  -1152449.31663617
  Force two-norm initial, final = 0.12235496 0.00027214689
  Force max component initial, final = 0.04377321 6.8045303e-05
  Final line search alpha, max atom move = 0.125 8.5056628e-06
  Iterations, force evaluations = 160 325

MPI task timing breakdown:
Section |  min time  |  avg time  |  max time  |%varavg| %total
---------------------------------------------------------------
Pair    | 0.91324    | 2.581      | 3.3872     |  44.5 | 71.77
Neigh   | 0          | 0          | 0          |   0.0 |  0.00
Comm    | 0.049346   | 0.57479    | 1.7998     |  68.3 | 15.98
Output  | 0.0002034  | 0.00020795 | 0.00037263 |   0.0 |  0.01
Modify  | 6.2329e-05 | 0.0054915  | 0.011538   |   3.4 |  0.15
Other   |            | 0.4346     |            |       | 12.09

Nlocal:        5552.90 ave        7916 max           0 min
Histogram: 4 2 2 0 2 6 4 2 13 17
Nghost:        6213.62 ave        8769 max         412 min
Histogram: 4 0 4 0 8 0 4 5 7 20
Neighs:       158427.0 ave      230742 max           0 min
Histogram: 4 2 2 0 5 3 4 4 12 16

Total # of neighbors = 8238187
Ave neighs/atom = 28.530419
Neighbor list builds = 0
Dangerous builds = 0
The dot product: -1.17415897628906e-08
Setting atom values ...
  1 settings made for x
  1 settings made for y
  1 settings made for z
Setting up cg style minimization ...
  Unit style    : metal
  Current step  : 4073
Per MPI rank memory allocation (min/avg/max) = 5.465 | 6.344 | 6.728 Mbytes
Step PotEng KinEng TotEng v_fx v_fy v_fz 
    4073   -1152449.3            0   -1152449.3 0.0061171421 -0.00099256324 0.0086312269 
    4274   -1152449.3            0   -1152449.3 2.4158703e-06 -1.2419325e-05 -6.1304174e-06 
Loop time of 4.47163 on 52 procs for 201 steps with 288751 atoms

99.9% CPU use with 52 MPI tasks x 1 OpenMP threads

Minimization stats:
  Stopping criterion = energy tolerance
  Energy initial, next-to-last, final = 
     -1152449.30512986  -1152449.30598988  -1152449.30598988
  Force two-norm initial, final = 0.12294675 7.4002397e-05
  Force max component initial, final = 0.043687476 1.2419325e-05
  Final line search alpha, max atom move = 1.0000000 1.2419325e-05
  Iterations, force evaluations = 201 402

MPI task timing breakdown:
Section |  min time  |  avg time  |  max time  |%varavg| %total
---------------------------------------------------------------
Pair    | 1.1452     | 3.2078     | 4.2074     |  49.5 | 71.74
Neigh   | 0          | 0          | 0          |   0.0 |  0.00
Comm    | 0.059953   | 0.71712    | 2.237      |  75.6 | 16.04
Output  | 0          | 0          | 0          |   0.0 |  0.00
Modify  | 6.9783e-05 | 0.0068374  | 0.014467   |   3.8 |  0.15
Other   |            | 0.5399     |            |       | 12.07

Nlocal:        5552.90 ave        7916 max           0 min
Histogram: 4 2 2 0 2 6 4 2 13 17
Nghost:        6213.58 ave        8769 max         412 min
Histogram: 4 0 4 0 8 0 4 5 7 20
Neighs:       158427.0 ave      230742 max           0 min
Histogram: 4 2 2 0 5 3 4 4 12 16

Total # of neighbors = 8238188
Ave neighs/atom = 28.530422
Neighbor list builds = 0
Dangerous builds = 0
The dot product: 8.93251578439902e-10
Setting atom values ...
  1 settings made for x
  1 settings made for y
  1 settings made for z
Setting up cg style minimization ...
  Unit style    : metal
  Current step  : 4274
Per MPI rank memory allocation (min/avg/max) = 5.465 | 6.344 | 6.728 Mbytes
Step PotEng KinEng TotEng v_fx v_fy v_fz 
    4274   -1152449.3            0   -1152449.3 0.0068184282 -0.0030860754 0.0080632208 
    4457   -1152449.3            0   -1152449.3 -2.5929186e-05 7.243995e-06 -3.4225893e-05 
Loop time of 4.04921 on 52 procs for 183 steps with 288751 atoms

99.9% CPU use with 52 MPI tasks x 1 OpenMP threads

Minimization stats:
  Stopping criterion = linesearch alpha is zero
  Energy initial, next-to-last, final = 
     -1152449.29298007  -1152449.29384473  -1152449.29384473
  Force two-norm initial, final = 0.12363663 0.00012290258
  Force max component initial, final = 0.043449729 3.4225893e-05
  Final line search alpha, max atom move = 0.5 1.7112947e-05
  Iterations, force evaluations = 183 367

MPI task timing breakdown:
Section |  min time  |  avg time  |  max time  |%varavg| %total
---------------------------------------------------------------
Pair    | 1.0231     | 2.913      | 3.8238     |  47.4 | 71.94
Neigh   | 0          | 0          | 0          |   0.0 |  0.00
Comm    | 0.054933   | 0.64862    | 2.0344     |  72.7 | 16.02
Output  | 0          | 0          | 0          |   0.0 |  0.00
Modify  | 6.9581e-05 | 0.0061812  | 0.013057   |   3.6 |  0.15
Other   |            | 0.4814     |            |       | 11.89

Nlocal:        5552.90 ave        7916 max           0 min
Histogram: 4 2 2 0 2 6 4 2 13 17
Nghost:        6213.56 ave        8769 max         412 min
Histogram: 4 0 4 0 8 0 4 5 7 20
Neighs:       158427.0 ave      230742 max           0 min
Histogram: 4 2 2 0 5 3 4 4 12 16

Total # of neighbors = 8238188
Ave neighs/atom = 28.530422
Neighbor list builds = 0
Dangerous builds = 0
The dot product: -1.81024183017199e-08
Setting atom values ...
  1 settings made for x
  1 settings made for y
  1 settings made for z
Setting up cg style minimization ...
  Unit style    : metal
  Current step  : 4457
Per MPI rank memory allocation (min/avg/max) = 5.465 | 6.344 | 6.728 Mbytes
Step PotEng KinEng TotEng v_fx v_fy v_fz 
    4457   -1152449.3            0   -1152449.3 0.0079676897 -0.0052017702 0.0081772897 
    4630   -1152449.3            0   -1152449.3 2.7632619e-05 -1.1514803e-05 3.3534145e-05 
Loop time of 3.89191 on 52 procs for 173 steps with 288751 atoms

99.9% CPU use with 52 MPI tasks x 1 OpenMP threads

Minimization stats:
  Stopping criterion = linesearch alpha is zero
  Energy initial, next-to-last, final = 
      -1152449.2793194  -1152449.28018342  -1152449.28018342
  Force two-norm initial, final = 0.12425003 0.00017839412
  Force max component initial, final = 0.043256689 3.5138817e-05
  Final line search alpha, max atom move = 0.25 8.7847042e-06
  Iterations, force evaluations = 173 349

MPI task timing breakdown:
Section |  min time  |  avg time  |  max time  |%varavg| %total
---------------------------------------------------------------
Pair    | 0.99629    | 2.7856     | 3.6728     |  46.0 | 71.57
Neigh   | 0          | 0          | 0          |   0.0 |  0.00
Comm    | 0.052883   | 0.62312    | 1.9375     |  70.4 | 16.01
Output  | 0          | 0          | 0          |   0.0 |  0.00
Modify  | 5.8654e-05 | 0.0059395  | 0.012552   |   3.5 |  0.15
Other   |            | 0.4772     |            |       | 12.26

Nlocal:        5552.90 ave        7916 max           0 min
Histogram: 4 2 2 0 2 6 4 2 13 17
Nghost:        6213.63 ave        8769 max         412 min
Histogram: 4 0 4 0 8 0 4 5 7 20
Neighs:       158427.0 ave      230731 max           0 min
Histogram: 4 2 2 0 5 3 4 4 12 16

Total # of neighbors = 8238186
Ave neighs/atom = 28.530415
Neighbor list builds = 0
Dangerous builds = 0
The dot product: 2.74820459208461e-08
Setting atom values ...
  1 settings made for x
  1 settings made for y
  1 settings made for z
Setting up cg style minimization ...
  Unit style    : metal
  Current step  : 4630
Per MPI rank memory allocation (min/avg/max) = 5.465 | 6.344 | 6.728 Mbytes
Step PotEng KinEng TotEng v_fx v_fy v_fz 
    4630   -1152449.3            0   -1152449.3  0.009768285 -0.0072016777 0.0094066398 
    4832   -1152449.3            0   -1152449.3 6.8665015e-06 -5.6252617e-06 6.166151e-06 
Loop time of 4.47 on 52 procs for 202 steps with 288751 atoms

99.9% CPU use with 52 MPI tasks x 1 OpenMP threads

Minimization stats:
  Stopping criterion = energy tolerance
  Energy initial, next-to-last, final = 
     -1152449.26415558  -1152449.26501137  -1152449.26501137
  Force two-norm initial, final = 0.12480082 7.1255066e-05
  Force max component initial, final = 0.043023136 6.8665015e-06
  Final line search alpha, max atom move = 1.0000000 6.8665015e-06
  Iterations, force evaluations = 202 404

MPI task timing breakdown:
Section |  min time  |  avg time  |  max time  |%varavg| %total
---------------------------------------------------------------
Pair    | 1.1299     | 3.2086     | 4.2097     |  49.7 | 71.78
Neigh   | 0          | 0          | 0          |   0.0 |  0.00
Comm    | 0.059501   | 0.71815    | 2.2479     |  75.8 | 16.07
Output  | 0          | 0          | 0          |   0.0 |  0.00
Modify  | 6.9943e-05 | 0.0068071  | 0.014322   |   3.8 |  0.15
Other   |            | 0.5365     |            |       | 12.00

Nlocal:        5552.90 ave        7917 max           0 min
Histogram: 4 2 2 0 2 6 4 2 13 17
Nghost:        6213.67 ave        8770 max         412 min
Histogram: 4 0 4 0 8 0 4 5 7 20
Neighs:       158427.0 ave      230756 max           0 min
Histogram: 4 2 2 0 5 3 4 4 12 16

Total # of neighbors = 8238187
Ave neighs/atom = 28.530419
Neighbor list builds = 0
Dangerous builds = 0
The dot product: 1.04829607568631e-08
Setting atom values ...
  1 settings made for x
  1 settings made for y
  1 settings made for z
Setting up cg style minimization ...
  Unit style    : metal
  Current step  : 4832
Per MPI rank memory allocation (min/avg/max) = 5.465 | 6.344 | 6.728 Mbytes
Step PotEng KinEng TotEng v_fx v_fy v_fz 
    4832   -1152449.2            0   -1152449.2  0.012355377 -0.0088909305  0.012133657 
    5000   -1152449.2            0   -1152449.2 3.1566978e-05 -3.0827591e-05 2.4574095e-05 
    5018   -1152449.2            0   -1152449.2 1.526213e-05 4.9868059e-07 2.4083866e-05 
Loop time of 4.12666 on 52 procs for 186 steps with 288751 atoms

99.9% CPU use with 52 MPI tasks x 1 OpenMP threads

Minimization stats:
  Stopping criterion = energy tolerance
  Energy initial, next-to-last, final = 
     -1152449.24753519   -1152449.2483757   -1152449.2483757
  Force two-norm initial, final = 0.12552365 0.0001026194
  Force max component initial, final = 0.045709738 2.4083866e-05
  Final line search alpha, max atom move = 1.0000000 2.4083866e-05
  Iterations, force evaluations = 186 372

MPI task timing breakdown:
Section |  min time  |  avg time  |  max time  |%varavg| %total
---------------------------------------------------------------
Pair    | 1.0593     | 2.9662     | 3.8934     |  47.5 | 71.88
Neigh   | 0          | 0          | 0          |   0.0 |  0.00
Comm    | 0.055473   | 0.66484    | 2.0787     |  72.5 | 16.11
Output  | 0.00021966 | 0.00022559 | 0.00042583 |   0.0 |  0.01
Modify  | 6.3867e-05 | 0.0063316  | 0.01337    |   3.6 |  0.15
Other   |            | 0.4891     |            |       | 11.85

Nlocal:        5552.90 ave        7917 max           0 min
Histogram: 4 2 2 0 2 6 4 2 13 17
Nghost:        6213.67 ave        8770 max         412 min
Histogram: 4 0 4 0 8 0 4 5 7 20
Neighs:       158427.0 ave      230746 max           0 min
Histogram: 4 2 2 0 5 3 4 4 12 16

Total # of neighbors = 8238185
Ave neighs/atom = 28.530412
Neighbor list builds = 0
Dangerous builds = 0
The dot product: 3.93216820122145e-08
Setting atom values ...
  1 settings made for x
  1 settings made for y
  1 settings made for z
Setting up cg style minimization ...
  Unit style    : metal
  Current step  : 5018
Per MPI rank memory allocation (min/avg/max) = 5.465 | 6.344 | 6.728 Mbytes
Step PotEng KinEng TotEng v_fx v_fy v_fz 
    5018   -1152449.2            0   -1152449.2   0.01632366 -0.010108528  0.017457455 
    5135   -1152449.2            0   -1152449.2 -3.3190183e-05 -3.6283303e-05 -8.0563906e-05 
Loop time of 2.60032 on 52 procs for 117 steps with 288751 atoms

99.9% CPU use with 52 MPI tasks x 1 OpenMP threads

Minimization stats:
  Stopping criterion = energy tolerance
  Energy initial, next-to-last, final = 
     -1152449.22958757   -1152449.2304347   -1152449.2304347
  Force two-norm initial, final = 0.12758046 0.00038483035
  Force max component initial, final = 0.048958303 8.0563906e-05
  Final line search alpha, max atom move = 1.0000000 8.0563906e-05
  Iterations, force evaluations = 117 234

MPI task timing breakdown:
Section |  min time  |  avg time  |  max time  |%varavg| %total
---------------------------------------------------------------
Pair    | 0.66365    | 1.8631     | 2.4448     |  37.6 | 71.65
Neigh   | 0          | 0          | 0          |   0.0 |  0.00
Comm    | 0.037642   | 0.41541    | 1.3032     |  57.8 | 15.98
Output  | 0          | 0          | 0          |   0.0 |  0.00
Modify  | 4.3644e-05 | 0.003958   | 0.0083425  |   2.9 |  0.15
Other   |            | 0.3178     |            |       | 12.22

Nlocal:        5552.90 ave        7919 max           0 min
Histogram: 4 2 2 0 2 6 4 2 13 17
Nghost:        6213.67 ave        8770 max         412 min
Histogram: 4 0 4 0 8 0 4 5 7 20
Neighs:       158427.0 ave      230803 max           0 min
Histogram: 4 2 2 0 5 3 4 4 12 16

Total # of neighbors = 8238185
Ave neighs/atom = 28.530412
Neighbor list builds = 0
Dangerous builds = 0
The dot product: -2.38099625252892e-07
Setting atom values ...
  1 settings made for x
  1 settings made for y
  1 settings made for z
Setting up cg style minimization ...
  Unit style    : metal
  Current step  : 5135
Per MPI rank memory allocation (min/avg/max) = 5.465 | 6.344 | 6.728 Mbytes
Step PotEng KinEng TotEng v_fx v_fy v_fz 
    5135   -1152449.2            0   -1152449.2  0.022766458 -0.010266836  0.027740794 
    5363   -1152449.2            0   -1152449.2 -5.2617852e-05 -1.1258978e-05 -9.2021431e-05 
Loop time of 5.09301 on 52 procs for 228 steps with 288751 atoms

99.9% CPU use with 52 MPI tasks x 1 OpenMP threads

Minimization stats:
  Stopping criterion = energy tolerance
  Energy initial, next-to-last, final = 
     -1152449.21071664  -1152449.24865902  -1152449.24865902
  Force two-norm initial, final = 0.1349001 0.00031206055
  Force max component initial, final = 0.052165976 9.2021431e-05
  Final line search alpha, max atom move = 1.0000000 9.2021431e-05
  Iterations, force evaluations = 228 456

MPI task timing breakdown:
Section |  min time  |  avg time  |  max time  |%varavg| %total
---------------------------------------------------------------
Pair    | 1.3164     | 3.6368     | 4.7818     |  52.3 | 71.41
Neigh   | 3.8904e-05 | 0.011663   | 0.017188   |   4.6 |  0.23
Comm    | 0.071131   | 0.81767    | 2.5464     |  79.8 | 16.05
Output  | 0          | 0          | 0          |   0.0 |  0.00
Modify  | 8.4302e-05 | 0.0077679  | 0.016327   |   4.0 |  0.15
Other   |            | 0.6191     |            |       | 12.16

Nlocal:        5552.90 ave        7918 max           0 min
Histogram: 4 2 2 0 2 6 4 2 13 17
Nghost:        6213.67 ave        8770 max         412 min
Histogram: 4 0 4 0 8 0 4 5 7 20
Neighs:       158427.0 ave      230770 max           0 min
Histogram: 4 2 2 0 5 3 4 4 12 16

Total # of neighbors = 8238179
Ave neighs/atom = 28.530391
Neighbor list builds = 2
Dangerous builds = 0
The dot product: -9.3583109533046e-06
Setting atom values ...
  1 settings made for x
  1 settings made for y
  1 settings made for z
Setting up cg style minimization ...
  Unit style    : metal
  Current step  : 5363
Per MPI rank memory allocation (min/avg/max) = 5.465 | 6.344 | 6.728 Mbytes
Step PotEng KinEng TotEng v_fx v_fy v_fz 
    5363   -1152449.2            0   -1152449.2  0.031452162 -0.044427641  0.022108299 
    5578   -1152449.3            0   -1152449.3 -1.9704994e-05 -2.4623805e-06 -4.6663688e-05 
Loop time of 4.77055 on 52 procs for 215 steps with 288751 atoms

99.9% CPU use with 52 MPI tasks x 1 OpenMP threads

Minimization stats:
  Stopping criterion = energy tolerance
  Energy initial, next-to-last, final = 
     -1152449.24502541  -1152449.25048162  -1152449.25048162
  Force two-norm initial, final = 0.15741937 0.00018584063
  Force max component initial, final = 0.055952621 4.6663688e-05
  Final line search alpha, max atom move = 1.0000000 4.6663688e-05
  Iterations, force evaluations = 215 430

MPI task timing breakdown:
Section |  min time  |  avg time  |  max time  |%varavg| %total
---------------------------------------------------------------
Pair    | 1.2021     | 3.4123     | 4.4818     |  51.3 | 71.53
Neigh   | 0          | 0          | 0          |   0.0 |  0.00
Comm    | 0.067841   | 0.76432    | 2.3897     |  78.1 | 16.02
Output  | 0          | 0          | 0          |   0.0 |  0.00
Modify  | 8.201e-05  | 0.007246   | 0.015249   |   3.9 |  0.15
Other   |            | 0.5867     |            |       | 12.30

Nlocal:        5552.90 ave        7916 max           0 min
Histogram: 4 2 2 0 2 6 4 1 14 17
Nghost:        6213.62 ave        8769 max         412 min
Histogram: 4 0 4 0 8 0 4 5 7 20
Neighs:       158427.0 ave      230718 max           0 min
Histogram: 4 2 2 0 5 3 4 4 12 16

Total # of neighbors = 8238183
Ave neighs/atom = 28.530405
Neighbor list builds = 0
Dangerous builds = 0
The dot product: -1.54543925068524e-06
Setting atom values ...
  1 settings made for x
  1 settings made for y
  1 settings made for z
Setting up cg style minimization ...
  Unit style    : metal
  Current step  : 5578
Per MPI rank memory allocation (min/avg/max) = 5.465 | 6.344 | 6.728 Mbytes
Step PotEng KinEng TotEng v_fx v_fy v_fz 
    5578   -1152449.3            0   -1152449.3  0.010720684 -0.036572074 -0.009289146 
    5645   -1152449.3            0   -1152449.3 1.0186561e-05 1.724272e-05 4.3669403e-05 
Loop time of 1.49184 on 52 procs for 67 steps with 288751 atoms

99.9% CPU use with 52 MPI tasks x 1 OpenMP threads

Minimization stats:
  Stopping criterion = energy tolerance
  Energy initial, next-to-last, final = 
     -1152449.25250816  -1152449.25380331  -1152449.25380331
  Force two-norm initial, final = 0.15045715 0.00027122259
  Force max component initial, final = 0.055006956 4.3669403e-05
  Final line search alpha, max atom move = 1.0000000 4.3669403e-05
  Iterations, force evaluations = 67 134

MPI task timing breakdown:
Section |  min time  |  avg time  |  max time  |%varavg| %total
---------------------------------------------------------------
Pair    | 0.38456    | 1.0759     | 1.4077     |  28.6 | 72.12
Neigh   | 0          | 0          | 0          |   0.0 |  0.00
Comm    | 0.020114   | 0.24034    | 0.75168    |  43.9 | 16.11
Output  | 0          | 0          | 0          |   0.0 |  0.00
Modify  | 2.3712e-05 | 0.0022918  | 0.0048298  |   2.2 |  0.15
Other   |            | 0.1733     |            |       | 11.62

Nlocal:        5552.90 ave        7912 max           0 min
Histogram: 4 2 2 0 2 6 4 0 15 17
Nghost:        6213.54 ave        8769 max         412 min
Histogram: 4 0 4 0 8 0 4 5 7 20
Neighs:       158427.0 ave      230630 max           0 min
Histogram: 4 2 2 0 5 3 4 4 12 16

Total # of neighbors = 8238184
Ave neighs/atom = 28.530409
Neighbor list builds = 0
Dangerous builds = 0
The dot product: 8.04340922164242e-08
Setting atom values ...
  1 settings made for x
  1 settings made for y
  1 settings made for z
Setting up cg style minimization ...
  Unit style    : metal
  Current step  : 5645
Per MPI rank memory allocation (min/avg/max) = 5.465 | 6.344 | 6.728 Mbytes
Step PotEng KinEng TotEng v_fx v_fy v_fz 
    5645   -1152449.3            0   -1152449.3  0.013674685 -0.053139167 -0.017290124 
    5724   -1152449.3            0   -1152449.3 -7.5503281e-07 1.1751273e-05 9.7814036e-06 
Loop time of 1.74913 on 52 procs for 79 steps with 288751 atoms

99.9% CPU use with 52 MPI tasks x 1 OpenMP threads

Minimization stats:
  Stopping criterion = energy tolerance
  Energy initial, next-to-last, final = 
      -1152449.2556523  -1152449.25687325  -1152449.25687325
  Force two-norm initial, final = 0.1539969 0.00029210463
  Force max component initial, final = 0.055738337 2.9073516e-05
  Final line search alpha, max atom move = 1.0000000 2.9073516e-05
  Iterations, force evaluations = 79 158

MPI task timing breakdown:
Section |  min time  |  avg time  |  max time  |%varavg| %total
---------------------------------------------------------------
Pair    | 0.44329    | 1.2581     | 1.6514     |  31.1 | 71.93
Neigh   | 0          | 0          | 0          |   0.0 |  0.00
Comm    | 0.02351    | 0.27942    | 0.87956    |  47.8 | 15.97
Output  | 0          | 0          | 0          |   0.0 |  0.00
Modify  | 3.0301e-05 | 0.0026752  | 0.0056462  |   2.4 |  0.15
Other   |            | 0.2089     |            |       | 11.94

Nlocal:        5552.90 ave        7913 max           0 min
Histogram: 4 2 2 0 2 6 4 1 14 17
Nghost:        6213.62 ave        8769 max         412 min
Histogram: 4 0 4 0 8 0 4 5 7 20
Neighs:       158427.0 ave      230658 max           0 min
Histogram: 4 2 2 0 5 3 4 4 12 16

Total # of neighbors = 8238182
Ave neighs/atom = 28.530402
Neighbor list builds = 0
Dangerous builds = 0
The dot product: -1.04805840510228e-07
Setting atom values ...
  1 settings made for x
  1 settings made for y
  1 settings made for z
Setting up cg style minimization ...
  Unit style    : metal
  Current step  : 5724
Per MPI rank memory allocation (min/avg/max) = 5.465 | 6.344 | 6.728 Mbytes
Step PotEng KinEng TotEng v_fx v_fy v_fz 
    5724   -1152449.3            0   -1152449.3  0.015529196 -0.064943841 -0.021409658 
    5976   -1152449.3            0   -1152449.3 -6.8929601e-06 4.5853389e-06 -1.3930669e-05 
Loop time of 5.62971 on 52 procs for 252 steps with 288751 atoms

99.9% CPU use with 52 MPI tasks x 1 OpenMP threads

Minimization stats:
  Stopping criterion = linesearch alpha is zero
  Energy initial, next-to-last, final = 
     -1152449.25808447  -1152449.30311406  -1152449.30311406
  Force two-norm initial, final = 0.1626021 6.5279001e-05
  Force max component initial, final = 0.064943841 1.3940254e-05
  Final line search alpha, max atom move = 0.5 6.9701272e-06
  Iterations, force evaluations = 252 507

MPI task timing breakdown:
Section |  min time  |  avg time  |  max time  |%varavg| %total
---------------------------------------------------------------
Pair    | 1.4529     | 4.0422     | 5.2851     |  55.2 | 71.80
Neigh   | 1.9226e-05 | 0.0058321  | 0.0084333  |   3.2 |  0.10
Comm    | 0.079584   | 0.90006    | 2.8169     |  85.0 | 15.99
Output  | 0          | 0          | 0          |   0.0 |  0.00
Modify  | 8.798e-05  | 0.0086067  | 0.018081   |   4.2 |  0.15
Other   |            | 0.673      |            |       | 11.96

Nlocal:        5552.90 ave        7914 max           0 min
Histogram: 4 2 2 0 2 6 4 1 14 17
Nghost:        6213.62 ave        8769 max         412 min
Histogram: 4 0 4 0 8 0 4 5 7 20
Neighs:       158427.0 ave      230683 max           0 min
Histogram: 4 2 2 0 5 3 4 4 12 16

Total # of neighbors = 8238189
Ave neighs/atom = 28.530426
Neighbor list builds = 1
Dangerous builds = 0
The dot product: -1.21357268332475e-06
Setting atom values ...
  1 settings made for x
  1 settings made for y
  1 settings made for z
Setting up cg style minimization ...
  Unit style    : metal
  Current step  : 5976
Per MPI rank memory allocation (min/avg/max) = 5.465 | 6.344 | 6.728 Mbytes
Step PotEng KinEng TotEng v_fx v_fy v_fz 
    5976   -1152449.3            0   -1152449.3 -0.025739578  0.045536542  -0.05610985 
    6000   -1152449.3            0   -1152449.3 -0.00038063162 0.00049454902 -0.00093148562 
    6165   -1152449.3            0   -1152449.3 7.3063994e-06 -1.5061066e-05 1.4712528e-05 
Loop time of 4.21192 on 52 procs for 189 steps with 288751 atoms

99.9% CPU use with 52 MPI tasks x 1 OpenMP threads

Minimization stats:
  Stopping criterion = energy tolerance
  Energy initial, next-to-last, final = 
     -1152449.31372662  -1152449.31575981  -1152449.31575981
  Force two-norm initial, final = 0.15800731 0.00015392363
  Force max component initial, final = 0.05610985 1.6034425e-05
  Final line search alpha, max atom move = 1.0000000 1.6034425e-05
  Iterations, force evaluations = 189 378

MPI task timing breakdown:
Section |  min time  |  avg time  |  max time  |%varavg| %total
---------------------------------------------------------------
Pair    | 1.0832     | 3.0077     | 3.9478     |  47.7 | 71.41
Neigh   | 0          | 0          | 0          |   0.0 |  0.00
Comm    | 0.058      | 0.67337    | 2.0971     |  72.6 | 15.99
Output  | 0.00020375 | 0.00020872 | 0.00039011 |   0.0 |  0.00
Modify  | 7.6112e-05 | 0.0064394  | 0.013454   |   3.7 |  0.15
Other   |            | 0.5242     |            |       | 12.45

Nlocal:        5552.90 ave        7909 max           0 min
Histogram: 4 2 2 0 2 6 4 1 14 17
Nghost:        6213.62 ave        8769 max         412 min
Histogram: 4 0 4 0 8 0 4 5 7 20
Neighs:       158427.0 ave      230548 max           0 min
Histogram: 4 2 2 0 5 3 4 4 12 16

Total # of neighbors = 8238197
Ave neighs/atom = 28.530454
Neighbor list builds = 0
Dangerous builds = 0
The dot product: -4.09063715228782e-07
Setting atom values ...
  1 settings made for x
  1 settings made for y
  1 settings made for z
Setting up cg style minimization ...
  Unit style    : metal
  Current step  : 6165
Per MPI rank memory allocation (min/avg/max) = 5.465 | 6.344 | 6.728 Mbytes
Step PotEng KinEng TotEng v_fx v_fy v_fz 
    6165   -1152449.3            0   -1152449.3 0.0052151208 -0.069484454 -0.028013513 
    6337   -1152449.3            0   -1152449.3 7.9799594e-06 1.0115775e-05 3.103159e-05 
Loop time of 3.87244 on 52 procs for 172 steps with 288751 atoms

99.9% CPU use with 52 MPI tasks x 1 OpenMP threads

Minimization stats:
  Stopping criterion = linesearch alpha is zero
  Energy initial, next-to-last, final = 
     -1152449.32443394  -1152449.32567717  -1152449.32567717
  Force two-norm initial, final = 0.16165596 0.00017786697
  Force max component initial, final = 0.069484454 3.1031590e-05
  Final line search alpha, max atom move = 0.25 7.7578974e-06
  Iterations, force evaluations = 172 349

MPI task timing breakdown:
Section |  min time  |  avg time  |  max time  |%varavg| %total
---------------------------------------------------------------
Pair    | 0.99501    | 2.782      | 3.654      |  46.0 | 71.84
Neigh   | 0          | 0          | 0          |   0.0 |  0.00
Comm    | 0.051877   | 0.6219     | 1.9449     |  70.3 | 16.06
Output  | 0          | 0          | 0          |   0.0 |  0.00
Modify  | 5.8484e-05 | 0.0059521  | 0.012565   |   3.5 |  0.15
Other   |            | 0.4626     |            |       | 11.95

Nlocal:        5552.90 ave        7913 max           0 min
Histogram: 4 2 2 0 2 6 4 1 14 17
Nghost:        6213.58 ave        8769 max         412 min
Histogram: 4 0 4 0 8 0 4 5 7 20
Neighs:       158427.0 ave      230658 max           0 min
Histogram: 4 2 2 0 5 3 4 4 12 16

Total # of neighbors = 8238197
Ave neighs/atom = 28.530454
Neighbor list builds = 0
Dangerous builds = 0
The dot product: -9.39871239328775e-08
Setting atom values ...
  1 settings made for x
  1 settings made for y
  1 settings made for z
Setting up cg style minimization ...
  Unit style    : metal
  Current step  : 6337
Per MPI rank memory allocation (min/avg/max) = 5.465 | 6.344 | 6.728 Mbytes
Step PotEng KinEng TotEng v_fx v_fy v_fz 
    6337   -1152449.3            0   -1152449.3 0.00068740594 -0.055180463 -0.031300715 
    6509   -1152449.3            0   -1152449.3 1.3972991e-05 -2.2463284e-05 2.9331427e-05 
Loop time of 3.83853 on 52 procs for 172 steps with 288751 atoms

99.9% CPU use with 52 MPI tasks x 1 OpenMP threads

Minimization stats:
  Stopping criterion = linesearch alpha is zero
  Energy initial, next-to-last, final = 
     -1152449.33277423  -1152449.33397121  -1152449.33397121
  Force two-norm initial, final = 0.15739297 0.00019251004
  Force max component initial, final = 0.055180463 3.3972087e-05
  Final line search alpha, max atom move = 0.25 8.4930217e-06
  Iterations, force evaluations = 172 347

MPI task timing breakdown:
Section |  min time  |  avg time  |  max time  |%varavg| %total
---------------------------------------------------------------
Pair    | 0.98614    | 2.7602     | 3.6188     |  45.8 | 71.91
Neigh   | 0          | 0          | 0          |   0.0 |  0.00
Comm    | 0.05201    | 0.61294    | 1.9294     |  70.6 | 15.97
Output  | 0          | 0          | 0          |   0.0 |  0.00
Modify  | 6.4407e-05 | 0.005864   | 0.012324   |   3.5 |  0.15
Other   |            | 0.4595     |            |       | 11.97

Nlocal:        5552.90 ave        7913 max           0 min
Histogram: 4 2 2 0 2 6 4 1 14 17
Nghost:        6213.58 ave        8769 max         412 min
Histogram: 4 0 4 0 8 0 4 5 7 20
Neighs:       158427.0 ave      230658 max           0 min
Histogram: 4 2 2 0 5 3 4 4 12 16

Total # of neighbors = 8238197
Ave neighs/atom = 28.530454
Neighbor list builds = 0
Dangerous builds = 0
The dot product: 1.11599929334148e-08
Setting atom values ...
  1 settings made for x
  1 settings made for y
  1 settings made for z
Setting up cg style minimization ...
  Unit style    : metal
  Current step  : 6509
Per MPI rank memory allocation (min/avg/max) = 5.465 | 6.344 | 6.728 Mbytes
Step PotEng KinEng TotEng v_fx v_fy v_fz 
    6509   -1152449.3            0   -1152449.3 0.0013006853 -0.058640194 -0.030623238 
    6634   -1152449.3            0   -1152449.3 4.9405463e-06 4.5732799e-05 4.2049161e-05 
Loop time of 2.78292 on 52 procs for 125 steps with 288751 atoms

99.9% CPU use with 52 MPI tasks x 1 OpenMP threads

Minimization stats:
  Stopping criterion = energy tolerance
  Energy initial, next-to-last, final = 
      -1152449.3394401  -1152449.34066252  -1152449.34066252
  Force two-norm initial, final = 0.15915019 0.00032455287
  Force max component initial, final = 0.058640194 6.1530932e-05
  Final line search alpha, max atom move = 1.0000000 6.1530932e-05
  Iterations, force evaluations = 125 250

MPI task timing breakdown:
Section |  min time  |  avg time  |  max time  |%varavg| %total
---------------------------------------------------------------
Pair    | 0.71278    | 1.9988     | 2.626      |  39.0 | 71.82
Neigh   | 0          | 0          | 0          |   0.0 |  0.00
Comm    | 0.037201   | 0.44745    | 1.4008     |  59.6 | 16.08
Output  | 0          | 0          | 0          |   0.0 |  0.00
Modify  | 4.2622e-05 | 0.0042637  | 0.0089452  |   3.0 |  0.15
Other   |            | 0.3324     |            |       | 11.94

Nlocal:        5552.90 ave        7913 max           0 min
Histogram: 4 2 2 0 2 6 4 1 14 17
Nghost:        6213.54 ave        8769 max         412 min
Histogram: 4 0 4 0 8 0 4 5 7 20
Neighs:       158427.0 ave      230657 max           0 min
Histogram: 4 2 2 0 5 3 4 4 12 16

Total # of neighbors = 8238196
Ave neighs/atom = 28.530450
Neighbor list builds = 0
Dangerous builds = 0
The dot product: -2.32639039408039e-07
Setting atom values ...
  1 settings made for x
  1 settings made for y
  1 settings made for z
Setting up cg style minimization ...
  Unit style    : metal
  Current step  : 6634
Per MPI rank memory allocation (min/avg/max) = 5.465 | 6.344 | 6.728 Mbytes
Step PotEng KinEng TotEng v_fx v_fy v_fz 
    6634   -1152449.3            0   -1152449.3 0.0013566494 -0.058860805 -0.029583002 
    6834   -1152449.3            0   -1152449.3 3.1329049e-06 -6.329331e-06 5.870004e-06 
Loop time of 4.42609 on 52 procs for 200 steps with 288751 atoms

99.9% CPU use with 52 MPI tasks x 1 OpenMP threads

Minimization stats:
  Stopping criterion = linesearch alpha is zero
  Energy initial, next-to-last, final = 
     -1152449.34452196  -1152449.34575364  -1152449.34575364
[...]

Nlocal:        5552.90 ave        7904 max           0 min
Histogram: 4 2 2 0 2 6 4 1 14 17
Nghost:        6213.56 ave        8769 max         412 min
Histogram: 4 0 4 0 8 0 4 5 7 20
Neighs:       158427.0 ave      230358 max           0 min
Histogram: 4 2 2 0 5 3 4 4 12 16

Total # of neighbors = 8238198
Ave neighs/atom = 28.530457
Neighbor list builds = 0
Dangerous builds = 0
The dot product: 7.43038828130455e-09
Setting atom values ...
  1 settings made for x
  1 settings made for y
  1 settings made for z
Setting up cg style minimization ...
  Unit style    : metal
  Current step  : 19155
Per MPI rank memory allocation (min/avg/max) = 5.465 | 6.344 | 6.728 Mbytes
Step PotEng KinEng TotEng v_fx v_fy v_fz 
   19155   -1152448.9            0   -1152448.9 -0.0022059768 -0.003947917 -0.0045410848 
   19319   -1152448.9            0   -1152448.9 1.1317925e-05 -3.1414932e-05 1.9918803e-05 
Loop time of 3.62692 on 52 procs for 164 steps with 288751 atoms

99.9% CPU use with 52 MPI tasks x 1 OpenMP threads

Minimization stats:
  Stopping criterion = energy tolerance
  Energy initial, next-to-last, final = 
      -1152448.9129133  -1152448.91402566  -1152448.91402566
  Force two-norm initial, final = 0.13753329 0.00029052477
  Force max component initial, final = 0.057084491 8.4077511e-05
  Final line search alpha, max atom move = 1.0000000 8.4077511e-05
  Iterations, force evaluations = 164 328

MPI task timing breakdown:
Section |  min time  |  avg time  |  max time  |%varavg| %total
---------------------------------------------------------------
Pair    | 0.91684    | 2.6071     | 3.4253     |  44.7 | 71.88
Neigh   | 0          | 0          | 0          |   0.0 |  0.00
Comm    | 0.049206   | 0.58041    | 1.8247     |  68.4 | 16.00
Output  | 0          | 0          | 0          |   0.0 |  0.00
Modify  | 4.9826e-05 | 0.0055246  | 0.011625   |   3.4 |  0.15
Other   |            | 0.4339     |            |       | 11.96

Nlocal:        5552.90 ave        7904 max           0 min
Histogram: 4 2 2 0 2 6 4 1 14 17
Nghost:        6213.56 ave        8769 max         412 min
Histogram: 4 0 4 0 8 0 4 5 7 20
Neighs:       158427.0 ave      230366 max           0 min
Histogram: 4 2 2 0 5 3 4 4 12 16

Total # of neighbors = 8238196
Ave neighs/atom = 28.530450
Neighbor list builds = 0
Dangerous builds = 0
The dot product: -2.3617745322177e-08
Setting atom values ...
  1 settings made for x
  1 settings made for y
  1 settings made for z
Setting up cg style minimization ...
  Unit style    : metal
  Current step  : 19319
Per MPI rank memory allocation (min/avg/max) = 5.465 | 6.344 | 6.728 Mbytes
Step PotEng KinEng TotEng v_fx v_fy v_fz 
   19319   -1152448.9            0   -1152448.9 -0.002580582 -0.0031957861 -0.0051989196 
   19462   -1152448.9            0   -1152448.9 -3.740725e-07 7.8620489e-06 -2.214725e-07 
Loop time of 3.19505 on 52 procs for 143 steps with 288751 atoms

99.9% CPU use with 52 MPI tasks x 1 OpenMP threads

Minimization stats:
  Stopping criterion = energy tolerance
  Energy initial, next-to-last, final = 
     -1152448.92253364  -1152448.92363595  -1152448.92363595
  Force two-norm initial, final = 0.13690164 0.00035644201
  Force max component initial, final = 0.057437182 2.7880093e-05
  Final line search alpha, max atom move = 1.0000000 2.7880093e-05
  Iterations, force evaluations = 143 286

MPI task timing breakdown:
Section |  min time  |  avg time  |  max time  |%varavg| %total
---------------------------------------------------------------
Pair    | 0.81672    | 2.2812     | 3.0107     |  41.6 | 71.40
Neigh   | 0          | 0          | 0          |   0.0 |  0.00
Comm    | 0.043718   | 0.51855    | 1.6035     |  62.6 | 16.23
Output  | 0          | 0          | 0          |   0.0 |  0.00
Modify  | 5.7705e-05 | 0.0048642  | 0.010203   |   3.2 |  0.15
Other   |            | 0.3905     |            |       | 12.22

Nlocal:        5552.90 ave        7903 max           0 min
Histogram: 4 2 2 0 2 6 4 1 14 17
Nghost:        6213.56 ave        8769 max         412 min
Histogram: 4 0 4 0 8 0 4 5 7 20
Neighs:       158427.0 ave      230318 max           0 min
Histogram: 4 2 2 0 5 3 4 4 12 16

Total # of neighbors = 8238194
Ave neighs/atom = 28.530443
Neighbor list builds = 0
Dangerous builds = 0
The dot product: -1.26191252160332e-08
Setting atom values ...
  1 settings made for x
  1 settings made for y
  1 settings made for z
Setting up cg style minimization ...
  Unit style    : metal
  Current step  : 19462
Per MPI rank memory allocation (min/avg/max) = 5.465 | 6.344 | 6.728 Mbytes
Step PotEng KinEng TotEng v_fx v_fy v_fz 
   19462   -1152448.9            0   -1152448.9 -0.0041881851 -0.00040468795 -0.0081036752 
   19630   -1152448.9            0   -1152448.9 -2.7941637e-05 4.0421125e-05 -5.138291e-05 
Loop time of 3.71776 on 52 procs for 168 steps with 288751 atoms

99.9% CPU use with 52 MPI tasks x 1 OpenMP threads

Minimization stats:
  Stopping criterion = energy tolerance
  Energy initial, next-to-last, final = 
     -1152448.93072923  -1152448.93181477  -1152448.93181477
  Force two-norm initial, final = 0.13621791 0.00025411466
  Force max component initial, final = 0.058460665 5.8793520e-05
  Final line search alpha, max atom move = 1.0000000 5.8793520e-05
  Iterations, force evaluations = 168 336

MPI task timing breakdown:
Section |  min time  |  avg time  |  max time  |%varavg| %total
---------------------------------------------------------------
Pair    | 0.93775    | 2.6741     | 3.5097     |  45.3 | 71.93
Neigh   | 0          | 0          | 0          |   0.0 |  0.00
Comm    | 0.050611   | 0.59645    | 1.8702     |  69.1 | 16.04
Output  | 0          | 0          | 0          |   0.0 |  0.00
Modify  | 5.4799e-05 | 0.0056497  | 0.011889   |   3.4 |  0.15
Other   |            | 0.4415     |            |       | 11.88

Nlocal:        5552.90 ave        7902 max           0 min
Histogram: 4 2 2 0 2 6 4 0 15 17
Nghost:        6213.52 ave        8769 max         412 min
Histogram: 4 0 4 0 8 0 4 5 7 20
Neighs:       158427.0 ave      230287 max           0 min
Histogram: 4 2 2 0 5 3 4 4 12 16

Total # of neighbors = 8238197
Ave neighs/atom = 28.530454
Neighbor list builds = 0
Dangerous builds = 0
The dot product: 1.85634931499439e-07
Setting atom values ...
  1 settings made for x
  1 settings made for y
  1 settings made for z
Setting up cg style minimization ...
  Unit style    : metal
  Current step  : 19630
Per MPI rank memory allocation (min/avg/max) = 5.465 | 6.344 | 6.728 Mbytes
Step PotEng KinEng TotEng v_fx v_fy v_fz 
   19630   -1152448.9            0   -1152448.9 -0.0068238543 0.0041497038 -0.012854103 
   19800   -1152448.9            0   -1152448.9 -2.1286201e-05 4.1694381e-05 -3.8361425e-05 
Loop time of 3.80588 on 52 procs for 170 steps with 288751 atoms

99.9% CPU use with 52 MPI tasks x 1 OpenMP threads

Minimization stats:
  Stopping criterion = linesearch alpha is zero
  Energy initial, next-to-last, final = 
     -1152448.93771195   -1152448.9388081   -1152448.9388081
  Force two-norm initial, final = 0.13658588 0.00021376139
  Force max component initial, final = 0.059269263 7.1520718e-05
  Final line search alpha, max atom move = 0.25 1.7880180e-05
  Iterations, force evaluations = 170 343

MPI task timing breakdown:
Section |  min time  |  avg time  |  max time  |%varavg| %total
---------------------------------------------------------------
Pair    | 0.99063    | 2.7363     | 3.5956     |  45.3 | 71.90
Neigh   | 0          | 0          | 0          |   0.0 |  0.00
Comm    | 0.053641   | 0.61614    | 1.934      |  69.3 | 16.19
Output  | 0          | 0          | 0          |   0.0 |  0.00
Modify  | 5.4195e-05 | 0.005843   | 0.012291   |   3.5 |  0.15
Other   |            | 0.4476     |            |       | 11.76

Nlocal:        5552.90 ave        7901 max           0 min
Histogram: 4 2 2 0 2 6 4 0 15 17
Nghost:        6213.52 ave        8769 max         412 min
Histogram: 4 0 4 0 8 0 4 5 7 20
Neighs:       158427.0 ave      230255 max           0 min
Histogram: 4 2 2 0 5 3 4 4 12 16

Total # of neighbors = 8238200
Ave neighs/atom = 28.530464
Neighbor list builds = 0
Dangerous builds = 0
The dot product: 2.3791753854512e-07
Setting atom values ...
  1 settings made for x
  1 settings made for y
  1 settings made for z
Setting up cg style minimization ...
  Unit style    : metal
  Current step  : 19800
Per MPI rank memory allocation (min/avg/max) = 5.465 | 6.344 | 6.728 Mbytes
Step PotEng KinEng TotEng v_fx v_fy v_fz 
   19800   -1152448.9            0   -1152448.9 -0.0075557359 0.0061399624 -0.014051545 
   19958   -1152448.9            0   -1152448.9 -7.9760318e-06 1.142067e-05 -1.4543339e-05 
Loop time of 3.52013 on 52 procs for 158 steps with 288751 atoms

99.8% CPU use with 52 MPI tasks x 1 OpenMP threads

Minimization stats:
  Stopping criterion = linesearch alpha is zero
  Energy initial, next-to-last, final = 
     -1152448.94380291  -1152448.94494138  -1152448.94494138
  Force two-norm initial, final = 0.13707013 0.00020351144
  Force max component initial, final = 0.059842343 1.8305786e-05
  Final line search alpha, max atom move = 0.25 4.5764466e-06
  Iterations, force evaluations = 158 319

MPI task timing breakdown:
Section |  min time  |  avg time  |  max time  |%varavg| %total
---------------------------------------------------------------
Pair    | 0.89048    | 2.5399     | 3.3328     |  44.2 | 72.15
Neigh   | 0          | 0          | 0          |   0.0 |  0.00
Comm    | 0.048172   | 0.56484    | 1.7717     |  67.4 | 16.05
Output  | 0          | 0          | 0          |   0.0 |  0.00
Modify  | 5.3389e-05 | 0.0053669  | 0.011292   |   3.4 |  0.15
Other   |            | 0.41       |            |       | 11.65

Nlocal:        5552.90 ave        7901 max           0 min
Histogram: 4 2 2 0 2 6 4 0 15 17
Nghost:        6213.52 ave        8769 max         412 min
Histogram: 4 0 4 0 8 0 4 5 7 20
Neighs:       158427.0 ave      230256 max           0 min
Histogram: 4 2 2 0 5 3 4 4 12 16

Total # of neighbors = 8238202
Ave neighs/atom = 28.530471
Neighbor list builds = 0
Dangerous builds = 0
The dot product: 1.28361799320649e-07
Setting atom values ...
  1 settings made for x
  1 settings made for y
  1 settings made for z
Setting up cg style minimization ...
  Unit style    : metal
  Current step  : 19958
Per MPI rank memory allocation (min/avg/max) = 5.465 | 6.344 | 6.728 Mbytes
Step PotEng KinEng TotEng v_fx v_fy v_fz 
   19958   -1152448.9            0   -1152448.9 -0.0068082332 0.0059850419 -0.012535096 
   20000     -1152449            0     -1152449 0.0004258724 -0.00066430929 0.00076754635 
   20175     -1152449            0     -1152449 -1.1228766e-05 1.6511632e-05 -2.0294838e-05 
Loop time of 4.82003 on 52 procs for 217 steps with 288751 atoms

99.9% CPU use with 52 MPI tasks x 1 OpenMP threads

Minimization stats:
  Stopping criterion = energy tolerance
  Energy initial, next-to-last, final = 
     -1152448.94912769  -1152448.95026871  -1152448.95026871
  Force two-norm initial, final = 0.13682701 9.0700029e-05
  Force max component initial, final = 0.06013543 2.2508201e-05
  Final line search alpha, max atom move = 1.0000000 2.2508201e-05
  Iterations, force evaluations = 217 434

MPI task timing breakdown:
Section |  min time  |  avg time  |  max time  |%varavg| %total
---------------------------------------------------------------
Pair    | 1.2426     | 3.4578     | 4.5307     |  51.1 | 71.74
Neigh   | 0          | 0          | 0          |   0.0 |  0.00
Comm    | 0.075308   | 0.77943    | 2.4577     |  77.9 | 16.17
Output  | 0.0003554  | 0.00036022 | 0.00052878 |   0.0 |  0.01
Modify  | 6.6966e-05 | 0.0073834  | 0.015448   |   3.9 |  0.15
Other   |            | 0.5751     |            |       | 11.93

Nlocal:        5552.90 ave        7901 max           0 min
Histogram: 4 2 2 0 2 6 4 0 15 17
Nghost:        6213.52 ave        8769 max         412 min
Histogram: 4 0 4 0 8 0 4 5 7 20
Neighs:       158427.0 ave      230245 max           0 min
Histogram: 4 2 2 0 5 3 4 4 12 16

Total # of neighbors = 8238202
Ave neighs/atom = 28.530471
Neighbor list builds = 0
Dangerous builds = 0
The dot product: 2.98375256952251e-07
Setting atom values ...
  1 settings made for x
  1 settings made for y
  1 settings made for z
Setting up cg style minimization ...
  Unit style    : metal
  Current step  : 20175
Per MPI rank memory allocation (min/avg/max) = 5.465 | 6.344 | 6.728 Mbytes
Step PotEng KinEng TotEng v_fx v_fy v_fz 
   20175     -1152449            0     -1152449 -0.0056792531 0.0052781061 -0.010312485 
   20331     -1152449            0     -1152449 -1.946677e-06 1.4126042e-06 -3.5573667e-06 
Loop time of 3.44781 on 52 procs for 156 steps with 288751 atoms

99.9% CPU use with 52 MPI tasks x 1 OpenMP threads

Minimization stats:
  Stopping criterion = energy tolerance
  Energy initial, next-to-last, final = 
     -1152448.95376262  -1152448.95499602  -1152448.95499602
  Force two-norm initial, final = 0.13663376 0.0001447834
  Force max component initial, final = 0.060124127 1.8173177e-05
  Final line search alpha, max atom move = 1.0000000 1.8173177e-05
  Iterations, force evaluations = 156 312

MPI task timing breakdown:
Section |  min time  |  avg time  |  max time  |%varavg| %total
---------------------------------------------------------------
Pair    | 0.87297    | 2.4841     | 3.2595     |  43.6 | 72.05
Neigh   | 0          | 0          | 0          |   0.0 |  0.00
Comm    | 0.047196   | 0.55178    | 1.7356     |  66.8 | 16.00
Output  | 0          | 0          | 0          |   0.0 |  0.00
Modify  | 5.0398e-05 | 0.0052604  | 0.011037   |   3.3 |  0.15
Other   |            | 0.4066     |            |       | 11.79

Nlocal:        5552.90 ave        7900 max           0 min
Histogram: 4 2 2 0 2 6 4 0 14 18
Nghost:        6213.56 ave        8769 max         412 min
Histogram: 4 0 4 0 8 0 4 5 7 20
Neighs:       158427.0 ave      230219 max           0 min
Histogram: 4 2 2 0 5 3 4 4 12 16

Total # of neighbors = 8238204
Ave neighs/atom = 28.530478
Neighbor list builds = 0
Dangerous builds = 0
The dot product: 5.25834144482798e-08
Setting atom values ...
  1 settings made for x
  1 settings made for y
  1 settings made for z
Setting up cg style minimization ...
  Unit style    : metal
  Current step  : 20331
Per MPI rank memory allocation (min/avg/max) = 5.465 | 6.344 | 6.728 Mbytes
Step PotEng KinEng TotEng v_fx v_fy v_fz 
   20331     -1152449            0     -1152449 -0.0047237964 0.0046408616 -0.008457557 
   20526     -1152449            0     -1152449 -1.9033589e-06 4.0776418e-06 -3.2818704e-06 
Loop time of 4.36601 on 52 procs for 195 steps with 288751 atoms

99.8% CPU use with 52 MPI tasks x 1 OpenMP threads

Minimization stats:
  Stopping criterion = energy tolerance
  Energy initial, next-to-last, final = 
     -1152448.95774952  -1152448.95885653  -1152448.95885653
  Force two-norm initial, final = 0.13664785 9.0092847e-05
  Force max component initial, final = 0.060075558 7.8144666e-06
  Final line search alpha, max atom move = 1.0000000 7.8144666e-06
  Iterations, force evaluations = 195 390

MPI task timing breakdown:
Section |  min time  |  avg time  |  max time  |%varavg| %total
---------------------------------------------------------------
Pair    | 1.1155     | 3.1127     | 4.1083     |  48.6 | 71.29
Neigh   | 0          | 0          | 0          |   0.0 |  0.00
Comm    | 0.061156   | 0.70143    | 2.1708     |  73.1 | 16.07
Output  | 0          | 0          | 0          |   0.0 |  0.00
Modify  | 6.8968e-05 | 0.0066409  | 0.013927   |   3.7 |  0.15
Other   |            | 0.5452     |            |       | 12.49

Nlocal:        5552.90 ave        7898 max           0 min
Histogram: 4 2 2 0 2 6 4 0 14 18
Nghost:        6213.63 ave        8769 max         412 min
Histogram: 4 0 4 0 8 0 4 5 7 20
Neighs:       158427.0 ave      230147 max           0 min
Histogram: 4 2 2 0 5 3 4 4 12 16

Total # of neighbors = 8238204
Ave neighs/atom = 28.530478
Neighbor list builds = 0
Dangerous builds = 0
The dot product: 3.27822998206786e-08
Setting atom values ...
  1 settings made for x
  1 settings made for y
  1 settings made for z
Setting up cg style minimization ...
  Unit style    : metal
  Current step  : 20526
Per MPI rank memory allocation (min/avg/max) = 5.465 | 6.344 | 6.728 Mbytes
Step PotEng KinEng TotEng v_fx v_fy v_fz 
   20526     -1152449            0     -1152449 -0.0040967166 0.0044162245 -0.0072511735 
   20773     -1152449            0     -1152449 1.4336628e-05 -1.7434232e-05 2.5264594e-05 
Loop time of 5.46636 on 52 procs for 247 steps with 288751 atoms

99.9% CPU use with 52 MPI tasks x 1 OpenMP threads

Minimization stats:
  Stopping criterion = energy tolerance
  Energy initial, next-to-last, final = 
     -1152448.96073154  -1152448.96336855  -1152448.96336855
  Force two-norm initial, final = 0.13697628 0.00023457811
  Force max component initial, final = 0.060218971 4.1182218e-05
  Final line search alpha, max atom move = 1.0000000 4.1182218e-05
  Iterations, force evaluations = 247 494

MPI task timing breakdown:
Section |  min time  |  avg time  |  max time  |%varavg| %total
---------------------------------------------------------------
Pair    | 1.387      | 3.9243     | 5.1561     |  54.8 | 71.79
Neigh   | 1.9354e-05 | 0.0058256  | 0.0085606  |   3.2 |  0.11
Comm    | 0.077723   | 0.87297    | 2.742      |  84.0 | 15.97
Output  | 0          | 0          | 0          |   0.0 |  0.00
Modify  | 8.3563e-05 | 0.008315   | 0.017474   |   4.2 |  0.15
Other   |            | 0.655      |            |       | 11.98

Nlocal:        5552.90 ave        7892 max           0 min
Histogram: 4 2 2 0 2 6 4 0 14 18
Nghost:        6213.69 ave        8770 max         412 min
Histogram: 4 0 4 0 8 0 4 5 7 20
Neighs:       158427.0 ave      229947 max           0 min
Histogram: 4 2 2 0 5 3 4 4 12 16

Total # of neighbors = 8238206
Ave neighs/atom = 28.530485
Neighbor list builds = 1
Dangerous builds = 0
The dot product: -2.81318876204702e-06
Setting atom values ...
  1 settings made for x
  1 settings made for y
  1 settings made for z
Setting up cg style minimization ...
  Unit style    : metal
  Current step  : 20773
Per MPI rank memory allocation (min/avg/max) = 5.465 | 6.344 | 6.728 Mbytes
Step PotEng KinEng TotEng v_fx v_fy v_fz 
   20773     -1152449            0     -1152449 0.0033939779 0.0007772027 0.0058269239 
   20991     -1152449            0     -1152449 -1.0058912e-06 1.3197029e-06 -1.6146987e-06 
Loop time of 4.8546 on 52 procs for 218 steps with 288751 atoms

99.9% CPU use with 52 MPI tasks x 1 OpenMP threads

Minimization stats:
  Stopping criterion = linesearch alpha is zero
  Energy initial, next-to-last, final = 
     -1152448.96613883  -1152448.96719965  -1152448.96719965
  Force two-norm initial, final = 0.13706276 4.0536691e-05
  Force max component initial, final = 0.061161933 3.9276800e-06
  Final line search alpha, max atom move = 0.5 1.9638400e-06
  Iterations, force evaluations = 218 439

MPI task timing breakdown:
Section |  min time  |  avg time  |  max time  |%varavg| %total
---------------------------------------------------------------
Pair    | 1.2602     | 3.4963     | 4.5929     |  51.4 | 72.02
Neigh   | 0          | 0          | 0          |   0.0 |  0.00
Comm    | 0.068409   | 0.78569    | 2.454      |  78.3 | 16.18
Output  | 0          | 0          | 0          |   0.0 |  0.00
Modify  | 7.8505e-05 | 0.0074764  | 0.01574    |   4.0 |  0.15
Other   |            | 0.5651     |            |       | 11.64

Nlocal:        5552.90 ave        7893 max           0 min
Histogram: 4 2 2 0 2 6 4 0 14 18
Nghost:        6213.73 ave        8770 max         412 min
Histogram: 4 0 4 0 8 0 4 5 7 20
Neighs:       158427.0 ave      229970 max           0 min
Histogram: 4 2 2 0 5 3 4 4 12 16

Total # of neighbors = 8238204
Ave neighs/atom = 28.530478
Neighbor list builds = 0
Dangerous builds = 0
The dot product: 6.8873025609105e-09
