LAMMPS (29 Oct 2020)
OMP_NUM_THREADS environment is not set. Defaulting to 1 thread. (../comm.cpp:94)
  using 1 OpenMP thread(s) per MPI task
OMP_NUM_THREADS environment is not set. Defaulting to 1 thread. (../comm.cpp:94)
  using 1 OpenMP thread(s) per MPI task
Reading data file ...
  orthogonal box = (-122.39241 -121.13707 -37.090501) to (122.39241 121.13707 37.090501)
  13 by 4 by 2 MPI processor grid
  reading atoms ...
  288751 atoms
  read_data CPU = 0.369 seconds
199981 atoms in group inner
88770 atoms in group outer
1 atoms in group carbon
Neighbor list info ...
  update every 1 steps, delay 0 steps, check yes
  max neighbors/atom: 2000, page size: 100000
  master list distance cutoff = 5.6
  ghost atom cutoff = 5.6
  binsize = 2.8, bins = 88 87 27
  1 neighbor lists, perpetual/occasional/extra = 1 0 0
  (1) pair eam/alloy, perpetual
      attributes: half, newton on
      pair build: half/bin/atomonly/newton
      stencil: half/bin/3d/newton
      bin: standard
Setting up cg style minimization ...
  Unit style    : metal
  Current step  : 0
Per MPI rank memory allocation (min/avg/max) = 5.441 | 5.816 | 6.074 Mbytes
Step v_fx v_fy v_fz PotEng KinEng TotEng 
       0   -25.529746    14.757066   -49.834221   -1152433.5            0   -1152433.5 
     177 -2.406007e-05 2.6385816e-06 2.3093411e-05   -1152449.5            0   -1152449.5 
Loop time of 2.06355 on 104 procs for 177 steps with 288751 atoms

99.8% CPU use with 104 MPI tasks x 1 OpenMP threads

Minimization stats:
  Stopping criterion = energy tolerance
  Energy initial, next-to-last, final = 
     -1152433.50689306  -1152449.45035286  -1152449.45035286
  Force two-norm initial, final = 86.906985 9.0123019e-05
  Force max component initial, final = 57.084364 2.4060070e-05
  Final line search alpha, max atom move = 1.0000000 2.4060070e-05
  Iterations, force evaluations = 177 346

MPI task timing breakdown:
Section |  min time  |  avg time  |  max time  |%varavg| %total
---------------------------------------------------------------
Pair    | 0.5458     | 1.4565     | 1.9002     |  32.0 | 70.58
Neigh   | 5.1586e-05 | 0.014733   | 0.021521   |   5.0 |  0.71
Comm    | 0.037909   | 0.32932    | 0.98215    |  47.7 | 15.96
Output  | 0          | 0          | 0          |   0.0 |  0.00
Modify  | 2.04e-05   | 0.0018596  | 0.0047472  |   2.7 |  0.09
Other   |            | 0.2611     |            |       | 12.65

Nlocal:        2776.45 ave        3960 max           0 min
Histogram: 8 4 4 0 4 12 8 2 28 34
Nghost:        3879.03 ave        5425 max         232 min
Histogram: 8 0 8 0 16 0 8 8 16 40
Neighs:        79213.6 ave      115437 max           0 min
Histogram: 8 4 4 0 10 6 8 8 24 32

Total # of neighbors = 8238211
Ave neighs/atom = 28.530502
Neighbor list builds = 5
Dangerous builds = 0
Setting atom values ...
  1 settings made for x
  1 settings made for y
  1 settings made for z
Setting up cg style minimization ...
  Unit style    : metal
  Current step  : 177
Per MPI rank memory allocation (min/avg/max) = 5.441 | 5.816 | 6.074 Mbytes
Step PotEng KinEng TotEng v_fx v_fy v_fz 
     177   -1152449.4            0   -1152449.4  0.010884343 -0.014815184 -0.020163116 
     272   -1152449.5            0   -1152449.5 3.8599225e-05 -1.6045929e-05 4.5009514e-05 
Loop time of 1.12642 on 104 procs for 95 steps with 288751 atoms

99.9% CPU use with 104 MPI tasks x 1 OpenMP threads

Minimization stats:
  Stopping criterion = energy tolerance
  Energy initial, next-to-last, final = 
     -1152449.44955125  -1152449.45008143  -1152449.45008143
  Force two-norm initial, final = 0.10848084 0.00023423937
  Force max component initial, final = 0.048240196 4.7977668e-05
  Final line search alpha, max atom move = 1.0000000 4.7977668e-05
  Iterations, force evaluations = 95 190

MPI task timing breakdown:
Section |  min time  |  avg time  |  max time  |%varavg| %total
---------------------------------------------------------------
Pair    | 0.28868    | 0.80218    | 1.0618     |  24.2 | 71.21
Neigh   | 0          | 0          | 0          |   0.0 |  0.00
Comm    | 0.018722   | 0.18418    | 0.54843    |  35.2 | 16.35
Output  | 0          | 0          | 0          |   0.0 |  0.00
Modify  | 1.2638e-05 | 0.0015716  | 0.0033575  |   1.9 |  0.14
Other   |            | 0.1385     |            |       | 12.30

Nlocal:        2776.45 ave        3960 max           0 min
Histogram: 8 4 4 0 4 12 8 2 28 34
Nghost:        3879.03 ave        5424 max         232 min
Histogram: 8 0 8 0 16 0 8 8 16 40
Neighs:        79213.4 ave      115434 max           0 min
Histogram: 8 4 4 0 10 6 8 8 24 32

Total # of neighbors = 8238198
Ave neighs/atom = 28.530457
Neighbor list builds = 0
Dangerous builds = 0
Setting atom values ...
  1 settings made for x
  1 settings made for y
  1 settings made for z
Setting up cg style minimization ...
  Unit style    : metal
  Current step  : 272
Per MPI rank memory allocation (min/avg/max) = 5.441 | 5.816 | 6.074 Mbytes
Step PotEng KinEng TotEng v_fx v_fy v_fz 
     272   -1152449.4            0   -1152449.4   0.01839354 -0.022490041 -0.032430098 
     489   -1152449.4            0   -1152449.4 -1.2665514e-06 2.0129713e-06 4.2120606e-06 
Loop time of 2.54867 on 104 procs for 217 steps with 288751 atoms

99.9% CPU use with 104 MPI tasks x 1 OpenMP threads

Minimization stats:
  Stopping criterion = energy tolerance
  Energy initial, next-to-last, final = 
       -1152449.447055   -1152449.4484947   -1152449.4484947
  Force two-norm initial, final = 0.17817723 2.5110014e-05
  Force max component initial, final = 0.077713152 5.8324841e-06
  Final line search alpha, max atom move = 1.0000000 5.8324841e-06
  Iterations, force evaluations = 217 434

MPI task timing breakdown:
Section |  min time  |  avg time  |  max time  |%varavg| %total
---------------------------------------------------------------
Pair    | 0.65596    | 1.8184     | 2.3827     |  36.5 | 71.35
Neigh   | 0          | 0          | 0          |   0.0 |  0.00
Comm    | 0.040858   | 0.41219    | 1.2358     |  53.6 | 16.17
Output  | 0          | 0          | 0          |   0.0 |  0.00
Modify  | 2.7897e-05 | 0.0035763  | 0.0076548  |   2.8 |  0.14
Other   |            | 0.3145     |            |       | 12.34

Nlocal:        2776.45 ave        3960 max           0 min
Histogram: 8 4 4 0 4 12 8 2 28 34
Nghost:        3879.03 ave        5424 max         232 min
Histogram: 8 0 8 0 16 0 8 8 16 40
Neighs:        79213.5 ave      115433 max           0 min
Histogram: 8 4 4 0 10 6 8 8 24 32

Total # of neighbors = 8238200
Ave neighs/atom = 28.530464
Neighbor list builds = 0
Dangerous builds = 0
The dot product: -4.96623454072944e-09
Setting atom values ...
  1 settings made for x
  1 settings made for y
  1 settings made for z
Setting up cg style minimization ...
  Unit style    : metal
  Current step  : 489
Per MPI rank memory allocation (min/avg/max) = 5.441 | 5.816 | 6.074 Mbytes
Step PotEng KinEng TotEng v_fx v_fy v_fz 
     489   -1152449.4            0   -1152449.4  0.018734188  -0.02133025 -0.031695248 
     614   -1152449.4            0   -1152449.4 -1.1355973e-05 1.5178592e-05 3.1881193e-05 
Loop time of 1.45143 on 104 procs for 125 steps with 288751 atoms

99.9% CPU use with 104 MPI tasks x 1 OpenMP threads

Minimization stats:
  Stopping criterion = energy tolerance
  Energy initial, next-to-last, final = 
     -1152449.44403778  -1152449.44546624  -1152449.44546624
  Force two-norm initial, final = 0.17695105 0.00011974831
  Force max component initial, final = 0.075500532 3.1881193e-05
  Final line search alpha, max atom move = 1.0000000 3.1881193e-05
  Iterations, force evaluations = 125 250

MPI task timing breakdown:
Section |  min time  |  avg time  |  max time  |%varavg| %total
---------------------------------------------------------------
Pair    | 0.37828    | 1.0534     | 1.372      |  27.7 | 72.57
Neigh   | 0          | 0          | 0          |   0.0 |  0.00
Comm    | 0.022052   | 0.23517    | 0.71198    |  41.2 | 16.20
Output  | 0          | 0          | 0          |   0.0 |  0.00
Modify  | 1.5758e-05 | 0.0020615  | 0.004392   |   2.2 |  0.14
Other   |            | 0.1608     |            |       | 11.08

Nlocal:        2776.45 ave        3960 max           0 min
Histogram: 8 4 4 0 4 12 8 2 28 34
Nghost:        3879.03 ave        5424 max         232 min
Histogram: 8 0 8 0 16 0 8 8 16 40
Neighs:        79213.5 ave      115433 max           0 min
Histogram: 8 4 4 0 10 6 8 8 24 32

Total # of neighbors = 8238201
Ave neighs/atom = 28.530467
Neighbor list builds = 0
Dangerous builds = 0
The dot product: -4.13486334456497e-08
Setting atom values ...
  1 settings made for x
  1 settings made for y
  1 settings made for z
Setting up cg style minimization ...
  Unit style    : metal
  Current step  : 614
Per MPI rank memory allocation (min/avg/max) = 5.441 | 5.816 | 6.074 Mbytes
Step PotEng KinEng TotEng v_fx v_fy v_fz 
     614   -1152449.4            0   -1152449.4  0.019620229 -0.021100233  -0.03086054 
     724   -1152449.4            0   -1152449.4 -2.2387704e-05 9.9158661e-06 -6.8482593e-05 
Loop time of 1.27346 on 104 procs for 110 steps with 288751 atoms

99.9% CPU use with 104 MPI tasks x 1 OpenMP threads

Minimization stats:
  Stopping criterion = energy tolerance
  Energy initial, next-to-last, final = 
      -1152449.4395335  -1152449.44095377  -1152449.44095377
  Force two-norm initial, final = 0.17607355 0.00021797054
  Force max component initial, final = 0.073369586 6.8482593e-05
  Final line search alpha, max atom move = 1.0000000 6.8482593e-05
  Iterations, force evaluations = 110 220

MPI task timing breakdown:
Section |  min time  |  avg time  |  max time  |%varavg| %total
---------------------------------------------------------------
Pair    | 0.33126    | 0.92083    | 1.2056     |  25.9 | 72.31
Neigh   | 0          | 0          | 0          |   0.0 |  0.00
Comm    | 0.019767   | 0.20647    | 0.62391    |  38.4 | 16.21
Output  | 0          | 0          | 0          |   0.0 |  0.00
Modify  | 1.3965e-05 | 0.0018153  | 0.0038715  |   2.0 |  0.14
Other   |            | 0.1443     |            |       | 11.33

Nlocal:        2776.45 ave        3959 max           0 min
Histogram: 8 4 4 0 4 12 8 2 28 34
Nghost:        3879.03 ave        5424 max         232 min
Histogram: 8 0 8 0 16 0 8 8 16 40
Neighs:        79213.5 ave      115392 max           0 min
Histogram: 8 4 4 0 10 6 8 8 24 32

Total # of neighbors = 8238201
Ave neighs/atom = 28.530467
Neighbor list builds = 0
Dangerous builds = 0
The dot product: 1.28827783076714e-07
Setting atom values ...
  1 settings made for x
  1 settings made for y
  1 settings made for z
Setting up cg style minimization ...
  Unit style    : metal
  Current step  : 724
Per MPI rank memory allocation (min/avg/max) = 5.441 | 5.816 | 6.074 Mbytes
Step PotEng KinEng TotEng v_fx v_fy v_fz 
     724   -1152449.4            0   -1152449.4   0.02102332 -0.021666574 -0.030632142 
     833   -1152449.4            0   -1152449.4 2.262738e-05 -1.4974803e-05 4.5315239e-05 
Loop time of 1.27685 on 104 procs for 109 steps with 288751 atoms

99.9% CPU use with 104 MPI tasks x 1 OpenMP threads

Minimization stats:
  Stopping criterion = energy tolerance
  Energy initial, next-to-last, final = 
     -1152449.43351026  -1152449.43492257  -1152449.43492257
  Force two-norm initial, final = 0.17547676 0.00021122069
  Force max component initial, final = 0.072631468 4.5315239e-05
  Final line search alpha, max atom move = 1.0000000 4.5315239e-05
  Iterations, force evaluations = 109 218

MPI task timing breakdown:
Section |  min time  |  avg time  |  max time  |%varavg| %total
---------------------------------------------------------------
Pair    | 0.33039    | 0.91827    | 1.2035     |  25.9 | 71.92
Neigh   | 0          | 0          | 0          |   0.0 |  0.00
Comm    | 0.019701   | 0.20743    | 0.62402    |  38.0 | 16.25
Output  | 0          | 0          | 0          |   0.0 |  0.00
Modify  | 1.373e-05  | 0.0018032  | 0.0038641  |   2.0 |  0.14
Other   |            | 0.1493     |            |       | 11.70

Nlocal:        2776.45 ave        3959 max           0 min
Histogram: 8 4 4 0 4 12 8 2 28 34
Nghost:        3879.03 ave        5424 max         232 min
Histogram: 8 0 8 0 16 0 8 8 16 40
Neighs:        79213.5 ave      115391 max           0 min
Histogram: 8 4 4 0 10 6 8 8 24 32

Total # of neighbors = 8238201
Ave neighs/atom = 28.530467
Neighbor list builds = 0
Dangerous builds = 0
The dot product: -8.37896056622161e-08
Setting atom values ...
  1 settings made for x
  1 settings made for y
  1 settings made for z
Setting up cg style minimization ...
  Unit style    : metal
  Current step  : 833
Per MPI rank memory allocation (min/avg/max) = 5.441 | 5.816 | 6.074 Mbytes
Step PotEng KinEng TotEng v_fx v_fy v_fz 
     833   -1152449.4            0   -1152449.4  0.023033528 -0.022903297 -0.031033546 
    1000   -1152449.4            0   -1152449.4 1.8848043e-06 -1.3978435e-06 3.1820659e-06 
    1019   -1152449.4            0   -1152449.4 1.374813e-06 -1.3465853e-06 -1.6066082e-06 
Loop time of 2.14915 on 104 procs for 186 steps with 288751 atoms

99.9% CPU use with 104 MPI tasks x 1 OpenMP threads

Minimization stats:
  Stopping criterion = energy tolerance
  Energy initial, next-to-last, final = 
     -1152449.42594484  -1152449.42734788  -1152449.42734788
  Force two-norm initial, final = 0.17502569 1.0441695e-05
  Force max component initial, final = 0.07302291 2.1077561e-06
  Final line search alpha, max atom move = 1.0000000 2.1077561e-06
  Iterations, force evaluations = 186 372

MPI task timing breakdown:
Section |  min time  |  avg time  |  max time  |%varavg| %total
---------------------------------------------------------------
Pair    | 0.56335    | 1.5555     | 2.0215     |  33.6 | 72.38
Neigh   | 0          | 0          | 0          |   0.0 |  0.00
Comm    | 0.03311    | 0.34685    | 1.0545     |  50.1 | 16.14
Output  | 0.00015279 | 0.00016165 | 0.00030167 |   0.0 |  0.01
Modify  | 2.3361e-05 | 0.0030581  | 0.00655    |   2.6 |  0.14
Other   |            | 0.2436     |            |       | 11.34

Nlocal:        2776.45 ave        3958 max           0 min
Histogram: 8 4 4 0 4 12 8 2 28 34
Nghost:        3879.03 ave        5424 max         232 min
Histogram: 8 0 8 0 16 0 8 8 16 40
Neighs:        79213.5 ave      115354 max           0 min
Histogram: 8 4 4 0 10 6 8 8 24 32

Total # of neighbors = 8238203
Ave neighs/atom = 28.530474
Neighbor list builds = 0
Dangerous builds = 0
The dot product: 2.7888789357336e-09
Setting atom values ...
  1 settings made for x
  1 settings made for y
  1 settings made for z
Setting up cg style minimization ...
  Unit style    : metal
  Current step  : 1019
Per MPI rank memory allocation (min/avg/max) = 5.441 | 5.816 | 6.074 Mbytes
Step PotEng KinEng TotEng v_fx v_fy v_fz 
    1019   -1152449.4            0   -1152449.4  0.025751966 -0.024759925 -0.032585523 
    1135   -1152449.4            0   -1152449.4 -1.1954361e-05 8.0130009e-06 -3.9785543e-05 
Loop time of 1.35341 on 104 procs for 116 steps with 288751 atoms

99.9% CPU use with 104 MPI tasks x 1 OpenMP threads

Minimization stats:
  Stopping criterion = energy tolerance
  Energy initial, next-to-last, final = 
     -1152449.41682276   -1152449.4182172   -1152449.4182172
  Force two-norm initial, final = 0.17481203 0.00018683115
  Force max component initial, final = 0.073788075 3.9785543e-05
  Final line search alpha, max atom move = 1.0000000 3.9785543e-05
  Iterations, force evaluations = 116 232

MPI task timing breakdown:
Section |  min time  |  avg time  |  max time  |%varavg| %total
---------------------------------------------------------------
Pair    | 0.35092    | 0.97564    | 1.2775     |  26.6 | 72.09
Neigh   | 0          | 0          | 0          |   0.0 |  0.00
Comm    | 0.021252   | 0.22072    | 0.67054    |  39.2 | 16.31
Output  | 0          | 0          | 0          |   0.0 |  0.00
Modify  | 1.4658e-05 | 0.0019133  | 0.0041234  |   2.1 |  0.14
Other   |            | 0.1551     |            |       | 11.46

Nlocal:        2776.45 ave        3957 max           0 min
Histogram: 8 4 4 0 4 12 8 2 28 34
Nghost:        3879.03 ave        5424 max         232 min
Histogram: 8 0 8 0 16 0 8 8 16 40
Neighs:        79213.5 ave      115319 max           0 min
Histogram: 8 4 4 0 10 6 8 8 24 32

Total # of neighbors = 8238204
Ave neighs/atom = 28.530478
Neighbor list builds = 0
Dangerous builds = 0
The dot product: 6.39572061821089e-08
Setting atom values ...
  1 settings made for x
  1 settings made for y
  1 settings made for z
Setting up cg style minimization ...
  Unit style    : metal
  Current step  : 1135
Per MPI rank memory allocation (min/avg/max) = 5.441 | 5.816 | 6.074 Mbytes
Step PotEng KinEng TotEng v_fx v_fy v_fz 
    1135   -1152449.4            0   -1152449.4  0.029418017 -0.027227295  -0.03528427 
    1281   -1152449.4            0   -1152449.4 -7.1454267e-06 5.6502683e-06 -1.306734e-05 
Loop time of 1.68586 on 104 procs for 146 steps with 288751 atoms

99.9% CPU use with 104 MPI tasks x 1 OpenMP threads

Minimization stats:
  Stopping criterion = energy tolerance
  Energy initial, next-to-last, final = 
      -1152449.4061454  -1152449.40753484  -1152449.40753484
  Force two-norm initial, final = 0.17491388 6.0662907e-05
  Force max component initial, final = 0.07481471 1.3067340e-05
  Final line search alpha, max atom move = 1.0000000 1.3067340e-05
  Iterations, force evaluations = 146 292

MPI task timing breakdown:
Section |  min time  |  avg time  |  max time  |%varavg| %total
---------------------------------------------------------------
Pair    | 0.44       | 1.2222     | 1.5988     |  29.9 | 72.50
Neigh   | 0          | 0          | 0          |   0.0 |  0.00
Comm    | 0.026257   | 0.27295    | 0.82698    |  44.4 | 16.19
Output  | 0          | 0          | 0          |   0.0 |  0.00
Modify  | 1.7907e-05 | 0.002407   | 0.0051092  |   2.3 |  0.14
Other   |            | 0.1883     |            |       | 11.17

Nlocal:        2776.45 ave        3956 max           0 min
Histogram: 8 4 4 0 4 12 8 1 29 34
Nghost:        3879.03 ave        5424 max         232 min
Histogram: 8 0 8 0 16 0 8 8 16 40
Neighs:        79213.5 ave      115286 max           0 min
Histogram: 8 4 4 0 10 6 8 8 24 32

Total # of neighbors = 8238201
Ave neighs/atom = 28.530467
Neighbor list builds = 0
Dangerous builds = 0
The dot product: 1.532650595573e-08
Setting atom values ...
  1 settings made for x
  1 settings made for y
  1 settings made for z
Setting up cg style minimization ...
  Unit style    : metal
  Current step  : 1281
Per MPI rank memory allocation (min/avg/max) = 5.441 | 5.816 | 6.074 Mbytes
Step PotEng KinEng TotEng v_fx v_fy v_fz 
    1281   -1152449.4            0   -1152449.4  0.034474235 -0.030403615  -0.03947867 
    1390   -1152449.4            0   -1152449.4 3.2785192e-05 -2.6489102e-05 6.1733036e-05 
Loop time of 1.26715 on 104 procs for 109 steps with 288751 atoms

99.9% CPU use with 104 MPI tasks x 1 OpenMP threads

Minimization stats:
  Stopping criterion = energy tolerance
  Energy initial, next-to-last, final = 
     -1152449.39393767  -1152449.39533358  -1152449.39533358
  Force two-norm initial, final = 0.17557972 0.00024849834
  Force max component initial, final = 0.076058272 6.1733036e-05
  Final line search alpha, max atom move = 1.0000000 6.1733036e-05
  Iterations, force evaluations = 109 218

MPI task timing breakdown:
Section |  min time  |  avg time  |  max time  |%varavg| %total
---------------------------------------------------------------
Pair    | 0.32937    | 0.91959    | 1.1989     |  25.9 | 72.57
Neigh   | 0          | 0          | 0          |   0.0 |  0.00
Comm    | 0.018851   | 0.20687    | 0.62467    |  38.2 | 16.33
Output  | 0          | 0          | 0          |   0.0 |  0.00
Modify  | 1.3352e-05 | 0.0017991  | 0.0038376  |   2.0 |  0.14
Other   |            | 0.1389     |            |       | 10.96

Nlocal:        2776.45 ave        3953 max           0 min
Histogram: 8 4 4 0 4 12 8 2 28 34
Nghost:        3879.03 ave        5424 max         232 min
Histogram: 8 0 8 0 16 0 8 8 16 40
Neighs:        79213.4 ave      115189 max           0 min
Histogram: 8 4 4 0 10 6 8 8 24 32

Total # of neighbors = 8238197
Ave neighs/atom = 28.530454
Neighbor list builds = 0
Dangerous builds = 0
The dot product: -6.69415436148166e-08
Setting atom values ...
  1 settings made for x
  1 settings made for y
  1 settings made for z
Setting up cg style minimization ...
  Unit style    : metal
  Current step  : 1390
Per MPI rank memory allocation (min/avg/max) = 5.441 | 5.816 | 6.074 Mbytes
Step PotEng KinEng TotEng v_fx v_fy v_fz 
    1390   -1152449.4            0   -1152449.4  0.043203323 -0.035636063 -0.048379794 
    1503   -1152449.4            0   -1152449.4 3.5581243e-05 -2.9299592e-05 5.7241595e-05 
Loop time of 1.3125 on 104 procs for 113 steps with 288751 atoms

99.9% CPU use with 104 MPI tasks x 1 OpenMP threads

Minimization stats:
  Stopping criterion = energy tolerance
  Energy initial, next-to-last, final = 
     -1152449.38028955  -1152449.38176705  -1152449.38176705
  Force two-norm initial, final = 0.17865664 0.00026221414
  Force max component initial, final = 0.077599826 5.7241595e-05
  Final line search alpha, max atom move = 1.0000000 5.7241595e-05
  Iterations, force evaluations = 113 226

MPI task timing breakdown:
Section |  min time  |  avg time  |  max time  |%varavg| %total
---------------------------------------------------------------
Pair    | 0.34207    | 0.95042    | 1.2386     |  26.4 | 72.41
Neigh   | 0          | 0          | 0          |   0.0 |  0.00
Comm    | 0.01964    | 0.21389    | 0.64501    |  39.1 | 16.30
Output  | 0          | 0          | 0          |   0.0 |  0.00
Modify  | 1.4297e-05 | 0.0018696  | 0.0045508  |   2.1 |  0.14
Other   |            | 0.1463     |            |       | 11.15

Nlocal:        2776.45 ave        3947 max           0 min
Histogram: 8 4 4 0 4 12 8 2 26 36
Nghost:        3879.07 ave        5424 max         232 min
Histogram: 8 0 8 0 16 0 8 8 16 40
Neighs:        79213.4 ave      115014 max           0 min
Histogram: 8 4 4 0 10 6 8 8 24 32

Total # of neighbors = 8238198
Ave neighs/atom = 28.530457
Neighbor list builds = 0
Dangerous builds = 0
The dot product: -4.83895031892379e-08
Setting atom values ...
  1 settings made for x
  1 settings made for y
  1 settings made for z
Setting up cg style minimization ...
  Unit style    : metal
  Current step  : 1503
Per MPI rank memory allocation (min/avg/max) = 5.441 | 5.816 | 6.074 Mbytes
Step PotEng KinEng TotEng v_fx v_fy v_fz 
    1503   -1152449.4            0   -1152449.4   0.06148586 -0.044548201 -0.067772419 
    1720   -1152449.4            0   -1152449.4 7.2654238e-06 -5.2398925e-06 -8.6142966e-06 
Loop time of 2.54454 on 104 procs for 217 steps with 288751 atoms

99.9% CPU use with 104 MPI tasks x 1 OpenMP threads

Minimization stats:
  Stopping criterion = energy tolerance
  Energy initial, next-to-last, final = 
     -1152449.36559119  -1152449.36854735  -1152449.36854735
  Force two-norm initial, final = 0.18961637 6.1672733e-05
  Force max component initial, final = 0.079662592 1.7601114e-05
  Final line search alpha, max atom move = 1.0000000 1.7601114e-05
  Iterations, force evaluations = 217 434

MPI task timing breakdown:
Section |  min time  |  avg time  |  max time  |%varavg| %total
---------------------------------------------------------------
Pair    | 0.65338    | 1.8231     | 2.4107     |  36.5 | 71.65
Neigh   | 0          | 0          | 0          |   0.0 |  0.00
Comm    | 0.039699   | 0.41577    | 1.2279     |  53.1 | 16.34
Output  | 0          | 0          | 0          |   0.0 |  0.00
Modify  | 2.7322e-05 | 0.0035688  | 0.0075799  |   2.8 |  0.14
Other   |            | 0.3021     |            |       | 11.87

Nlocal:        2776.45 ave        3944 max           0 min
Histogram: 8 4 4 0 4 12 8 2 26 36
Nghost:        3879.07 ave        5424 max         232 min
Histogram: 8 0 8 0 16 0 8 8 16 40
Neighs:        79213.4 ave      114919 max           0 min
Histogram: 8 4 4 0 10 6 8 8 22 34

Total # of neighbors = 8238194
Ave neighs/atom = 28.530443
Neighbor list builds = 0
Dangerous builds = 0
The dot product: 6.31195352844551e-07
Setting atom values ...
  1 settings made for x
  1 settings made for y
  1 settings made for z
Setting up cg style minimization ...
  Unit style    : metal
  Current step  : 1720
Per MPI rank memory allocation (min/avg/max) = 5.441 | 5.816 | 6.074 Mbytes
Step PotEng KinEng TotEng v_fx v_fy v_fz 
    1720   -1152449.4            0   -1152449.4   0.15858026 -0.054509695  -0.12931973 
    1930   -1152449.4            0   -1152449.4 -7.0065948e-06 7.1892627e-06 -1.7257443e-05 
Loop time of 2.41264 on 104 procs for 210 steps with 288751 atoms

99.9% CPU use with 104 MPI tasks x 1 OpenMP threads

Minimization stats:
  Stopping criterion = energy tolerance
  Energy initial, next-to-last, final = 
     -1152449.35469419  -1152449.36172491  -1152449.36172491
  Force two-norm initial, final = 0.25802322 0.00014172608
  Force max component initial, final = 0.15858026 2.7924286e-05
  Final line search alpha, max atom move = 1.0000000 2.7924286e-05
  Iterations, force evaluations = 210 420

MPI task timing breakdown:
Section |  min time  |  avg time  |  max time  |%varavg| %total
---------------------------------------------------------------
Pair    | 0.63865    | 1.7561     | 2.2728     |  35.6 | 72.79
Neigh   | 1.0055e-05 | 0.0029744  | 0.0043343  |   2.2 |  0.12
Comm    | 0.04264    | 0.39142    | 1.1899     |  53.4 | 16.22
Output  | 0          | 0          | 0          |   0.0 |  0.00
Modify  | 2.6041e-05 | 0.003456   | 0.0073722  |   2.8 |  0.14
Other   |            | 0.2587     |            |       | 10.72

Nlocal:        2776.45 ave        3946 max           0 min
Histogram: 8 4 4 0 4 12 8 2 26 36
Nghost:        3879.03 ave        5424 max         232 min
Histogram: 8 0 8 0 16 0 8 8 16 40
Neighs:        79213.4 ave      114991 max           0 min
Histogram: 8 4 4 0 10 6 8 8 24 32

Total # of neighbors = 8238197
Ave neighs/atom = 28.530454
Neighbor list builds = 1
Dangerous builds = 0
The dot product: 1.18544243191232e-07
Setting atom values ...
  1 settings made for x
  1 settings made for y
  1 settings made for z
Setting up cg style minimization ...
  Unit style    : metal
  Current step  : 1930
Per MPI rank memory allocation (min/avg/max) = 5.441 | 5.816 | 6.074 Mbytes
Step PotEng KinEng TotEng v_fx v_fy v_fz 
    1930   -1152449.3            0   -1152449.3   0.14258989 -0.013193927  -0.07684177 
    2000   -1152449.4            0   -1152449.4 0.00018119024 0.00019627901 -0.00073170803 
    2127   -1152449.4            0   -1152449.4 4.5750456e-06 -1.6685713e-05 4.5934682e-05 
Loop time of 2.2781 on 104 procs for 197 steps with 288751 atoms

99.9% CPU use with 104 MPI tasks x 1 OpenMP threads

Minimization stats:
  Stopping criterion = energy tolerance
  Energy initial, next-to-last, final = 
     -1152449.34985997   -1152449.3536659   -1152449.3536659
  Force two-norm initial, final = 0.21258944 0.00015138293
  Force max component initial, final = 0.14258989 4.5934682e-05
  Final line search alpha, max atom move = 1.0000000 4.5934682e-05
  Iterations, force evaluations = 197 394

MPI task timing breakdown:
Section |  min time  |  avg time  |  max time  |%varavg| %total
---------------------------------------------------------------
Pair    | 0.59507    | 1.6519     | 2.1553     |  34.7 | 72.51
Neigh   | 0          | 0          | 0          |   0.0 |  0.00
Comm    | 0.037062   | 0.36999    | 1.1273     |  51.3 | 16.24
Output  | 9.2036e-05 | 9.8947e-05 | 0.0002097  |   0.0 |  0.00
Modify  | 2.3926e-05 | 0.0032407  | 0.0069265  |   2.7 |  0.14
Other   |            | 0.2528     |            |       | 11.10

Nlocal:        2776.45 ave        3947 max           0 min
Histogram: 8 4 4 0 4 12 8 1 27 36
Nghost:        3879.03 ave        5424 max         232 min
Histogram: 8 0 8 0 16 0 8 8 16 40
Neighs:        79213.5 ave      115005 max           0 min
Histogram: 8 4 4 0 10 6 8 8 24 32

Total # of neighbors = 8238202
Ave neighs/atom = 28.530471
Neighbor list builds = 0
Dangerous builds = 0
The dot product: -5.69183275217872e-07
Setting atom values ...
  1 settings made for x
  1 settings made for y
  1 settings made for z
Setting up cg style minimization ...
  Unit style    : metal
  Current step  : 2127
Per MPI rank memory allocation (min/avg/max) = 5.441 | 5.816 | 6.074 Mbytes
Step PotEng KinEng TotEng v_fx v_fy v_fz 
    2127   -1152449.3            0   -1152449.3  0.079194586 0.0034106012 -0.036919025 
    2310   -1152449.3            0   -1152449.3 -8.4637245e-06 5.108174e-07 1.753183e-06 
Loop time of 2.11108 on 104 procs for 183 steps with 288751 atoms

99.9% CPU use with 104 MPI tasks x 1 OpenMP threads

Minimization stats:
  Stopping criterion = energy tolerance
  Energy initial, next-to-last, final = 
     -1152449.34238861  -1152449.34472549  -1152449.34472549
  Force two-norm initial, final = 0.1627442 3.0543832e-05
  Force max component initial, final = 0.079382996 8.5002694e-06
  Final line search alpha, max atom move = 1.0000000 8.5002694e-06
  Iterations, force evaluations = 183 366

MPI task timing breakdown:
Section |  min time  |  avg time  |  max time  |%varavg| %total
---------------------------------------------------------------
Pair    | 0.55261    | 1.5295     | 2.0024     |  33.4 | 72.45
Neigh   | 0          | 0          | 0          |   0.0 |  0.00
Comm    | 0.031677   | 0.3415     | 1.0367     |  49.6 | 16.18
Output  | 0          | 0          | 0          |   0.0 |  0.00
Modify  | 2.2291e-05 | 0.0030079  | 0.0064186  |   2.6 |  0.14
Other   |            | 0.237      |            |       | 11.23

Nlocal:        2776.45 ave        3947 max           0 min
Histogram: 8 4 4 0 4 12 8 0 28 36
Nghost:        3879.03 ave        5424 max         232 min
Histogram: 8 0 8 0 16 0 8 8 16 40
Neighs:        79213.5 ave      115005 max           0 min
Histogram: 8 4 4 0 10 6 8 8 24 32

Total # of neighbors = 8238203
Ave neighs/atom = 28.530474
Neighbor list builds = 0
Dangerous builds = 0
The dot product: -1.67969808781447e-07
Setting atom values ...
  1 settings made for x
  1 settings made for y
  1 settings made for z
Setting up cg style minimization ...
  Unit style    : metal
  Current step  : 2310
Per MPI rank memory allocation (min/avg/max) = 5.441 | 5.816 | 6.074 Mbytes
Step PotEng KinEng TotEng v_fx v_fy v_fz 
    2310   -1152449.3            0   -1152449.3  0.036232465   0.01008257 -0.028654518 
    2552   -1152449.3            0   -1152449.3 -2.4392872e-05 -1.1530468e-05 2.9815406e-05 
Loop time of 2.79482 on 104 procs for 242 steps with 288751 atoms

99.9% CPU use with 104 MPI tasks x 1 OpenMP threads

Minimization stats:
  Stopping criterion = energy tolerance
  Energy initial, next-to-last, final = 
     -1152449.33518085  -1152449.34516543  -1152449.34516543
  Force two-norm initial, final = 0.15180108 0.00012763848
  Force max component initial, final = 0.074117227 2.9953533e-05
  Final line search alpha, max atom move = 1.0000000 2.9953533e-05
  Iterations, force evaluations = 242 484

MPI task timing breakdown:
Section |  min time  |  avg time  |  max time  |%varavg| %total
---------------------------------------------------------------
Pair    | 0.73679    | 2.0306     | 2.6365     |  38.3 | 72.66
Neigh   | 1.0175e-05 | 0.002969   | 0.0042885  |   2.2 |  0.11
Comm    | 0.041527   | 0.4523     | 1.379      |  57.3 | 16.18
Output  | 0          | 0          | 0          |   0.0 |  0.00
Modify  | 3.0426e-05 | 0.003977   | 0.0084941  |   3.0 |  0.14
Other   |            | 0.305      |            |       | 10.91

Nlocal:        2776.45 ave        3951 max           0 min
Histogram: 8 4 4 0 4 12 8 0 30 34
Nghost:        3879.03 ave        5424 max         232 min
Histogram: 8 0 8 0 16 0 8 8 16 40
Neighs:        79213.5 ave      115131 max           0 min
Histogram: 8 4 4 0 10 6 8 8 24 32

Total # of neighbors = 8238202
Ave neighs/atom = 28.530471
Neighbor list builds = 1
Dangerous builds = 0
The dot product: -1.40596817687675e-06
Setting atom values ...
  1 settings made for x
  1 settings made for y
  1 settings made for z
Setting up cg style minimization ...
  Unit style    : metal
  Current step  : 2552
Per MPI rank memory allocation (min/avg/max) = 5.441 | 5.816 | 6.074 Mbytes
Step PotEng KinEng TotEng v_fx v_fy v_fz 
    2552   -1152449.3            0   -1152449.3 -0.0050080034 -0.021840288  0.036535734 
    2683   -1152449.3            0   -1152449.3 -4.4409094e-06 7.6155069e-07 -8.9563617e-07 
Loop time of 1.52025 on 104 procs for 131 steps with 288751 atoms

99.9% CPU use with 104 MPI tasks x 1 OpenMP threads

Minimization stats:
  Stopping criterion = energy tolerance
  Energy initial, next-to-last, final = 
     -1152449.34736081  -1152449.34836176  -1152449.34836176
  Force two-norm initial, final = 0.13183525 4.5206529e-05
  Force max component initial, final = 0.052462087 1.0819331e-05
  Final line search alpha, max atom move = 1.0000000 1.0819331e-05
  Iterations, force evaluations = 131 262

MPI task timing breakdown:
Section |  min time  |  avg time  |  max time  |%varavg| %total
---------------------------------------------------------------
Pair    | 0.39545    | 1.0959     | 1.4315     |  28.3 | 72.09
Neigh   | 0          | 0          | 0          |   0.0 |  0.00
Comm    | 0.022922   | 0.24543    | 0.74107    |  41.9 | 16.14
Output  | 0          | 0          | 0          |   0.0 |  0.00
Modify  | 1.6285e-05 | 0.0021591  | 0.0046015  |   2.2 |  0.14
Other   |            | 0.1768     |            |       | 11.63

Nlocal:        2776.45 ave        3960 max           0 min
Histogram: 8 4 4 0 4 12 8 2 28 34
Nghost:        3879.03 ave        5424 max         232 min
Histogram: 8 0 8 0 16 0 8 8 16 40
Neighs:        79213.4 ave      115442 max           0 min
Histogram: 8 4 4 0 10 6 8 8 24 32

Total # of neighbors = 8238191
Ave neighs/atom = 28.530433
Neighbor list builds = 0
Dangerous builds = 0
The dot product: -3.10453914896204e-10
Setting atom values ...
  1 settings made for x
  1 settings made for y
  1 settings made for z
Setting up cg style minimization ...
  Unit style    : metal
  Current step  : 2683
Per MPI rank memory allocation (min/avg/max) = 5.441 | 5.816 | 6.074 Mbytes
Step PotEng KinEng TotEng v_fx v_fy v_fz 
    2683   -1152449.3            0   -1152449.3 0.00086382574 -0.010943625  0.018504124 
    2847   -1152449.4            0   -1152449.4 3.6701197e-05 2.395286e-05 -4.3938208e-05 
Loop time of 1.9532 on 104 procs for 164 steps with 288751 atoms

99.9% CPU use with 104 MPI tasks x 1 OpenMP threads

Minimization stats:
  Stopping criterion = energy tolerance
  Energy initial, next-to-last, final = 
     -1152449.34965417  -1152449.35055869  -1152449.35055869
  Force two-norm initial, final = 0.12503989 0.00021018136
  Force max component initial, final = 0.052999245 4.3938208e-05
  Final line search alpha, max atom move = 1.0000000 4.3938208e-05
  Iterations, force evaluations = 164 328

MPI task timing breakdown:
Section |  min time  |  avg time  |  max time  |%varavg| %total
---------------------------------------------------------------
Pair    | 0.49474    | 1.3909     | 1.8127     |  31.6 | 71.21
Neigh   | 0          | 0          | 0          |   0.0 |  0.00
Comm    | 0.03498    | 0.31869    | 0.95562    |  46.9 | 16.32
Output  | 0          | 0          | 0          |   0.0 |  0.00
Modify  | 1.9729e-05 | 0.0026982  | 0.0057624  |   2.5 |  0.14
Other   |            | 0.2409     |            |       | 12.34

Nlocal:        2776.45 ave        3960 max           0 min
Histogram: 8 4 4 0 4 12 8 2 28 34
Nghost:        3879.03 ave        5424 max         232 min
Histogram: 8 0 8 0 16 0 8 8 16 40
Neighs:        79213.4 ave      115443 max           0 min
Histogram: 8 4 4 0 10 6 8 8 24 32

Total # of neighbors = 8238193
Ave neighs/atom = 28.530440
Neighbor list builds = 0
Dangerous builds = 0
The dot product: -9.82689719954989e-10
Setting atom values ...
  1 settings made for x
  1 settings made for y
  1 settings made for z
Setting up cg style minimization ...
  Unit style    : metal
  Current step  : 2847
Per MPI rank memory allocation (min/avg/max) = 5.441 | 5.816 | 6.074 Mbytes
Step PotEng KinEng TotEng v_fx v_fy v_fz 
    2847   -1152449.4            0   -1152449.4 0.00061174421 -0.011970665  0.020288132 
    3000   -1152449.4            0   -1152449.4 -3.0948665e-06 -1.5151709e-05 2.602099e-05 
    3054   -1152449.4            0   -1152449.4 6.8651803e-06 7.3431478e-06 -1.3084483e-05 
Loop time of 2.39727 on 104 procs for 207 steps with 288751 atoms

99.9% CPU use with 104 MPI tasks x 1 OpenMP threads

Minimization stats:
  Stopping criterion = energy tolerance
  Energy initial, next-to-last, final = 
     -1152449.35063188  -1152449.35153375  -1152449.35153375
  Force two-norm initial, final = 0.12554594 6.2502593e-05
  Force max component initial, final = 0.052648371 1.3084483e-05
  Final line search alpha, max atom move = 1.0000000 1.3084483e-05
  Iterations, force evaluations = 207 414

MPI task timing breakdown:
Section |  min time  |  avg time  |  max time  |%varavg| %total
---------------------------------------------------------------
Pair    | 0.62507    | 1.7342     | 2.2579     |  35.6 | 72.34
Neigh   | 0          | 0          | 0          |   0.0 |  0.00
Comm    | 0.036587   | 0.38892    | 1.1793     |  53.0 | 16.22
Output  | 0.00013684 | 0.00013993 | 0.00027681 |   0.0 |  0.01
Modify  | 2.6059e-05 | 0.0034005  | 0.0072976  |   2.8 |  0.14
Other   |            | 0.2706     |            |       | 11.29

Nlocal:        2776.45 ave        3960 max           0 min
Histogram: 8 4 4 0 4 12 8 2 28 34
Nghost:        3879.03 ave        5424 max         232 min
Histogram: 8 0 8 0 16 0 8 8 16 40
Neighs:        79213.4 ave      115434 max           0 min
Histogram: 8 4 4 0 10 6 8 8 24 32

Total # of neighbors = 8238189
Ave neighs/atom = 28.530426
Neighbor list builds = 0
Dangerous builds = 0
The dot product: -6.41611329605449e-09
Setting atom values ...
  1 settings made for x
  1 settings made for y
  1 settings made for z
Setting up cg style minimization ...
  Unit style    : metal
  Current step  : 3054
Per MPI rank memory allocation (min/avg/max) = 5.441 | 5.816 | 6.074 Mbytes
Step PotEng KinEng TotEng v_fx v_fy v_fz 
    3054   -1152449.4            0   -1152449.4 0.00097362217 -0.011443034  0.019421133 
    3271   -1152449.4            0   -1152449.4 -6.4643013e-06 -5.1126525e-06 9.2813637e-06 
Loop time of 2.53136 on 104 procs for 217 steps with 288751 atoms

99.9% CPU use with 104 MPI tasks x 1 OpenMP threads

Minimization stats:
  Stopping criterion = energy tolerance
  Energy initial, next-to-last, final = 
     -1152449.35029576  -1152449.35119048  -1152449.35119048
  Force two-norm initial, final = 0.12510728 3.8830554e-05
  Force max component initial, final = 0.052447962 9.2813637e-06
  Final line search alpha, max atom move = 1.0000000 9.2813637e-06
  Iterations, force evaluations = 217 434

MPI task timing breakdown:
Section |  min time  |  avg time  |  max time  |%varavg| %total
---------------------------------------------------------------
Pair    | 0.6541     | 1.8265     | 2.3975     |  36.5 | 72.16
Neigh   | 0          | 0          | 0          |   0.0 |  0.00
Comm    | 0.036448   | 0.41189    | 1.2412     |  53.6 | 16.27
Output  | 0          | 0          | 0          |   0.0 |  0.00
Modify  | 2.5902e-05 | 0.003567   | 0.0076177  |   2.8 |  0.14
Other   |            | 0.2894     |            |       | 11.43

Nlocal:        2776.45 ave        3961 max           0 min
Histogram: 8 4 4 0 6 10 8 2 28 34
Nghost:        3879.03 ave        5424 max         232 min
Histogram: 8 0 8 0 16 0 8 8 16 40
Neighs:        79213.4 ave      115455 max           0 min
Histogram: 8 4 4 0 10 6 8 8 24 32

Total # of neighbors = 8238191
Ave neighs/atom = 28.530433
Neighbor list builds = 0
Dangerous builds = 0
The dot product: 4.00836697293248e-09
Setting atom values ...
  1 settings made for x
  1 settings made for y
  1 settings made for z
Setting up cg style minimization ...
  Unit style    : metal
  Current step  : 3271
Per MPI rank memory allocation (min/avg/max) = 5.441 | 5.816 | 6.074 Mbytes
Step PotEng KinEng TotEng v_fx v_fy v_fz 
    3271   -1152449.3            0   -1152449.3 0.0013175947 -0.010594169  0.018000432 
    3490   -1152449.3            0   -1152449.3 -6.147159e-06 -5.5866997e-06 1.0084775e-05 
Loop time of 2.55091 on 104 procs for 219 steps with 288751 atoms

99.9% CPU use with 104 MPI tasks x 1 OpenMP threads

Minimization stats:
  Stopping criterion = energy tolerance
  Energy initial, next-to-last, final = 
      -1152449.3486151  -1152449.34949767  -1152449.34949767
  Force two-norm initial, final = 0.12420283 3.6104694e-05
  Force max component initial, final = 0.052301624 1.0084775e-05
  Final line search alpha, max atom move = 1.0000000 1.0084775e-05
  Iterations, force evaluations = 219 438

MPI task timing breakdown:
Section |  min time  |  avg time  |  max time  |%varavg| %total
---------------------------------------------------------------
Pair    | 0.6606     | 1.8393     | 2.4158     |  36.7 | 72.10
Neigh   | 0          | 0          | 0          |   0.0 |  0.00
Comm    | 0.039817   | 0.41404    | 1.2459     |  54.4 | 16.23
Output  | 0          | 0          | 0          |   0.0 |  0.00
Modify  | 2.6772e-05 | 0.0036017  | 0.0076979  |   2.8 |  0.14
Other   |            | 0.294      |            |       | 11.52

Nlocal:        2776.45 ave        3961 max           0 min
Histogram: 8 4 4 0 6 10 8 2 28 34
Nghost:        3879.03 ave        5424 max         232 min
Histogram: 8 0 8 0 16 0 8 8 16 40
Neighs:        79213.4 ave      115456 max           0 min
Histogram: 8 4 4 0 10 6 8 8 24 32

Total # of neighbors = 8238191
Ave neighs/atom = 28.530433
Neighbor list builds = 0
Dangerous builds = 0
The dot product: 3.90116590243819e-09
Setting atom values ...
  1 settings made for x
  1 settings made for y
  1 settings made for z
Setting up cg style minimization ...
  Unit style    : metal
  Current step  : 3490
Per MPI rank memory allocation (min/avg/max) = 5.441 | 5.816 | 6.074 Mbytes
Step PotEng KinEng TotEng v_fx v_fy v_fz 
    3490   -1152449.3            0   -1152449.3 0.0014675137 -0.0095789189  0.016297315 
    3720   -1152449.3            0   -1152449.3 -4.9449791e-06 -2.5642626e-06 4.8190038e-06 
Loop time of 2.66491 on 104 procs for 230 steps with 288751 atoms

99.9% CPU use with 104 MPI tasks x 1 OpenMP threads

Minimization stats:
  Stopping criterion = energy tolerance
  Energy initial, next-to-last, final = 
     -1152449.34557946  -1152449.34644798  -1152449.34644798
  Force two-norm initial, final = 0.12320503 2.2208760e-05
  Force max component initial, final = 0.052183805 4.9449791e-06
  Final line search alpha, max atom move = 1.0000000 4.9449791e-06
  Iterations, force evaluations = 230 460

MPI task timing breakdown:
Section |  min time  |  avg time  |  max time  |%varavg| %total
---------------------------------------------------------------
Pair    | 0.6918     | 1.9266     | 2.5211     |  37.5 | 72.29
Neigh   | 0          | 0          | 0          |   0.0 |  0.00
Comm    | 0.041413   | 0.43369    | 1.3178     |  55.2 | 16.27
Output  | 0          | 0          | 0          |   0.0 |  0.00
Modify  | 2.7636e-05 | 0.0037844  | 0.0080522  |   2.9 |  0.14
Other   |            | 0.3009     |            |       | 11.29

Nlocal:        2776.45 ave        3960 max           0 min
Histogram: 8 4 4 0 4 12 8 2 28 34
Nghost:        3879.03 ave        5424 max         232 min
Histogram: 8 0 8 0 16 0 8 8 16 40
Neighs:        79213.4 ave      115417 max           0 min
Histogram: 8 4 4 0 10 6 8 8 24 32

Total # of neighbors = 8238190
Ave neighs/atom = 28.530429
Neighbor list builds = 0
Dangerous builds = 0
The dot product: 1.00367543554854e-09
Setting atom values ...
  1 settings made for x
  1 settings made for y
  1 settings made for z
Setting up cg style minimization ...
  Unit style    : metal
  Current step  : 3720
Per MPI rank memory allocation (min/avg/max) = 5.441 | 5.816 | 6.074 Mbytes
Step PotEng KinEng TotEng v_fx v_fy v_fz 
    3720   -1152449.3            0   -1152449.3 0.0013024233 -0.0085408686  0.014566564 
    3877   -1152449.3            0   -1152449.3 3.5385381e-05 4.0052506e-06 -9.8683672e-06 
Loop time of 1.80727 on 104 procs for 157 steps with 288751 atoms

99.9% CPU use with 104 MPI tasks x 1 OpenMP threads

Minimization stats:
  Stopping criterion = energy tolerance
  Energy initial, next-to-last, final = 
     -1152449.34117985  -1152449.34203564  -1152449.34203564
  Force two-norm initial, final = 0.12240308 0.00027772729
  Force max component initial, final = 0.052062033 7.2464276e-05
  Final line search alpha, max atom move = 1.0000000 7.2464276e-05
  Iterations, force evaluations = 157 314

MPI task timing breakdown:
Section |  min time  |  avg time  |  max time  |%varavg| %total
---------------------------------------------------------------
Pair    | 0.47267    | 1.3133     | 1.713      |  31.0 | 72.67
Neigh   | 0          | 0          | 0          |   0.0 |  0.00
Comm    | 0.027121   | 0.29352    | 0.88655    |  45.9 | 16.24
Output  | 0          | 0          | 0          |   0.0 |  0.00
Modify  | 1.883e-05  | 0.0025807  | 0.0054852  |   2.4 |  0.14
Other   |            | 0.1979     |            |       | 10.95

Nlocal:        2776.45 ave        3959 max           0 min
Histogram: 8 4 4 0 4 12 8 2 28 34
Nghost:        3879.03 ave        5424 max         232 min
Histogram: 8 0 8 0 16 0 8 8 16 40
Neighs:        79213.4 ave      115395 max           0 min
Histogram: 8 4 4 0 10 6 8 8 24 32

Total # of neighbors = 8238190
Ave neighs/atom = 28.530429
Neighbor list builds = 0
Dangerous builds = 0
The dot product: 3.97453574073406e-09
Setting atom values ...
  1 settings made for x
  1 settings made for y
  1 settings made for z
Setting up cg style minimization ...
  Unit style    : metal
  Current step  : 3877
Per MPI rank memory allocation (min/avg/max) = 5.441 | 5.816 | 6.074 Mbytes
Step PotEng KinEng TotEng v_fx v_fy v_fz 
    3877   -1152449.3            0   -1152449.3 0.00080628066 -0.0075395862  0.012915411 
    4000   -1152449.3            0   -1152449.3 1.3592382e-06 5.4168711e-06 -9.4410011e-06 
    4052   -1152449.3            0   -1152449.3 -1.8240596e-05 -8.273745e-06 1.5769639e-05 
Loop time of 2.06313 on 104 procs for 175 steps with 288751 atoms

99.9% CPU use with 104 MPI tasks x 1 OpenMP threads

Minimization stats:
  Stopping criterion = energy tolerance
  Energy initial, next-to-last, final = 
      -1152449.3354012  -1152449.33625011  -1152449.33625011
  Force two-norm initial, final = 0.12195028 0.00016220515
  Force max component initial, final = 0.051878188 2.8560844e-05
  Final line search alpha, max atom move = 1.0000000 2.8560844e-05
  Iterations, force evaluations = 175 350

MPI task timing breakdown:
Section |  min time  |  avg time  |  max time  |%varavg| %total
---------------------------------------------------------------
Pair    | 0.52851    | 1.4721     | 1.9397     |  32.7 | 71.35
Neigh   | 0          | 0          | 0          |   0.0 |  0.00
Comm    | 0.039383   | 0.33605    | 1.005      |  47.9 | 16.29
Output  | 0.0001463  | 0.00015552 | 0.00029187 |   0.0 |  0.01
Modify  | 2.1685e-05 | 0.0028877  | 0.0061722  |   2.5 |  0.14
Other   |            | 0.2519     |            |       | 12.21

Nlocal:        2776.45 ave        3957 max           0 min
Histogram: 8 4 4 0 4 12 8 2 28 34
Nghost:        3879.03 ave        5424 max         232 min
Histogram: 8 0 8 0 16 0 8 8 16 40
Neighs:        79213.4 ave      115347 max           0 min
Histogram: 8 4 4 0 10 6 8 8 24 32

Total # of neighbors = 8238192
Ave neighs/atom = 28.530436
Neighbor list builds = 0
Dangerous builds = 0
The dot product: 2.51962081952089e-09
Setting atom values ...
  1 settings made for x
  1 settings made for y
  1 settings made for z
Setting up cg style minimization ...
  Unit style    : metal
  Current step  : 4052
Per MPI rank memory allocation (min/avg/max) = 5.441 | 5.816 | 6.074 Mbytes
Step PotEng KinEng TotEng v_fx v_fy v_fz 
    4052   -1152449.3            0   -1152449.3 -0.00017641523 -0.0066082172  0.011411383 
    4230   -1152449.3            0   -1152449.3 3.4652785e-05 2.6305531e-05 -4.8238218e-05 
Loop time of 2.06122 on 104 procs for 178 steps with 288751 atoms

99.9% CPU use with 104 MPI tasks x 1 OpenMP threads

Minimization stats:
  Stopping criterion = energy tolerance
  Energy initial, next-to-last, final = 
     -1152449.32822515  -1152449.32907153  -1152449.32907153
  Force two-norm initial, final = 0.12187343 0.00015160789
  Force max component initial, final = 0.05178073 4.8238218e-05
  Final line search alpha, max atom move = 1.0000000 4.8238218e-05
  Iterations, force evaluations = 178 356

MPI task timing breakdown:
Section |  min time  |  avg time  |  max time  |%varavg| %total
---------------------------------------------------------------
Pair    | 0.53722    | 1.4886     | 1.9506     |  32.9 | 72.22
Neigh   | 0          | 0          | 0          |   0.0 |  0.00
Comm    | 0.031118   | 0.33333    | 1.008      |  48.8 | 16.17
Output  | 0          | 0          | 0          |   0.0 |  0.00
Modify  | 2.2468e-05 | 0.0029344  | 0.0062499  |   2.6 |  0.14
Other   |            | 0.2364     |            |       | 11.47

Nlocal:        2776.45 ave        3953 max           0 min
Histogram: 8 4 4 0 4 12 8 0 30 34
Nghost:        3879.01 ave        5424 max         232 min
Histogram: 8 0 8 0 16 0 8 8 16 40
Neighs:        79213.4 ave      115198 max           0 min
Histogram: 8 4 4 0 10 6 8 8 24 32

Total # of neighbors = 8238189
Ave neighs/atom = 28.530426
Neighbor list builds = 0
Dangerous builds = 0
The dot product: -1.31871999410697e-08
Setting atom values ...
  1 settings made for x
  1 settings made for y
  1 settings made for z
Setting up cg style minimization ...
  Unit style    : metal
  Current step  : 4230
Per MPI rank memory allocation (min/avg/max) = 5.441 | 5.816 | 6.074 Mbytes
Step PotEng KinEng TotEng v_fx v_fy v_fz 
    4230   -1152449.3            0   -1152449.3 -0.0014471864 -0.0057515765  0.010052552 
    4415   -1152449.3            0   -1152449.3 -3.1168648e-06  3.29089e-06 -5.425982e-06 
Loop time of 2.16473 on 104 procs for 185 steps with 288751 atoms

99.9% CPU use with 104 MPI tasks x 1 OpenMP threads

Minimization stats:
  Stopping criterion = energy tolerance
  Energy initial, next-to-last, final = 
     -1152449.31962106  -1152449.32047122  -1152449.32047122
  Force two-norm initial, final = 0.12214117 0.00010844707
  Force max component initial, final = 0.051651636 2.2638244e-05
  Final line search alpha, max atom move = 1.0000000 2.2638244e-05
  Iterations, force evaluations = 185 370

MPI task timing breakdown:
Section |  min time  |  avg time  |  max time  |%varavg| %total
---------------------------------------------------------------
Pair    | 0.55942    | 1.5609     | 2.0307     |  33.8 | 72.11
Neigh   | 0          | 0          | 0          |   0.0 |  0.00
Comm    | 0.033099   | 0.34957    | 1.0567     |  50.2 | 16.15
Output  | 0          | 0          | 0          |   0.0 |  0.00
Modify  | 2.3948e-05 | 0.0030485  | 0.0065074  |   2.6 |  0.14
Other   |            | 0.2512     |            |       | 11.60

Nlocal:        2776.45 ave        3949 max           0 min
Histogram: 8 4 4 0 4 12 8 0 28 36
Nghost:        3879.07 ave        5424 max         232 min
Histogram: 8 0 8 0 16 0 8 8 16 40
Neighs:        79213.3 ave      115073 max           0 min
Histogram: 8 4 4 0 10 6 8 8 24 32

Total # of neighbors = 8238188
Ave neighs/atom = 28.530422
Neighbor list builds = 0
Dangerous builds = 0
The dot product: -1.58391434525614e-09
Setting atom values ...
  1 settings made for x
  1 settings made for y
  1 settings made for z
Setting up cg style minimization ...
  Unit style    : metal
  Current step  : 4415
Per MPI rank memory allocation (min/avg/max) = 5.441 | 5.816 | 6.074 Mbytes
Step PotEng KinEng TotEng v_fx v_fy v_fz 
    4415   -1152449.3            0   -1152449.3 -0.0031678857 -0.0050545666 0.0090018437 
    4594   -1152449.3            0   -1152449.3 -6.8945863e-06 -4.6839298e-07 1.3805162e-06 
Loop time of 2.07364 on 104 procs for 179 steps with 288751 atoms

99.9% CPU use with 104 MPI tasks x 1 OpenMP threads

Minimization stats:
  Stopping criterion = energy tolerance
  Energy initial, next-to-last, final = 
     -1152449.30955779  -1152449.31041483  -1152449.31041483
  Force two-norm initial, final = 0.12269632 0.00013125579
  Force max component initial, final = 0.05148196 6.8945863e-06
  Final line search alpha, max atom move = 1.0000000 6.8945863e-06
  Iterations, force evaluations = 179 358

MPI task timing breakdown:
Section |  min time  |  avg time  |  max time  |%varavg| %total
---------------------------------------------------------------
Pair    | 0.54043    | 1.4977     | 1.9591     |  33.1 | 72.23
Neigh   | 0          | 0          | 0          |   0.0 |  0.00
Comm    | 0.036666   | 0.33676    | 1.026      |  49.1 | 16.24
Output  | 0          | 0          | 0          |   0.0 |  0.00
Modify  | 2.1648e-05 | 0.002944   | 0.0062997  |   2.6 |  0.14
Other   |            | 0.2362     |            |       | 11.39

Nlocal:        2776.45 ave        3947 max           0 min
Histogram: 8 4 4 0 4 12 8 0 28 36
Nghost:        3879.09 ave        5424 max         232 min
Histogram: 8 0 8 0 16 0 8 8 16 40
Neighs:        79213.4 ave      115016 max           0 min
Histogram: 8 4 4 0 10 6 8 8 24 32

Total # of neighbors = 8238189
Ave neighs/atom = 28.530426
Neighbor list builds = 0
Dangerous builds = 0
The dot product: 1.4519088069579e-09
Setting atom values ...
  1 settings made for x
  1 settings made for y
  1 settings made for z
Setting up cg style minimization ...
  Unit style    : metal
  Current step  : 4594
Per MPI rank memory allocation (min/avg/max) = 5.441 | 5.816 | 6.074 Mbytes
Step PotEng KinEng TotEng v_fx v_fy v_fz 
    4594   -1152449.3            0   -1152449.3 -0.0051861608 -0.0045171638 0.0082516629 
    4779   -1152449.3            0   -1152449.3 -1.6071643e-05 -2.7559032e-06 6.1111983e-06 
Loop time of 2.15 on 104 procs for 185 steps with 288751 atoms

99.9% CPU use with 104 MPI tasks x 1 OpenMP threads

Minimization stats:
  Stopping criterion = energy tolerance
  Energy initial, next-to-last, final = 
     -1152449.29800728  -1152449.29887049  -1152449.29887049
  Force two-norm initial, final = 0.12336889 0.0001051785
  Force max component initial, final = 0.05128748 1.6071643e-05
  Final line search alpha, max atom move = 1.0000000 1.6071643e-05
  Iterations, force evaluations = 185 370

MPI task timing breakdown:
Section |  min time  |  avg time  |  max time  |%varavg| %total
---------------------------------------------------------------
Pair    | 0.55969    | 1.557      | 2.0363     |  33.7 | 72.42
Neigh   | 0          | 0          | 0          |   0.0 |  0.00
Comm    | 0.031726   | 0.35056    | 1.056      |  49.6 | 16.31
Output  | 0          | 0          | 0          |   0.0 |  0.00
Modify  | 2.2794e-05 | 0.0030433  | 0.0064974  |   2.6 |  0.14
Other   |            | 0.2394     |            |       | 11.13

Nlocal:        2776.45 ave        3945 max           0 min
Histogram: 8 4 4 0 4 12 8 0 28 36
Nghost:        3879.14 ave        5425 max         232 min
Histogram: 8 0 8 0 16 0 8 8 16 40
Neighs:        79213.4 ave      114954 max           0 min
Histogram: 8 4 4 0 10 6 8 8 22 34

Total # of neighbors = 8238189
Ave neighs/atom = 28.530426
Neighbor list builds = 0
Dangerous builds = 0
The dot product: 6.66601526892612e-09
Setting atom values ...
  1 settings made for x
  1 settings made for y
  1 settings made for z
Setting up cg style minimization ...
  Unit style    : metal
  Current step  : 4779
Per MPI rank memory allocation (min/avg/max) = 5.441 | 5.816 | 6.074 Mbytes
Step PotEng KinEng TotEng v_fx v_fy v_fz 
    4779   -1152449.3            0   -1152449.3 -0.0075174251 -0.0042844425 0.0080602513 
    5000   -1152449.3            0   -1152449.3 4.0540568e-07 -3.2935357e-06 5.6727791e-06 
    5113   -1152449.3            0   -1152449.3 2.2735663e-08 -1.4847476e-09 6.4894112e-10 
Loop time of 3.86725 on 104 procs for 334 steps with 288751 atoms

99.9% CPU use with 104 MPI tasks x 1 OpenMP threads

Minimization stats:
  Stopping criterion = energy tolerance
  Energy initial, next-to-last, final = 
     -1152449.28494967  -1152449.28581488  -1152449.28581488
  Force two-norm initial, final = 0.12402681 2.1777331e-07
  Force max component initial, final = 0.051103965 2.2735663e-08
  Final line search alpha, max atom move = 1.0000000 2.2735663e-08
  Iterations, force evaluations = 334 668

MPI task timing breakdown:
Section |  min time  |  avg time  |  max time  |%varavg| %total
---------------------------------------------------------------
Pair    | 1.0235     | 2.8053     | 3.6386     |  44.9 | 72.54
Neigh   | 0          | 0          | 0          |   0.0 |  0.00
Comm    | 0.060067   | 0.62493    | 1.8993     |  67.6 | 16.16
Output  | 9.7434e-05 | 0.00010035 | 0.00025701 |   0.0 |  0.00
Modify  | 4.2249e-05 | 0.0054853  | 0.01172    |   3.5 |  0.14
Other   |            | 0.4315     |            |       | 11.16

Nlocal:        2776.45 ave        3943 max           0 min
Histogram: 8 4 4 0 4 12 8 0 28 36
Nghost:        3879.14 ave        5425 max         232 min
Histogram: 8 0 8 0 16 0 8 8 16 40
Neighs:        79213.3 ave      114887 max           0 min
Histogram: 8 4 4 0 10 6 8 8 22 34

Total # of neighbors = 8238187
Ave neighs/atom = 28.530419
Neighbor list builds = 0
Dangerous builds = 0
The dot product: -1.05795478134682e-11
Setting up cg style minimization ...
  Unit style    : metal
  Current step  : 5113
Per MPI rank memory allocation (min/avg/max) = 5.441 | 5.816 | 6.074 Mbytes
Step PotEng KinEng TotEng v_fx v_fy v_fz 
    5113   -1152449.3            0   -1152449.3  0.029189912   0.59775162   0.34496012 
    5363   -1152449.4            0   -1152449.4 -1.3194718e-05 -9.1934499e-06 2.6595271e-05 
Loop time of 2.91908 on 104 procs for 250 steps with 288751 atoms

99.9% CPU use with 104 MPI tasks x 1 OpenMP threads

Minimization stats:
  Stopping criterion = energy tolerance
  Energy initial, next-to-last, final = 
     -1152449.28581488  -1152449.35157347  -1152449.35157347
  Force two-norm initial, final = 0.69076518 8.3915439e-05
  Force max component initial, final = 0.59775162 2.6595271e-05
  Final line search alpha, max atom move = 1.0000000 2.6595271e-05
  Iterations, force evaluations = 250 500

MPI task timing breakdown:
Section |  min time  |  avg time  |  max time  |%varavg| %total
---------------------------------------------------------------
Pair    | 0.76113    | 2.1012     | 2.7575     |  39.0 | 71.98
Neigh   | 1.0157e-05 | 0.0029696  | 0.004341   |   2.2 |  0.10
Comm    | 0.046869   | 0.47797    | 1.4336     |  57.4 | 16.37
Output  | 0          | 0          | 0          |   0.0 |  0.00
Modify  | 2.8394e-05 | 0.0026714  | 0.0068786  |   3.2 |  0.09
Other   |            | 0.3342     |            |       | 11.45

Nlocal:        2776.45 ave        3939 max           0 min
Histogram: 8 4 4 0 4 12 8 0 28 36
Nghost:        3879.14 ave        5425 max         232 min
Histogram: 8 0 8 0 16 0 8 8 16 40
Neighs:        79213.4 ave      114741 max           0 min
Histogram: 8 4 4 0 9 7 8 8 22 34

Total # of neighbors = 8238193
Ave neighs/atom = 28.530440
Neighbor list builds = 1
Dangerous builds = 0
OMP_NUM_THREADS environment is not set. Defaulting to 1 thread. (../comm.cpp:94)
  using 1 OpenMP thread(s) per MPI task
Reading data file ...
  orthogonal box = (-122.39241 -121.13707 -37.090501) to (122.39241 121.13707 37.090501)
  13 by 4 by 2 MPI processor grid
  reading atoms ...
  288751 atoms
  read_data CPU = 0.342 seconds
199981 atoms in group inner
88770 atoms in group outer
1 atoms in group carbon
Neighbor list info ...
  update every 1 steps, delay 0 steps, check yes
  max neighbors/atom: 2000, page size: 100000
  master list distance cutoff = 5.6
  ghost atom cutoff = 5.6
  binsize = 2.8, bins = 88 87 27
  1 neighbor lists, perpetual/occasional/extra = 1 0 0
  (1) pair eam/alloy, perpetual
      attributes: half, newton on
      pair build: half/bin/atomonly/newton
      stencil: half/bin/3d/newton
      bin: standard
Setting up cg style minimization ...
  Unit style    : metal
  Current step  : 0
Per MPI rank memory allocation (min/avg/max) = 5.441 | 5.816 | 6.074 Mbytes
Step v_fx v_fy v_fz PotEng KinEng TotEng 
       0   -25.529746    14.757066   -49.834221   -1152433.5            0   -1152433.5 
     177 -2.406007e-05 2.6385816e-06 2.3093411e-05   -1152449.5            0   -1152449.5 
Loop time of 2.03349 on 104 procs for 177 steps with 288751 atoms

99.9% CPU use with 104 MPI tasks x 1 OpenMP threads

Minimization stats:
  Stopping criterion = energy tolerance
  Energy initial, next-to-last, final = 
     -1152433.50689306  -1152449.45035286  -1152449.45035286
  Force two-norm initial, final = 86.906985 9.0123019e-05
  Force max component initial, final = 57.084364 2.4060070e-05
  Final line search alpha, max atom move = 1.0000000 2.4060070e-05
  Iterations, force evaluations = 177 346

MPI task timing breakdown:
Section |  min time  |  avg time  |  max time  |%varavg| %total
---------------------------------------------------------------
Pair    | 0.54135    | 1.4555     | 1.9012     |  32.0 | 71.58
Neigh   | 4.9916e-05 | 0.014811   | 0.021496   |   5.0 |  0.73
Comm    | 0.031432   | 0.3316     | 1.0037     |  47.5 | 16.31
Output  | 0          | 0          | 0          |   0.0 |  0.00
Modify  | 1.9761e-05 | 0.0018505  | 0.0047746  |   2.7 |  0.09
Other   |            | 0.2297     |            |       | 11.30

Nlocal:        2776.45 ave        3960 max           0 min
Histogram: 8 4 4 0 4 12 8 2 28 34
Nghost:        3879.03 ave        5425 max         232 min
Histogram: 8 0 8 0 16 0 8 8 16 40
Neighs:        79213.6 ave      115437 max           0 min
Histogram: 8 4 4 0 10 6 8 8 24 32

Total # of neighbors = 8238211
Ave neighs/atom = 28.530502
Neighbor list builds = 5
Dangerous builds = 0
Setting atom values ...
  1 settings made for x
  1 settings made for y
  1 settings made for z
Setting up cg style minimization ...
  Unit style    : metal
  Current step  : 177
Per MPI rank memory allocation (min/avg/max) = 5.441 | 5.816 | 6.074 Mbytes
Step PotEng KinEng TotEng v_fx v_fy v_fz 
     177   -1152449.4            0   -1152449.4 -0.021467845 -0.022532259  0.018327186 
     306   -1152449.4            0   -1152449.4 6.9548549e-06 7.297305e-06 -6.205616e-06 
Loop time of 1.49564 on 104 procs for 129 steps with 288751 atoms

99.9% CPU use with 104 MPI tasks x 1 OpenMP threads

Minimization stats:
  Stopping criterion = energy tolerance
  Energy initial, next-to-last, final = 
     -1152449.44758612  -1152449.44932388  -1152449.44932388
  Force two-norm initial, final = 0.19162067 9.4401389e-05
  Force max component initial, final = 0.076666964 9.0667515e-06
  Final line search alpha, max atom move = 1.0000000 9.0667515e-06
  Iterations, force evaluations = 129 258

MPI task timing breakdown:
Section |  min time  |  avg time  |  max time  |%varavg| %total
---------------------------------------------------------------
Pair    | 0.38971    | 1.0816     | 1.4167     |  28.1 | 72.32
Neigh   | 0          | 0          | 0          |   0.0 |  0.00
Comm    | 0.021605   | 0.24399    | 0.73761    |  41.1 | 16.31
Output  | 0          | 0          | 0          |   0.0 |  0.00
Modify  | 1.5872e-05 | 0.0021258  | 0.0045445  |   2.2 |  0.14
Other   |            | 0.1679     |            |       | 11.23

Nlocal:        2776.45 ave        3960 max           0 min
Histogram: 8 4 4 0 4 12 8 2 28 34
Nghost:        3879.03 ave        5424 max         232 min
Histogram: 8 0 8 0 16 0 8 8 16 40
Neighs:        79213.4 ave      115434 max           0 min
Histogram: 8 4 4 0 10 6 8 8 24 32

Total # of neighbors = 8238197
Ave neighs/atom = 28.530454
Neighbor list builds = 0
Dangerous builds = 0
Setting atom values ...
  1 settings made for x
  1 settings made for y
  1 settings made for z
Setting up cg style minimization ...
  Unit style    : metal
  Current step  : 306
Per MPI rank memory allocation (min/avg/max) = 5.441 | 5.816 | 6.074 Mbytes
Step PotEng KinEng TotEng v_fx v_fy v_fz 
     306   -1152449.4            0   -1152449.4 -0.019098483 -0.019424521  0.014970411 
     441   -1152449.4            0   -1152449.4 3.2110686e-06 2.0083642e-06 -2.1068095e-05 
Loop time of 1.5697 on 104 procs for 135 steps with 288751 atoms

99.9% CPU use with 104 MPI tasks x 1 OpenMP threads

Minimization stats:
  Stopping criterion = energy tolerance
  Energy initial, next-to-last, final = 
     -1152449.44525101  -1152449.44669187  -1152449.44669187
  Force two-norm initial, final = 0.17606855 8.6226909e-05
  Force max component initial, final = 0.069452296 2.1068095e-05
  Final line search alpha, max atom move = 1.0000000 2.1068095e-05
  Iterations, force evaluations = 135 270

MPI task timing breakdown:
Section |  min time  |  avg time  |  max time  |%varavg| %total
---------------------------------------------------------------
Pair    | 0.40987    | 1.1335     | 1.4875     |  28.7 | 72.21
Neigh   | 0          | 0          | 0          |   0.0 |  0.00
Comm    | 0.022947   | 0.2567     | 0.78264    |  42.3 | 16.35
Output  | 0          | 0          | 0          |   0.0 |  0.00
Modify  | 1.6634e-05 | 0.0022185  | 0.0047641  |   2.2 |  0.14
Other   |            | 0.1773     |            |       | 11.29

Nlocal:        2776.45 ave        3960 max           0 min
Histogram: 8 4 4 0 4 12 8 2 28 34
Nghost:        3879.03 ave        5424 max         232 min
Histogram: 8 0 8 0 16 0 8 8 16 40
Neighs:        79213.4 ave      115433 max           0 min
Histogram: 8 4 4 0 10 6 8 8 24 32

Total # of neighbors = 8238197
Ave neighs/atom = 28.530454
Neighbor list builds = 0
Dangerous builds = 0
The dot product: -2.45292201475016e-08
Setting atom values ...
  1 settings made for x
  1 settings made for y
  1 settings made for z
Setting up cg style minimization ...
  Unit style    : metal
  Current step  : 441
Per MPI rank memory allocation (min/avg/max) = 5.441 | 5.816 | 6.074 Mbytes
Step PotEng KinEng TotEng v_fx v_fy v_fz 
     441   -1152449.4            0   -1152449.4 -0.018216364 -0.018599841  0.011412393 
     603   -1152449.4            0   -1152449.4 -1.9649313e-06 9.054012e-07 2.7112201e-05 
Loop time of 1.87063 on 104 procs for 162 steps with 288751 atoms

99.9% CPU use with 104 MPI tasks x 1 OpenMP threads

Minimization stats:
  Stopping criterion = energy tolerance
  Energy initial, next-to-last, final = 
     -1152449.44126119   -1152449.4426982   -1152449.4426982
  Force two-norm initial, final = 0.17580985 0.00015016216
  Force max component initial, final = 0.067630173 2.7112201e-05
  Final line search alpha, max atom move = 1.0000000 2.7112201e-05
  Iterations, force evaluations = 162 324

MPI task timing breakdown:
Section |  min time  |  avg time  |  max time  |%varavg| %total
---------------------------------------------------------------
Pair    | 0.48868    | 1.3569     | 1.7738     |  31.4 | 72.54
Neigh   | 0          | 0          | 0          |   0.0 |  0.00
Comm    | 0.028003   | 0.30492    | 0.92002    |  46.1 | 16.30
Output  | 0          | 0          | 0          |   0.0 |  0.00
Modify  | 1.9171e-05 | 0.0026617  | 0.0056854  |   2.4 |  0.14
Other   |            | 0.2062     |            |       | 11.02

Nlocal:        2776.45 ave        3959 max           0 min
Histogram: 8 4 4 0 4 12 8 2 28 34
Nghost:        3879.03 ave        5424 max         232 min
Histogram: 8 0 8 0 16 0 8 8 16 40
Neighs:        79213.4 ave      115393 max           0 min
Histogram: 8 4 4 0 10 6 8 8 24 32

Total # of neighbors = 8238195
Ave neighs/atom = 28.530447
Neighbor list builds = 0
Dangerous builds = 0
The dot product: 3.19218895464129e-08
Setting atom values ...
  1 settings made for x
  1 settings made for y
  1 settings made for z
Setting up cg style minimization ...
  Unit style    : metal
  Current step  : 603
Per MPI rank memory allocation (min/avg/max) = 5.441 | 5.816 | 6.074 Mbytes
Step PotEng KinEng TotEng v_fx v_fy v_fz 
     603   -1152449.4            0   -1152449.4 -0.017678921 -0.018490591 0.0087503099 
     759   -1152449.4            0   -1152449.4 1.3441632e-05 1.5172413e-05 1.1313401e-06 
Loop time of 1.81145 on 104 procs for 156 steps with 288751 atoms

99.9% CPU use with 104 MPI tasks x 1 OpenMP threads

Minimization stats:
  Stopping criterion = energy tolerance
  Energy initial, next-to-last, final = 
     -1152449.43593059  -1152449.43736574  -1152449.43736574
  Force two-norm initial, final = 0.17532066 0.00015207146
  Force max component initial, final = 0.065689451 2.0559475e-05
  Final line search alpha, max atom move = 1.0000000 2.0559475e-05
  Iterations, force evaluations = 156 312

MPI task timing breakdown:
Section |  min time  |  avg time  |  max time  |%varavg| %total
---------------------------------------------------------------
Pair    | 0.47245    | 1.3084     | 1.713      |  30.9 | 72.23
Neigh   | 0          | 0          | 0          |   0.0 |  0.00
Comm    | 0.026799   | 0.2976     | 0.90334    |  45.2 | 16.43
Output  | 0          | 0          | 0          |   0.0 |  0.00
Modify  | 1.9153e-05 | 0.0025605  | 0.0055156  |   2.4 |  0.14
Other   |            | 0.2028     |            |       | 11.20

Nlocal:        2776.45 ave        3959 max           0 min
Histogram: 8 4 4 0 4 12 8 2 28 34
Nghost:        3879.03 ave        5424 max         232 min
Histogram: 8 0 8 0 16 0 8 8 16 40
Neighs:        79213.4 ave      115393 max           0 min
Histogram: 8 4 4 0 10 6 8 8 24 32

Total # of neighbors = 8238196
Ave neighs/atom = 28.530450
Neighbor list builds = 0
Dangerous builds = 0
The dot product: 1.80461179530655e-08
Setting atom values ...
  1 settings made for x
  1 settings made for y
  1 settings made for z
Setting up cg style minimization ...
  Unit style    : metal
  Current step  : 759
Per MPI rank memory allocation (min/avg/max) = 5.441 | 5.816 | 6.074 Mbytes
Step PotEng KinEng TotEng v_fx v_fy v_fz 
     759   -1152449.4            0   -1152449.4 -0.017523496 -0.018907283 0.0065136042 
     883   -1152449.4            0   -1152449.4 -1.8827549e-05 -1.5141086e-05 3.8503203e-05 
Loop time of 1.44042 on 104 procs for 124 steps with 288751 atoms

99.9% CPU use with 104 MPI tasks x 1 OpenMP threads

Minimization stats:
  Stopping criterion = energy tolerance
  Energy initial, next-to-last, final = 
     -1152449.42921403   -1152449.4306488   -1152449.4306488
  Force two-norm initial, final = 0.17499598 0.00018762066
  Force max component initial, final = 0.063893968 4.5154026e-05
  Final line search alpha, max atom move = 1.0000000 4.5154026e-05
  Iterations, force evaluations = 124 248

MPI task timing breakdown:
Section |  min time  |  avg time  |  max time  |%varavg| %total
---------------------------------------------------------------
Pair    | 0.37486    | 1.0393     | 1.3603     |  27.5 | 72.15
Neigh   | 0          | 0          | 0          |   0.0 |  0.00
Comm    | 0.022146   | 0.23601    | 0.72262    |  40.4 | 16.38
Output  | 0          | 0          | 0          |   0.0 |  0.00
Modify  | 1.481e-05  | 0.002043   | 0.0044058  |   2.1 |  0.14
Other   |            | 0.1631     |            |       | 11.32

Nlocal:        2776.45 ave        3958 max           0 min
Histogram: 8 4 4 0 4 12 8 2 28 34
Nghost:        3879.03 ave        5424 max         232 min
Histogram: 8 0 8 0 16 0 8 8 16 40
Neighs:        79213.4 ave      115357 max           0 min
Histogram: 8 4 4 0 10 6 8 8 24 32

Total # of neighbors = 8238198
Ave neighs/atom = 28.530457
Neighbor list builds = 0
Dangerous builds = 0
The dot product: 1.50263367528923e-08
Setting atom values ...
  1 settings made for x
  1 settings made for y
  1 settings made for z
Setting up cg style minimization ...
  Unit style    : metal
  Current step  : 883
Per MPI rank memory allocation (min/avg/max) = 5.441 | 5.816 | 6.074 Mbytes
Step PotEng KinEng TotEng v_fx v_fy v_fz 
     883   -1152449.4            0   -1152449.4 -0.017716778 -0.019664804 0.0048777119 
    1000   -1152449.4            0   -1152449.4 -1.1169394e-05 -1.0824325e-05 1.1834299e-05 
    1061   -1152449.4            0   -1152449.4 1.9650605e-07 -5.1711755e-06 -3.0060601e-05 
Loop time of 2.06791 on 104 procs for 178 steps with 288751 atoms

99.9% CPU use with 104 MPI tasks x 1 OpenMP threads

Minimization stats:
  Stopping criterion = energy tolerance
  Energy initial, next-to-last, final = 
     -1152449.42107471  -1152449.42251013  -1152449.42251013
  Force two-norm initial, final = 0.17480182 0.00011863253
  Force max component initial, final = 0.063468036 3.0060601e-05
  Final line search alpha, max atom move = 1.0000000 3.0060601e-05
  Iterations, force evaluations = 178 356

MPI task timing breakdown:
Section |  min time  |  avg time  |  max time  |%varavg| %total
---------------------------------------------------------------
Pair    | 0.53754    | 1.4932     | 1.961      |  33.0 | 72.21
Neigh   | 0          | 0          | 0          |   0.0 |  0.00
Comm    | 0.030785   | 0.33922    | 1.0267     |  48.4 | 16.40
Output  | 9.0318e-05 | 9.7433e-05 | 0.00022191 |   0.0 |  0.00
Modify  | 2.1835e-05 | 0.0029267  | 0.0062575  |   2.6 |  0.14
Other   |            | 0.2325     |            |       | 11.24

Nlocal:        2776.45 ave        3958 max           0 min
Histogram: 8 4 4 0 4 12 8 2 28 34
Nghost:        3879.03 ave        5424 max         232 min
Histogram: 8 0 8 0 16 0 8 8 16 40
Neighs:        79213.4 ave      115357 max           0 min
Histogram: 8 4 4 0 10 6 8 8 24 32

Total # of neighbors = 8238198
Ave neighs/atom = 28.530457
Neighbor list builds = 0
Dangerous builds = 0
The dot product: -3.03325435789041e-08
Setting atom values ...
  1 settings made for x
  1 settings made for y
  1 settings made for z
Setting up cg style minimization ...
  Unit style    : metal
  Current step  : 1061
Per MPI rank memory allocation (min/avg/max) = 5.441 | 5.816 | 6.074 Mbytes
Step PotEng KinEng TotEng v_fx v_fy v_fz 
    1061   -1152449.4            0   -1152449.4 -0.017790075 -0.020165491 0.0038094549 
    1172   -1152449.4            0   -1152449.4 -2.0026855e-05 -1.9150407e-05 2.2723888e-05 
Loop time of 1.28416 on 104 procs for 111 steps with 288751 atoms

99.9% CPU use with 104 MPI tasks x 1 OpenMP threads

Minimization stats:
  Stopping criterion = energy tolerance
  Energy initial, next-to-last, final = 
     -1152449.41148365  -1152449.41291811  -1152449.41291811
  Force two-norm initial, final = 0.17446486 0.00024739303
  Force max component initial, final = 0.064614005 3.8264844e-05
  Final line search alpha, max atom move = 1.0000000 3.8264844e-05
  Iterations, force evaluations = 111 222

MPI task timing breakdown:
Section |  min time  |  avg time  |  max time  |%varavg| %total
---------------------------------------------------------------
Pair    | 0.33371    | 0.93021    | 1.217      |  26.1 | 72.44
Neigh   | 0          | 0          | 0          |   0.0 |  0.00
Comm    | 0.018801   | 0.21074    | 0.64293    |  38.3 | 16.41
Output  | 0          | 0          | 0          |   0.0 |  0.00
Modify  | 1.4141e-05 | 0.0018308  | 0.0039095  |   2.0 |  0.14
Other   |            | 0.1414     |            |       | 11.01

Nlocal:        2776.45 ave        3957 max           0 min
Histogram: 8 4 4 0 4 12 8 2 28 34
Nghost:        3879.03 ave        5424 max         232 min
Histogram: 8 0 8 0 16 0 8 8 16 40
Neighs:        79213.5 ave      115322 max           0 min
Histogram: 8 4 4 0 10 6 8 8 24 32

Total # of neighbors = 8238201
Ave neighs/atom = 28.530467
Neighbor list builds = 0
Dangerous builds = 0
The dot product: 3.35760875058343e-10
Setting atom values ...
  1 settings made for x
  1 settings made for y
  1 settings made for z
Setting up cg style minimization ...
  Unit style    : metal
  Current step  : 1172
Per MPI rank memory allocation (min/avg/max) = 5.441 | 5.816 | 6.074 Mbytes
Step PotEng KinEng TotEng v_fx v_fy v_fz 
    1172   -1152449.4            0   -1152449.4 -0.017564923 -0.020228089 0.0031010071 
    1347   -1152449.4            0   -1152449.4 2.2047687e-06 6.5574523e-06 1.9297744e-05 
Loop time of 2.04784 on 104 procs for 175 steps with 288751 atoms

99.9% CPU use with 104 MPI tasks x 1 OpenMP threads

Minimization stats:
  Stopping criterion = energy tolerance
  Energy initial, next-to-last, final = 
      -1152449.4004136   -1152449.4018508   -1152449.4018508
  Force two-norm initial, final = 0.17406816 0.00014304334
  Force max component initial, final = 0.065705484 1.9297744e-05
  Final line search alpha, max atom move = 1.0000000 1.9297744e-05
  Iterations, force evaluations = 175 350

MPI task timing breakdown:
Section |  min time  |  avg time  |  max time  |%varavg| %total
---------------------------------------------------------------
Pair    | 0.52709    | 1.4753     | 1.9307     |  32.7 | 72.04
Neigh   | 0          | 0          | 0          |   0.0 |  0.00
Comm    | 0.029366   | 0.33607    | 1.0181     |  48.0 | 16.41
Output  | 0          | 0          | 0          |   0.0 |  0.00
Modify  | 2.1157e-05 | 0.0028812  | 0.0061564  |   2.5 |  0.14
Other   |            | 0.2336     |            |       | 11.41

Nlocal:        2776.45 ave        3952 max           0 min
Histogram: 8 4 4 0 4 12 8 0 30 34
Nghost:        3879.03 ave        5424 max         232 min
Histogram: 8 0 8 0 16 0 8 8 16 40
Neighs:        79213.5 ave      115178 max           0 min
Histogram: 8 4 4 0 10 6 8 8 24 32

Total # of neighbors = 8238202
Ave neighs/atom = 28.530471
Neighbor list builds = 0
Dangerous builds = 0
The dot product: 2.71251832963532e-08
Setting atom values ...
  1 settings made for x
  1 settings made for y
  1 settings made for z
Setting up cg style minimization ...
  Unit style    : metal
  Current step  : 1347
Per MPI rank memory allocation (min/avg/max) = 5.441 | 5.816 | 6.074 Mbytes
Step PotEng KinEng TotEng v_fx v_fy v_fz 
    1347   -1152449.4            0   -1152449.4 -0.016757154 -0.019456872  0.003045873 
    1484   -1152449.4            0   -1152449.4 -1.9404549e-06 9.2777506e-07 1.5054236e-05 
Loop time of 1.59017 on 104 procs for 137 steps with 288751 atoms

99.9% CPU use with 104 MPI tasks x 1 OpenMP threads

Minimization stats:
  Stopping criterion = energy tolerance
  Energy initial, next-to-last, final = 
     -1152449.38785346  -1152449.38929562  -1152449.38929562
  Force two-norm initial, final = 0.17347559 0.0001758731
  Force max component initial, final = 0.066752995 3.6377123e-05
  Final line search alpha, max atom move = 1.0000000 3.6377123e-05
  Iterations, force evaluations = 137 274

MPI task timing breakdown:
Section |  min time  |  avg time  |  max time  |%varavg| %total
---------------------------------------------------------------
Pair    | 0.41749    | 1.1504     | 1.5001     |  28.8 | 72.34
Neigh   | 0          | 0          | 0          |   0.0 |  0.00
Comm    | 0.023228   | 0.25977    | 0.78152    |  42.3 | 16.34
Output  | 0          | 0          | 0          |   0.0 |  0.00
Modify  | 1.6571e-05 | 0.0022542  | 0.0048137  |   2.2 |  0.14
Other   |            | 0.1777     |            |       | 11.18

Nlocal:        2776.45 ave        3951 max           0 min
Histogram: 8 4 4 0 4 12 8 0 30 34
Nghost:        3879.03 ave        5427 max         232 min
Histogram: 8 0 8 0 16 0 8 8 16 40
Neighs:        79213.5 ave      115140 max           0 min
Histogram: 8 4 4 0 10 6 8 8 24 32

Total # of neighbors = 8238203
Ave neighs/atom = 28.530474
Neighbor list builds = 0
Dangerous builds = 0
The dot product: 2.06427338660666e-08
Setting atom values ...
  1 settings made for x
[...]
Histogram: 8 4 4 0 4 12 8 4 26 34
Nghost:        3879.11 ave        5424 max         232 min
Histogram: 8 0 8 0 16 0 8 8 16 40
Neighs:        79213.3 ave      115432 max           0 min
Histogram: 8 4 4 0 10 6 8 8 24 32

Total # of neighbors = 8238182
Ave neighs/atom = 28.530402
Neighbor list builds = 0
Dangerous builds = 0
The dot product: -1.59593774371654e-08
Setting atom values ...
  1 settings made for x
  1 settings made for y
  1 settings made for z
Setting up cg style minimization ...
  Unit style    : metal
  Current step  : 25979
Per MPI rank memory allocation (min/avg/max) = 5.441 | 5.816 | 6.074 Mbytes
Step PotEng KinEng TotEng v_fx v_fy v_fz 
   25979   -1152449.2            0   -1152449.2 -0.011858222  0.011935048  0.022905643 
   26000   -1152449.2            0   -1152449.2 0.00079129957 -4.0226476e-06 -0.00056533468 
   26168   -1152449.2            0   -1152449.2 -1.1016927e-05 -8.3381653e-07 6.7893431e-06 
Loop time of 2.18635 on 104 procs for 189 steps with 288751 atoms

99.9% CPU use with 104 MPI tasks x 1 OpenMP threads

Minimization stats:
  Stopping criterion = energy tolerance
  Energy initial, next-to-last, final = 
     -1152449.21655017  -1152449.21799672  -1152449.21799672
  Force two-norm initial, final = 0.16648083 8.0799191e-05
  Force max component initial, final = 0.086298388 1.3847865e-05
  Final line search alpha, max atom move = 1.0000000 1.3847865e-05
  Iterations, force evaluations = 189 378

MPI task timing breakdown:
Section |  min time  |  avg time  |  max time  |%varavg| %total
---------------------------------------------------------------
Pair    | 0.56849    | 1.5799     | 2.0672     |  34.0 | 72.26
Neigh   | 0          | 0          | 0          |   0.0 |  0.00
Comm    | 0.031896   | 0.35805    | 1.0941     |  50.1 | 16.38
Output  | 0.0001001  | 0.00010819 | 0.00020906 |   0.0 |  0.00
Modify  | 2.3505e-05 | 0.0031264  | 0.0067253  |   2.7 |  0.14
Other   |            | 0.2451     |            |       | 11.21

Nlocal:        2776.45 ave        3960 max           0 min
Histogram: 8 4 4 0 4 12 8 4 26 34
Nghost:        3879.09 ave        5424 max         232 min
Histogram: 8 0 8 0 16 0 8 8 16 40
Neighs:        79213.3 ave      115423 max           0 min
Histogram: 8 4 4 0 10 6 8 8 24 32

Total # of neighbors = 8238181
Ave neighs/atom = 28.530398
Neighbor list builds = 0
Dangerous builds = 0
The dot product: 3.47412751999004e-08
Setting atom values ...
  1 settings made for x
  1 settings made for y
  1 settings made for z
Setting up cg style minimization ...
  Unit style    : metal
  Current step  : 26168
Per MPI rank memory allocation (min/avg/max) = 5.441 | 5.816 | 6.074 Mbytes
Step PotEng KinEng TotEng v_fx v_fy v_fz 
   26168   -1152449.2            0   -1152449.2 -0.013405391  0.011838219   0.02395802 
   26334   -1152449.2            0   -1152449.2 5.0164078e-06 2.306597e-06 -7.5083453e-07 
Loop time of 1.92179 on 104 procs for 166 steps with 288751 atoms

99.9% CPU use with 104 MPI tasks x 1 OpenMP threads

Minimization stats:
  Stopping criterion = energy tolerance
  Energy initial, next-to-last, final = 
     -1152449.20414083  -1152449.20559457  -1152449.20559457
  Force two-norm initial, final = 0.16662763 0.00017369208
  Force max component initial, final = 0.08762743 5.7113549e-06
  Final line search alpha, max atom move = 1.0000000 5.7113549e-06
  Iterations, force evaluations = 166 332

MPI task timing breakdown:
Section |  min time  |  avg time  |  max time  |%varavg| %total
---------------------------------------------------------------
Pair    | 0.50023    | 1.3917     | 1.8173     |  32.0 | 72.42
Neigh   | 0          | 0          | 0          |   0.0 |  0.00
Comm    | 0.030143   | 0.31263    | 0.95012    |  47.3 | 16.27
Output  | 0          | 0          | 0          |   0.0 |  0.00
Modify  | 2.0309e-05 | 0.0027442  | 0.0058441  |   2.5 |  0.14
Other   |            | 0.2147     |            |       | 11.17

Nlocal:        2776.45 ave        3960 max           0 min
Histogram: 8 4 4 0 4 12 8 4 26 34
Nghost:        3879.07 ave        5424 max         232 min
Histogram: 8 0 8 0 16 0 8 8 16 40
Neighs:        79213.3 ave      115416 max           0 min
Histogram: 8 4 4 0 10 6 8 8 24 32

Total # of neighbors = 8238180
Ave neighs/atom = 28.530395
Neighbor list builds = 0
Dangerous builds = 0
The dot product: -3.83710977661731e-09
Setting atom values ...
  1 settings made for x
  1 settings made for y
  1 settings made for z
Setting up cg style minimization ...
  Unit style    : metal
  Current step  : 26334
Per MPI rank memory allocation (min/avg/max) = 5.441 | 5.816 | 6.074 Mbytes
Step PotEng KinEng TotEng v_fx v_fy v_fz 
   26334   -1152449.2            0   -1152449.2 -0.012399726  0.011640099  0.023085381 
   26489   -1152449.2            0   -1152449.2 1.6698878e-05 -2.3003877e-06 -1.4719428e-05 
Loop time of 1.79446 on 104 procs for 155 steps with 288751 atoms

99.9% CPU use with 104 MPI tasks x 1 OpenMP threads

Minimization stats:
  Stopping criterion = energy tolerance
  Energy initial, next-to-last, final = 
     -1152449.19061374  -1152449.19206014  -1152449.19206014
  Force two-norm initial, final = 0.16590539 0.00023056544
  Force max component initial, final = 0.088911985 6.2288099e-05
  Final line search alpha, max atom move = 1.0000000 6.2288099e-05
  Iterations, force evaluations = 155 310

MPI task timing breakdown:
Section |  min time  |  avg time  |  max time  |%varavg| %total
---------------------------------------------------------------
Pair    | 0.46696    | 1.2968     | 1.6952     |  30.8 | 72.27
Neigh   | 0          | 0          | 0          |   0.0 |  0.00
Comm    | 0.02759    | 0.29415    | 0.90605    |  45.3 | 16.39
Output  | 0          | 0          | 0          |   0.0 |  0.00
Modify  | 1.9706e-05 | 0.0025604  | 0.0055127  |   2.4 |  0.14
Other   |            | 0.2009     |            |       | 11.20

Nlocal:        2776.45 ave        3960 max           0 min
Histogram: 8 4 4 0 4 12 8 4 26 34
Nghost:        3879.04 ave        5424 max         232 min
Histogram: 8 0 8 0 16 0 8 8 16 40
Neighs:        79213.2 ave      115439 max           0 min
Histogram: 8 4 4 0 10 6 8 8 24 32

Total # of neighbors = 8238177
Ave neighs/atom = 28.530384
Neighbor list builds = 0
Dangerous builds = 0
The dot product: -8.96022959082687e-08
Setting atom values ...
  1 settings made for x
  1 settings made for y
  1 settings made for z
Setting up cg style minimization ...
  Unit style    : metal
  Current step  : 26489
Per MPI rank memory allocation (min/avg/max) = 5.441 | 5.816 | 6.074 Mbytes
Step PotEng KinEng TotEng v_fx v_fy v_fz 
   26489   -1152449.2            0   -1152449.2 -0.0088086511  0.011279955  0.020158396 
   26646   -1152449.2            0   -1152449.2 3.603812e-05 -2.1115735e-06 -2.8371259e-05 
Loop time of 1.81882 on 104 procs for 157 steps with 288751 atoms

99.9% CPU use with 104 MPI tasks x 1 OpenMP threads

Minimization stats:
  Stopping criterion = energy tolerance
  Energy initial, next-to-last, final = 
     -1152449.17597347  -1152449.17738376  -1152449.17738376
  Force two-norm initial, final = 0.16450547 0.00021432186
  Force max component initial, final = 0.090145744 3.6038120e-05
  Final line search alpha, max atom move = 1.0000000 3.6038120e-05
  Iterations, force evaluations = 157 314

MPI task timing breakdown:
Section |  min time  |  avg time  |  max time  |%varavg| %total
---------------------------------------------------------------
Pair    | 0.47397    | 1.3161     | 1.7243     |  31.0 | 72.36
Neigh   | 0          | 0          | 0          |   0.0 |  0.00
Comm    | 0.025697   | 0.29993    | 0.91785    |  45.9 | 16.49
Output  | 0          | 0          | 0          |   0.0 |  0.00
Modify  | 1.9442e-05 | 0.0025851  | 0.0055379  |   2.4 |  0.14
Other   |            | 0.2002     |            |       | 11.01

Nlocal:        2776.45 ave        3961 max           0 min
Histogram: 8 4 4 0 6 10 8 4 26 34
Nghost:        3879.05 ave        5425 max         232 min
Histogram: 8 0 8 0 16 0 8 8 16 40
Neighs:        79213.2 ave      115471 max           0 min
Histogram: 8 4 4 0 10 6 8 8 24 32

Total # of neighbors = 8238176
Ave neighs/atom = 28.530381
Neighbor list builds = 0
Dangerous builds = 0
The dot product: -1.45144142164478e-07
Setting atom values ...
  1 settings made for x
  1 settings made for y
  1 settings made for z
Setting up cg style minimization ...
  Unit style    : metal
  Current step  : 26646
Per MPI rank memory allocation (min/avg/max) = 5.441 | 5.816 | 6.074 Mbytes
Step PotEng KinEng TotEng v_fx v_fy v_fz 
   26646   -1152449.2            0   -1152449.2 -0.0036340089  0.010677451  0.015773102 
   26906   -1152449.2            0   -1152449.2 -1.4033217e-07 -5.7086418e-08 3.0264411e-08 
Loop time of 2.99848 on 104 procs for 260 steps with 288751 atoms

99.9% CPU use with 104 MPI tasks x 1 OpenMP threads

Minimization stats:
  Stopping criterion = energy tolerance
  Energy initial, next-to-last, final = 
     -1152449.16027555   -1152449.1616459   -1152449.1616459
  Force two-norm initial, final = 0.163524 3.5206456e-06
  Force max component initial, final = 0.091469146 5.0116130e-07
  Final line search alpha, max atom move = 1.0000000 5.0116130e-07
  Iterations, force evaluations = 260 520

MPI task timing breakdown:
Section |  min time  |  avg time  |  max time  |%varavg| %total
---------------------------------------------------------------
Pair    | 0.78356    | 2.1739     | 2.84       |  39.8 | 72.50
Neigh   | 0          | 0          | 0          |   0.0 |  0.00
Comm    | 0.044477   | 0.48785    | 1.4775     |  58.9 | 16.27
Output  | 0          | 0          | 0          |   0.0 |  0.00
Modify  | 3.2886e-05 | 0.0042791  | 0.0091452  |   3.1 |  0.14
Other   |            | 0.3324     |            |       | 11.09

Nlocal:        2776.45 ave        3961 max           0 min
Histogram: 8 4 4 0 6 10 8 4 26 34
Nghost:        3879.07 ave        5425 max         232 min
Histogram: 8 0 8 0 16 0 8 8 16 40
Neighs:        79213.2 ave      115469 max           0 min
Histogram: 8 4 4 0 10 6 8 8 24 32

Total # of neighbors = 8238174
Ave neighs/atom = 28.530374
Neighbor list builds = 0
Dangerous builds = 0
The dot product: -1.14819838684997e-10
Setting atom values ...
  1 settings made for x
  1 settings made for y
  1 settings made for z
Setting up cg style minimization ...
  Unit style    : metal
  Current step  : 26906
Per MPI rank memory allocation (min/avg/max) = 5.441 | 5.816 | 6.074 Mbytes
Step PotEng KinEng TotEng v_fx v_fy v_fz 
   26906   -1152449.1            0   -1152449.1 -0.00073389282 0.0094341494  0.012191603 
   27000   -1152449.1            0   -1152449.1 -6.955949e-05 5.6851334e-06 5.6984731e-05 
   27046   -1152449.1            0   -1152449.1 -6.6131071e-05 5.8789643e-07 4.8220232e-05 
Loop time of 1.6206 on 104 procs for 140 steps with 288751 atoms

99.9% CPU use with 104 MPI tasks x 1 OpenMP threads

Minimization stats:
  Stopping criterion = energy tolerance
  Energy initial, next-to-last, final = 
     -1152449.14359612  -1152449.14494821  -1152449.14494821
  Force two-norm initial, final = 0.16303256 0.00024802304
  Force max component initial, final = 0.092610187 7.9922235e-05
  Final line search alpha, max atom move = 1.0000000 7.9922235e-05
  Iterations, force evaluations = 140 280

MPI task timing breakdown:
Section |  min time  |  avg time  |  max time  |%varavg| %total
---------------------------------------------------------------
Pair    | 0.42331    | 1.1751     | 1.5361     |  29.3 | 72.51
Neigh   | 0          | 0          | 0          |   0.0 |  0.00
Comm    | 0.025973   | 0.26606    | 0.81343    |  43.2 | 16.42
Output  | 9.5088e-05 | 0.00010715 | 0.00026469 |   0.0 |  0.01
Modify  | 1.6905e-05 | 0.0023069  | 0.0049357  |   2.3 |  0.14
Other   |            | 0.1771     |            |       | 10.93

Nlocal:        2776.45 ave        3961 max           0 min
Histogram: 8 4 4 0 6 10 8 4 26 34
Nghost:        3879.07 ave        5425 max         232 min
Histogram: 8 0 8 0 16 0 8 8 16 40
Neighs:        79213.2 ave      115463 max           0 min
Histogram: 8 4 4 0 10 6 8 8 24 32

Total # of neighbors = 8238175
Ave neighs/atom = 28.530377
Neighbor list builds = 0
Dangerous builds = 0
The dot product: 4.16949986310148e-09
Setting atom values ...
  1 settings made for x
  1 settings made for y
  1 settings made for z
Setting up cg style minimization ...
  Unit style    : metal
  Current step  : 27046
Per MPI rank memory allocation (min/avg/max) = 5.441 | 5.816 | 6.074 Mbytes
Step PotEng KinEng TotEng v_fx v_fy v_fz 
   27046   -1152449.1            0   -1152449.1 -0.0008130462 0.0083557109  0.010932831 
   27217   -1152449.1            0   -1152449.1 3.3879248e-05 -2.1043367e-06 -2.6937927e-05 
Loop time of 1.9786 on 104 procs for 171 steps with 288751 atoms

99.9% CPU use with 104 MPI tasks x 1 OpenMP threads

Minimization stats:
  Stopping criterion = energy tolerance
  Energy initial, next-to-last, final = 
     -1152449.12591894  -1152449.12726757  -1152449.12726757
  Force two-norm initial, final = 0.162474 0.00014053303
  Force max component initial, final = 0.093650564 4.6846326e-05
  Final line search alpha, max atom move = 1.0000000 4.6846326e-05
  Iterations, force evaluations = 171 342

MPI task timing breakdown:
Section |  min time  |  avg time  |  max time  |%varavg| %total
---------------------------------------------------------------
Pair    | 0.52223    | 1.4335     | 1.8699     |  32.2 | 72.45
Neigh   | 0          | 0          | 0          |   0.0 |  0.00
Comm    | 0.028671   | 0.32623    | 0.99436    |  47.5 | 16.49
Output  | 0          | 0          | 0          |   0.0 |  0.00
Modify  | 2.1476e-05 | 0.0028265  | 0.0060449  |   2.5 |  0.14
Other   |            | 0.216      |            |       | 10.92

Nlocal:        2776.45 ave        3961 max           0 min
Histogram: 8 4 4 0 6 10 8 4 26 34
Nghost:        3879.07 ave        5425 max         232 min
Histogram: 8 0 8 0 16 0 8 8 16 40
Neighs:        79213.2 ave      115461 max           0 min
Histogram: 8 4 4 0 10 6 8 8 24 32

Total # of neighbors = 8238174
Ave neighs/atom = 28.530374
Neighbor list builds = 0
Dangerous builds = 0
The dot product: 2.33610525382863e-09
Setting atom values ...
  1 settings made for x
  1 settings made for y
  1 settings made for z
Setting up cg style minimization ...
  Unit style    : metal
  Current step  : 27217
Per MPI rank memory allocation (min/avg/max) = 5.441 | 5.816 | 6.074 Mbytes
Step PotEng KinEng TotEng v_fx v_fy v_fz 
   27217   -1152449.1            0   -1152449.1 -0.00088032183 0.0072937273 0.0096780704 
   27409   -1152449.1            0   -1152449.1 -8.3185654e-06 -3.6144521e-06 1.4903021e-06 
Loop time of 2.23663 on 104 procs for 192 steps with 288751 atoms

99.9% CPU use with 104 MPI tasks x 1 OpenMP threads

Minimization stats:
  Stopping criterion = energy tolerance
  Energy initial, next-to-last, final = 
     -1152449.10720174  -1152449.10856042  -1152449.10856042
  Force two-norm initial, final = 0.16201795 6.4422021e-05
  Force max component initial, final = 0.094493654 9.6645901e-06
  Final line search alpha, max atom move = 1.0000000 9.6645901e-06
  Iterations, force evaluations = 192 384

MPI task timing breakdown:
Section |  min time  |  avg time  |  max time  |%varavg| %total
---------------------------------------------------------------
Pair    | 0.5789     | 1.6127     | 2.104      |  34.3 | 72.10
Neigh   | 0          | 0          | 0          |   0.0 |  0.00
Comm    | 0.034207   | 0.36679    | 1.1234     |  50.6 | 16.40
Output  | 0          | 0          | 0          |   0.0 |  0.00
Modify  | 2.3466e-05 | 0.00317    | 0.0067984  |   2.7 |  0.14
Other   |            | 0.254      |            |       | 11.36

Nlocal:        2776.45 ave        3961 max           0 min
Histogram: 8 4 4 0 6 10 8 4 26 34
Nghost:        3879.11 ave        5425 max         232 min
Histogram: 8 0 8 0 16 0 8 8 16 40
Neighs:        79213.2 ave      115454 max           0 min
Histogram: 8 4 4 0 10 6 8 8 24 32

Total # of neighbors = 8238172
Ave neighs/atom = 28.530367
Neighbor list builds = 0
Dangerous builds = 0
The dot product: -1.3429592698966e-08
Setting atom values ...
  1 settings made for x
  1 settings made for y
  1 settings made for z
Setting up cg style minimization ...
  Unit style    : metal
  Current step  : 27409
Per MPI rank memory allocation (min/avg/max) = 5.441 | 5.816 | 6.074 Mbytes
Step PotEng KinEng TotEng v_fx v_fy v_fz 
   27409   -1152449.1            0   -1152449.1 -0.0010702472 0.0061521444 0.0084076315 
   27726   -1152449.1            0   -1152449.1 1.1663635e-07 -4.722919e-08 -1.4236869e-07 
Loop time of 3.69325 on 104 procs for 317 steps with 288751 atoms

99.9% CPU use with 104 MPI tasks x 1 OpenMP threads

Minimization stats:
  Stopping criterion = energy tolerance
  Energy initial, next-to-last, final = 
     -1152449.08743097  -1152449.08882639  -1152449.08882639
  Force two-norm initial, final = 0.16179538 8.8355216e-07
  Force max component initial, final = 0.095336016 2.1378662e-07
  Final line search alpha, max atom move = 1.0000000 2.1378662e-07
  Iterations, force evaluations = 317 634

MPI task timing breakdown:
Section |  min time  |  avg time  |  max time  |%varavg| %total
---------------------------------------------------------------
Pair    | 0.9694     | 2.6574     | 3.4743     |  43.8 | 71.95
Neigh   | 0          | 0          | 0          |   0.0 |  0.00
Comm    | 0.067102   | 0.60613    | 1.8487     |  64.4 | 16.41
Output  | 0          | 0          | 0          |   0.0 |  0.00
Modify  | 3.9723e-05 | 0.0052338  | 0.011226   |   3.4 |  0.14
Other   |            | 0.4244     |            |       | 11.49

Nlocal:        2776.45 ave        3961 max           0 min
Histogram: 8 4 4 0 6 10 8 4 26 34
Nghost:        3879.11 ave        5425 max         232 min
Histogram: 8 0 8 0 16 0 8 8 16 40
Neighs:        79213.2 ave      115469 max           0 min
Histogram: 8 4 4 0 10 6 8 8 24 32

Total # of neighbors = 8238172
Ave neighs/atom = 28.530367
Neighbor list builds = 0
Dangerous builds = 0
The dot product: -5.98258253896299e-11
Setting up cg style minimization ...
  Unit style    : metal
  Current step  : 27726
Per MPI rank memory allocation (min/avg/max) = 5.441 | 5.816 | 6.074 Mbytes
Step PotEng KinEng TotEng v_fx v_fy v_fz 
   27726   -1152449.1            0   -1152449.1    0.4154683  -0.71872876   0.57880454 
   27994   -1152449.3            0   -1152449.3 -1.4090527e-05 -2.5746608e-06 1.203912e-05 
Loop time of 3.10656 on 104 procs for 268 steps with 288751 atoms

99.9% CPU use with 104 MPI tasks x 1 OpenMP threads

Minimization stats:
  Stopping criterion = energy tolerance
  Energy initial, next-to-last, final = 
     -1152449.08882639  -1152449.26566398  -1152449.26566398
  Force two-norm initial, final = 1.0120275 7.3803262e-05
  Force max component initial, final = 0.71872876 2.0893308e-05
  Final line search alpha, max atom move = 1.0000000 2.0893308e-05
  Iterations, force evaluations = 268 536

MPI task timing breakdown:
Section |  min time  |  avg time  |  max time  |%varavg| %total
---------------------------------------------------------------
Pair    | 0.8122     | 2.2486     | 2.9321     |  40.4 | 72.38
Neigh   | 2.01e-05   | 0.0059233  | 0.0087575  |   3.2 |  0.19
Comm    | 0.049169   | 0.51043    | 1.5599     |  60.0 | 16.43
Output  | 0          | 0          | 0          |   0.0 |  0.00
Modify  | 3.0752e-05 | 0.0028803  | 0.0074782  |   3.4 |  0.09
Other   |            | 0.3387     |            |       | 10.90

Nlocal:        2776.45 ave        3960 max           0 min
Histogram: 8 4 4 0 4 12 8 4 26 34
Nghost:        3879.14 ave        5425 max         232 min
Histogram: 8 0 8 0 16 0 8 8 16 40
Neighs:        79213.3 ave      115439 max           0 min
Histogram: 8 4 4 0 10 6 8 8 24 32

Total # of neighbors = 8238185
Ave neighs/atom = 28.530412
Neighbor list builds = 2
Dangerous builds = 0
