LAMMPS (29 Oct 2020)
OMP_NUM_THREADS environment is not set. Defaulting to 1 thread. (../comm.cpp:94)
  using 1 OpenMP thread(s) per MPI task
OMP_NUM_THREADS environment is not set. Defaulting to 1 thread. (../comm.cpp:94)
  using 1 OpenMP thread(s) per MPI task
Reading data file ...
  orthogonal box = (-122.39241 -121.13707 -37.090501) to (122.39241 121.13707 37.090501)
  13 by 4 by 2 MPI processor grid
  reading atoms ...
  288751 atoms
  read_data CPU = 0.379 seconds
199981 atoms in group inner
88770 atoms in group outer
1 atoms in group carbon
Neighbor list info ...
  update every 1 steps, delay 0 steps, check yes
  max neighbors/atom: 2000, page size: 100000
  master list distance cutoff = 5.6
  ghost atom cutoff = 5.6
  binsize = 2.8, bins = 88 87 27
  1 neighbor lists, perpetual/occasional/extra = 1 0 0
  (1) pair eam/alloy, perpetual
      attributes: half, newton on
      pair build: half/bin/atomonly/newton
      stencil: half/bin/3d/newton
      bin: standard
Setting up cg style minimization ...
  Unit style    : metal
  Current step  : 0
Per MPI rank memory allocation (min/avg/max) = 5.441 | 5.816 | 6.074 Mbytes
Step v_fx v_fy v_fz PotEng KinEng TotEng 
       0   0.13579395   -30.356229    50.860521   -1152433.2            0   -1152433.2 
     157 6.0588224e-06 1.5968875e-05 4.0573947e-05   -1152449.5            0   -1152449.5 
Loop time of 1.80948 on 104 procs for 157 steps with 288751 atoms

99.9% CPU use with 104 MPI tasks x 1 OpenMP threads

Minimization stats:
  Stopping criterion = energy tolerance
  Energy initial, next-to-last, final = 
     -1152433.15076965  -1152449.45035269  -1152449.45035269
  Force two-norm initial, final = 88.668435 0.00019501638
  Force max component initial, final = 57.944391 4.0573947e-05
  Final line search alpha, max atom move = 1.0000000 4.0573947e-05
  Iterations, force evaluations = 157 306

MPI task timing breakdown:
Section |  min time  |  avg time  |  max time  |%varavg| %total
---------------------------------------------------------------
Pair    | 0.49062    | 1.2909     | 1.6744     |  29.9 | 71.34
Neigh   | 6.1162e-05 | 0.017705   | 0.025666   |   5.5 |  0.98
Comm    | 0.038156   | 0.28984    | 0.86815    |  44.9 | 16.02
Output  | 0          | 0          | 0          |   0.0 |  0.00
Modify  | 1.7037e-05 | 0.0016556  | 0.0042234  |   2.5 |  0.09
Other   |            | 0.2094     |            |       | 11.57

Nlocal:        2776.45 ave        3957 max           0 min
Histogram: 8 4 4 0 4 12 8 2 28 34
Nghost:        3879.01 ave        5424 max         232 min
Histogram: 8 0 8 0 16 0 8 8 16 40
Neighs:        79213.5 ave      115344 max           0 min
Histogram: 8 4 4 0 10 6 8 8 24 32

Total # of neighbors = 8238208
Ave neighs/atom = 28.530492
Neighbor list builds = 6
Dangerous builds = 1
Setting atom values ...
  1 settings made for x
  1 settings made for y
  1 settings made for z
Setting up cg style minimization ...
  Unit style    : metal
  Current step  : 157
Per MPI rank memory allocation (min/avg/max) = 5.441 | 5.816 | 6.074 Mbytes
Step PotEng KinEng TotEng v_fx v_fy v_fz 
     157   -1152449.4            0   -1152449.4 -0.0077675695 0.0064609431 0.0012611741 
     278   -1152449.5            0   -1152449.5 4.4902751e-06 9.7291954e-06 4.2258649e-05 
Loop time of 1.4221 on 104 procs for 121 steps with 288751 atoms

99.9% CPU use with 104 MPI tasks x 1 OpenMP threads

Minimization stats:
  Stopping criterion = energy tolerance
  Energy initial, next-to-last, final = 
      -1152449.4494534  -1152449.45006281  -1152449.45006281
  Force two-norm initial, final = 0.11541717 0.00015966043
  Force max component initial, final = 0.051734091 4.2258649e-05
  Final line search alpha, max atom move = 1.0000000 4.2258649e-05
  Iterations, force evaluations = 121 242

MPI task timing breakdown:
Section |  min time  |  avg time  |  max time  |%varavg| %total
---------------------------------------------------------------
Pair    | 0.37122    | 1.0234     | 1.3342     |  27.2 | 71.97
Neigh   | 0          | 0          | 0          |   0.0 |  0.00
Comm    | 0.022336   | 0.22927    | 0.68926    |  39.9 | 16.12
Output  | 0          | 0          | 0          |   0.0 |  0.00
Modify  | 1.587e-05  | 0.0019981  | 0.0042348  |   2.1 |  0.14
Other   |            | 0.1674     |            |       | 11.77

Nlocal:        2776.45 ave        3958 max           0 min
Histogram: 8 4 4 0 4 12 8 2 28 34
Nghost:        3878.99 ave        5426 max         232 min
Histogram: 8 0 8 0 16 0 8 8 16 40
Neighs:        79213.4 ave      115354 max           0 min
Histogram: 8 4 4 0 10 6 8 8 24 32

Total # of neighbors = 8238198
Ave neighs/atom = 28.530457
Neighbor list builds = 0
Dangerous builds = 0
Setting atom values ...
  1 settings made for x
  1 settings made for y
  1 settings made for z
Setting up cg style minimization ...
  Unit style    : metal
  Current step  : 278
Per MPI rank memory allocation (min/avg/max) = 5.441 | 5.816 | 6.074 Mbytes
Step PotEng KinEng TotEng v_fx v_fy v_fz 
     278   -1152449.4            0   -1152449.4 -0.018704099  0.018083259 0.0027233396 
     520   -1152449.4            0   -1152449.4 -1.6917721e-08 -3.4153714e-07 -1.4038847e-06 
Loop time of 2.81405 on 104 procs for 242 steps with 288751 atoms

99.9% CPU use with 104 MPI tasks x 1 OpenMP threads

Minimization stats:
  Stopping criterion = energy tolerance
  Energy initial, next-to-last, final = 
      -1152449.4467059   -1152449.4483821   -1152449.4483821
  Force two-norm initial, final = 0.19213759 8.9599817e-06
  Force max component initial, final = 0.08005355 1.4038847e-06
  Final line search alpha, max atom move = 1.0000000 1.4038847e-06
  Iterations, force evaluations = 242 484

MPI task timing breakdown:
Section |  min time  |  avg time  |  max time  |%varavg| %total
---------------------------------------------------------------
Pair    | 0.73907    | 2.0303     | 2.6452     |  38.3 | 72.15
Neigh   | 0          | 0          | 0          |   0.0 |  0.00
Comm    | 0.054      | 0.45385    | 1.3712     |  56.7 | 16.13
Output  | 0          | 0          | 0          |   0.0 |  0.00
Modify  | 2.8759e-05 | 0.0039838  | 0.0084895  |   3.0 |  0.14
Other   |            | 0.326      |            |       | 11.58

Nlocal:        2776.45 ave        3958 max           0 min
Histogram: 8 4 4 0 4 12 8 2 28 34
Nghost:        3878.99 ave        5427 max         232 min
Histogram: 8 0 8 0 16 0 8 8 16 40
Neighs:        79213.5 ave      115354 max           0 min
Histogram: 8 4 4 0 10 6 8 8 24 32

Total # of neighbors = 8238199
Ave neighs/atom = 28.530461
Neighbor list builds = 0
Dangerous builds = 0
The dot product: 1.53407987054124e-09
Setting atom values ...
  1 settings made for x
  1 settings made for y
  1 settings made for z
Setting up cg style minimization ...
  Unit style    : metal
  Current step  : 520
Per MPI rank memory allocation (min/avg/max) = 5.441 | 5.816 | 6.074 Mbytes
Step PotEng KinEng TotEng v_fx v_fy v_fz 
     520   -1152449.4            0   -1152449.4 -0.023593533  0.026765641 0.0027356395 
     644   -1152449.4            0   -1152449.4 -2.3112417e-06 -5.9508257e-06 -4.1427023e-05 
Loop time of 1.45542 on 104 procs for 124 steps with 288751 atoms

99.9% CPU use with 104 MPI tasks x 1 OpenMP threads

Minimization stats:
  Stopping criterion = energy tolerance
  Energy initial, next-to-last, final = 
      -1152449.4435497  -1152449.44522666  -1152449.44522666
  Force two-norm initial, final = 0.19231011 0.00011303331
  Force max component initial, final = 0.076229982 4.1427023e-05
  Final line search alpha, max atom move = 1.0000000 4.1427023e-05
  Iterations, force evaluations = 124 248

MPI task timing breakdown:
Section |  min time  |  avg time  |  max time  |%varavg| %total
---------------------------------------------------------------
Pair    | 0.37825    | 1.0478     | 1.3699     |  27.6 | 71.99
Neigh   | 0          | 0          | 0          |   0.0 |  0.00
Comm    | 0.025617   | 0.23857    | 0.72054    |  40.4 | 16.39
Output  | 0          | 0          | 0          |   0.0 |  0.00
Modify  | 1.4195e-05 | 0.0020466  | 0.0043788  |   2.1 |  0.14
Other   |            | 0.167      |            |       | 11.47

Nlocal:        2776.45 ave        3957 max           0 min
Histogram: 8 4 4 0 4 12 8 2 28 34
Nghost:        3879.01 ave        5424 max         232 min
Histogram: 8 0 8 0 16 0 8 8 16 40
Neighs:        79213.5 ave      115314 max           0 min
Histogram: 8 4 4 0 10 6 8 8 24 32

Total # of neighbors = 8238201
Ave neighs/atom = 28.530467
Neighbor list builds = 0
Dangerous builds = 0
The dot product: 7.01689912958083e-08
Setting atom values ...
  1 settings made for x
  1 settings made for y
  1 settings made for z
Setting up cg style minimization ...
  Unit style    : metal
  Current step  : 644
Per MPI rank memory allocation (min/avg/max) = 5.441 | 5.816 | 6.074 Mbytes
Step PotEng KinEng TotEng v_fx v_fy v_fz 
     644   -1152449.4            0   -1152449.4 -0.025603573  0.033895723 0.0038372151 
     767   -1152449.4            0   -1152449.4 1.1682143e-06 -6.9996962e-06 -3.3638237e-05 
Loop time of 1.4159 on 104 procs for 123 steps with 288751 atoms

99.9% CPU use with 104 MPI tasks x 1 OpenMP threads

Minimization stats:
  Stopping criterion = energy tolerance
  Energy initial, next-to-last, final = 
     -1152449.43890913    -1152449.440578    -1152449.440578
  Force two-norm initial, final = 0.19187226 0.00011347867
  Force max component initial, final = 0.073338139 3.3638237e-05
  Final line search alpha, max atom move = 1.0000000 3.3638237e-05
  Iterations, force evaluations = 123 246

MPI task timing breakdown:
Section |  min time  |  avg time  |  max time  |%varavg| %total
---------------------------------------------------------------
Pair    | 0.37511    | 1.0307     | 1.3419     |  27.3 | 72.80
Neigh   | 0          | 0          | 0          |   0.0 |  0.00
Comm    | 0.025935   | 0.22807    | 0.69364    |  40.8 | 16.11
Output  | 0          | 0          | 0          |   0.0 |  0.00
Modify  | 1.4062e-05 | 0.0020263  | 0.0043181  |   2.1 |  0.14
Other   |            | 0.1551     |            |       | 10.95

Nlocal:        2776.45 ave        3957 max           0 min
Histogram: 8 4 4 0 4 12 8 2 28 34
Nghost:        3879.01 ave        5425 max         232 min
Histogram: 8 0 8 0 16 0 8 8 16 40
Neighs:        79213.5 ave      115314 max           0 min
Histogram: 8 4 4 0 10 6 8 8 24 32

Total # of neighbors = 8238201
Ave neighs/atom = 28.530467
Neighbor list builds = 0
Dangerous builds = 0
The dot product: 3.95452604592497e-08
Setting atom values ...
  1 settings made for x
  1 settings made for y
  1 settings made for z
Setting up cg style minimization ...
  Unit style    : metal
  Current step  : 767
Per MPI rank memory allocation (min/avg/max) = 5.441 | 5.816 | 6.074 Mbytes
Step PotEng KinEng TotEng v_fx v_fy v_fz 
     767   -1152449.4            0   -1152449.4 -0.025932561  0.039444211 0.0060318839 
     877   -1152449.4            0   -1152449.4 1.2299851e-06 8.1261376e-06 7.8327705e-05 
Loop time of 1.28515 on 104 procs for 110 steps with 288751 atoms

99.9% CPU use with 104 MPI tasks x 1 OpenMP threads

Minimization stats:
  Stopping criterion = energy tolerance
  Energy initial, next-to-last, final = 
     -1152449.43275193   -1152449.4344055   -1152449.4344055
  Force two-norm initial, final = 0.19097966 0.00022257748
  Force max component initial, final = 0.073729666 7.8327705e-05
  Final line search alpha, max atom move = 1.0000000 7.8327705e-05
  Iterations, force evaluations = 110 220

MPI task timing breakdown:
Section |  min time  |  avg time  |  max time  |%varavg| %total
---------------------------------------------------------------
Pair    | 0.3363     | 0.92744    | 1.2056     |  25.8 | 72.17
Neigh   | 0          | 0          | 0          |   0.0 |  0.00
Comm    | 0.022878   | 0.20685    | 0.63051    |  38.4 | 16.10
Output  | 0          | 0          | 0          |   0.0 |  0.00
Modify  | 1.3005e-05 | 0.0018136  | 0.0038458  |   2.0 |  0.14
Other   |            | 0.1491     |            |       | 11.60

Nlocal:        2776.45 ave        3957 max           0 min
Histogram: 8 4 4 0 4 12 8 2 28 34
Nghost:        3879.01 ave        5426 max         232 min
Histogram: 8 0 8 0 16 0 8 8 16 40
Neighs:        79213.5 ave      115314 max           0 min
Histogram: 8 4 4 0 10 6 8 8 24 32

Total # of neighbors = 8238200
Ave neighs/atom = 28.530464
Neighbor list builds = 0
Dangerous builds = 0
The dot product: -1.17840776929546e-07
Setting atom values ...
  1 settings made for x
  1 settings made for y
  1 settings made for z
Setting up cg style minimization ...
  Unit style    : metal
  Current step  : 877
Per MPI rank memory allocation (min/avg/max) = 5.441 | 5.816 | 6.074 Mbytes
Step PotEng KinEng TotEng v_fx v_fy v_fz 
     877   -1152449.4            0   -1152449.4 -0.025538477  0.043956351 0.0090812001 
    1000   -1152449.4            0   -1152449.4 -2.083254e-07 -1.0324082e-06 -1.4060497e-05 
    1012   -1152449.4            0   -1152449.4 -1.2309483e-06 1.5478048e-06 -5.3633698e-06 
Loop time of 1.57883 on 104 procs for 135 steps with 288751 atoms

99.9% CPU use with 104 MPI tasks x 1 OpenMP threads

Minimization stats:
  Stopping criterion = energy tolerance
  Energy initial, next-to-last, final = 
     -1152449.42504298  -1152449.42667874  -1152449.42667874
  Force two-norm initial, final = 0.18988985 7.8233827e-05
  Force max component initial, final = 0.073453345 1.2825830e-05
  Final line search alpha, max atom move = 1.0000000 1.2825830e-05
  Iterations, force evaluations = 135 270

MPI task timing breakdown:
Section |  min time  |  avg time  |  max time  |%varavg| %total
---------------------------------------------------------------
Pair    | 0.42368    | 1.1363     | 1.4765     |  28.3 | 71.97
Neigh   | 0          | 0          | 0          |   0.0 |  0.00
Comm    | 0.025286   | 0.25472    | 0.76408    |  42.2 | 16.13
Output  | 0.00016305 | 0.0001724  | 0.00029492 |   0.0 |  0.01
Modify  | 1.5703e-05 | 0.002227   | 0.0047271  |   2.2 |  0.14
Other   |            | 0.1854     |            |       | 11.74

Nlocal:        2776.45 ave        3955 max           0 min
Histogram: 8 4 4 0 4 12 8 0 30 34
Nghost:        3879.01 ave        5427 max         232 min
Histogram: 8 0 8 0 16 0 8 8 16 40
Neighs:        79213.5 ave      115229 max           0 min
Histogram: 8 4 4 0 10 6 8 8 24 32

Total # of neighbors = 8238202
Ave neighs/atom = 28.530471
Neighbor list builds = 0
Dangerous builds = 0
The dot product: 1.90889652645898e-08
Setting atom values ...
  1 settings made for x
  1 settings made for y
  1 settings made for z
Setting up cg style minimization ...
  Unit style    : metal
  Current step  : 1012
Per MPI rank memory allocation (min/avg/max) = 5.441 | 5.816 | 6.074 Mbytes
Step PotEng KinEng TotEng v_fx v_fy v_fz 
    1012   -1152449.4            0   -1152449.4 -0.024909267  0.047958523  0.012522494 
    1137   -1152449.4            0   -1152449.4 -2.2347751e-06 2.1415713e-06 -2.6912965e-05 
Loop time of 1.45164 on 104 procs for 125 steps with 288751 atoms

99.9% CPU use with 104 MPI tasks x 1 OpenMP threads

Minimization stats:
  Stopping criterion = energy tolerance
  Energy initial, next-to-last, final = 
     -1152449.41575762   -1152449.4173745   -1152449.4173745
  Force two-norm initial, final = 0.1887163 0.00012883415
  Force max component initial, final = 0.072502844 2.6912965e-05
  Final line search alpha, max atom move = 1.0000000 2.6912965e-05
  Iterations, force evaluations = 125 250

MPI task timing breakdown:
Section |  min time  |  avg time  |  max time  |%varavg| %total
---------------------------------------------------------------
Pair    | 0.37959    | 1.052      | 1.3701     |  27.6 | 72.47
Neigh   | 0          | 0          | 0          |   0.0 |  0.00
Comm    | 0.022473   | 0.23468    | 0.71053    |  40.9 | 16.17
Output  | 0          | 0          | 0          |   0.0 |  0.00
Modify  | 1.4778e-05 | 0.0020625  | 0.004391   |   2.1 |  0.14
Other   |            | 0.1629     |            |       | 11.22

Nlocal:        2776.45 ave        3953 max           0 min
Histogram: 8 4 4 0 4 12 8 0 30 34
Nghost:        3878.99 ave        5427 max         232 min
Histogram: 8 0 8 0 16 0 8 8 16 40
Neighs:        79213.5 ave      115180 max           0 min
Histogram: 8 4 4 0 10 6 8 8 24 32

Total # of neighbors = 8238201
Ave neighs/atom = 28.530467
Neighbor list builds = 0
Dangerous builds = 0
The dot product: 4.77189017699108e-08
Setting atom values ...
  1 settings made for x
  1 settings made for y
  1 settings made for z
Setting up cg style minimization ...
  Unit style    : metal
  Current step  : 1137
Per MPI rank memory allocation (min/avg/max) = 5.441 | 5.816 | 6.074 Mbytes
Step PotEng KinEng TotEng v_fx v_fy v_fz 
    1137   -1152449.4            0   -1152449.4 -0.024302221  0.052067718  0.016590305 
    1253   -1152449.4            0   -1152449.4 -6.2699625e-06 1.4938928e-05 2.7901582e-05 
Loop time of 1.33732 on 104 procs for 116 steps with 288751 atoms

99.9% CPU use with 104 MPI tasks x 1 OpenMP threads

Minimization stats:
  Stopping criterion = energy tolerance
  Energy initial, next-to-last, final = 
       -1152449.404881  -1152449.40648174  -1152449.40648174
  Force two-norm initial, final = 0.18772794 0.00019312548
  Force max component initial, final = 0.071076927 2.7901582e-05
  Final line search alpha, max atom move = 1.0000000 2.7901582e-05
  Iterations, force evaluations = 116 232

MPI task timing breakdown:
Section |  min time  |  avg time  |  max time  |%varavg| %total
---------------------------------------------------------------
Pair    | 0.35206    | 0.97261    | 1.2665     |  26.6 | 72.73
Neigh   | 0          | 0          | 0          |   0.0 |  0.00
Comm    | 0.024308   | 0.21547    | 0.65569    |  39.7 | 16.11
Output  | 0          | 0          | 0          |   0.0 |  0.00
Modify  | 1.3346e-05 | 0.0019116  | 0.0040724  |   2.1 |  0.14
Other   |            | 0.1473     |            |       | 11.02

Nlocal:        2776.45 ave        3952 max           0 min
Histogram: 8 4 4 0 4 12 8 0 30 34
Nghost:        3878.99 ave        5426 max         232 min
Histogram: 8 0 8 0 16 0 8 8 16 40
Neighs:        79213.5 ave      115150 max           0 min
Histogram: 8 4 4 0 10 6 8 8 24 32

Total # of neighbors = 8238200
Ave neighs/atom = 28.530464
Neighbor list builds = 0
Dangerous builds = 0
The dot product: 8.31392123909896e-08
Setting atom values ...
  1 settings made for x
  1 settings made for y
  1 settings made for z
Setting up cg style minimization ...
  Unit style    : metal
  Current step  : 1253
Per MPI rank memory allocation (min/avg/max) = 5.441 | 5.816 | 6.074 Mbytes
Step PotEng KinEng TotEng v_fx v_fy v_fz 
    1253   -1152449.4            0   -1152449.4 -0.023825299   0.05693484  0.021501489 
    1377   -1152449.4            0   -1152449.4 2.7938537e-06 -5.7827688e-06 1.2371139e-05 
Loop time of 1.44639 on 104 procs for 124 steps with 288751 atoms

99.9% CPU use with 104 MPI tasks x 1 OpenMP threads

Minimization stats:
  Stopping criterion = energy tolerance
  Energy initial, next-to-last, final = 
     -1152449.39241303  -1152449.39400731  -1152449.39400731
  Force two-norm initial, final = 0.18717872 0.00013088639
  Force max component initial, final = 0.069107652 2.0332563e-05
  Final line search alpha, max atom move = 1.0000000 2.0332563e-05
  Iterations, force evaluations = 124 248

MPI task timing breakdown:
Section |  min time  |  avg time  |  max time  |%varavg| %total
---------------------------------------------------------------
Pair    | 0.37748    | 1.0465     | 1.3715     |  27.5 | 72.35
Neigh   | 0          | 0          | 0          |   0.0 |  0.00
Comm    | 0.020874   | 0.23592    | 0.71465    |  40.5 | 16.31
Output  | 0          | 0          | 0          |   0.0 |  0.00
Modify  | 1.4648e-05 | 0.0020477  | 0.0043518  |   2.1 |  0.14
Other   |            | 0.1619     |            |       | 11.19

Nlocal:        2776.45 ave        3952 max           0 min
Histogram: 8 4 4 0 4 12 8 1 29 34
Nghost:        3878.99 ave        5424 max         232 min
Histogram: 8 0 8 0 16 0 8 8 16 40
Neighs:        79213.4 ave      115150 max           0 min
Histogram: 8 4 4 0 10 6 8 8 24 32

Total # of neighbors = 8238198
Ave neighs/atom = 28.530457
Neighbor list builds = 0
Dangerous builds = 0
The dot product: -4.17031185807617e-08
Setting atom values ...
  1 settings made for x
  1 settings made for y
  1 settings made for z
Setting up cg style minimization ...
  Unit style    : metal
  Current step  : 1377
Per MPI rank memory allocation (min/avg/max) = 5.441 | 5.816 | 6.074 Mbytes
Step PotEng KinEng TotEng v_fx v_fy v_fz 
    1377   -1152449.4            0   -1152449.4 -0.023449138    0.0633185  0.027475343 
    1571   -1152449.4            0   -1152449.4 -7.0984779e-07 2.0573302e-06 2.8553088e-06 
Loop time of 2.2557 on 104 procs for 194 steps with 288751 atoms

99.9% CPU use with 104 MPI tasks x 1 OpenMP threads

Minimization stats:
  Stopping criterion = energy tolerance
  Energy initial, next-to-last, final = 
     -1152449.37838039  -1152449.37998967  -1152449.37998967
  Force two-norm initial, final = 0.18737548 1.5829319e-05
  Force max component initial, final = 0.066307821 3.7368218e-06
  Final line search alpha, max atom move = 1.0000000 3.7368218e-06
  Iterations, force evaluations = 194 388

MPI task timing breakdown:
Section |  min time  |  avg time  |  max time  |%varavg| %total
---------------------------------------------------------------
Pair    | 0.5902     | 1.63       | 2.1232     |  34.5 | 72.26
Neigh   | 0          | 0          | 0          |   0.0 |  0.00
Comm    | 0.041302   | 0.3645     | 1.105      |  51.1 | 16.16
Output  | 0          | 0          | 0          |   0.0 |  0.00
Modify  | 2.2385e-05 | 0.0031922  | 0.0068397  |   2.7 |  0.14
Other   |            | 0.258      |            |       | 11.44

Nlocal:        2776.45 ave        3952 max           0 min
Histogram: 8 4 4 0 4 12 8 2 28 34
Nghost:        3878.99 ave        5424 max         232 min
Histogram: 8 0 8 0 16 0 8 8 16 40
Neighs:        79213.4 ave      115161 max           0 min
Histogram: 8 4 4 0 10 6 8 8 24 32

Total # of neighbors = 8238198
Ave neighs/atom = 28.530457
Neighbor list builds = 0
Dangerous builds = 0
The dot product: 2.22236039996271e-08
Setting atom values ...
  1 settings made for x
  1 settings made for y
  1 settings made for z
Setting up cg style minimization ...
  Unit style    : metal
  Current step  : 1571
Per MPI rank memory allocation (min/avg/max) = 5.441 | 5.816 | 6.074 Mbytes
Step PotEng KinEng TotEng v_fx v_fy v_fz 
    1571   -1152449.4            0   -1152449.4 -0.023606171  0.074691974  0.038014594 
    1714   -1152449.4            0   -1152449.4 -1.7823288e-06 4.1965631e-06 -1.1278517e-05 
Loop time of 1.66588 on 104 procs for 143 steps with 288751 atoms

99.9% CPU use with 104 MPI tasks x 1 OpenMP threads

Minimization stats:
  Stopping criterion = energy tolerance
  Energy initial, next-to-last, final = 
     -1152449.36286879  -1152449.36461514  -1152449.36461514
  Force two-norm initial, final = 0.19052879 8.3404467e-05
  Force max component initial, final = 0.074691974 1.1278517e-05
  Final line search alpha, max atom move = 1.0000000 1.1278517e-05
  Iterations, force evaluations = 143 286

MPI task timing breakdown:
Section |  min time  |  avg time  |  max time  |%varavg| %total
---------------------------------------------------------------
Pair    | 0.43635    | 1.2047     | 1.5699     |  29.5 | 72.32
Neigh   | 0          | 0          | 0          |   0.0 |  0.00
Comm    | 0.027543   | 0.26958    | 0.82065    |  43.5 | 16.18
Output  | 0          | 0          | 0          |   0.0 |  0.00
Modify  | 1.6656e-05 | 0.0023563  | 0.0050222  |   2.3 |  0.14
Other   |            | 0.1892     |            |       | 11.36

Nlocal:        2776.45 ave        3951 max           0 min
Histogram: 8 4 4 0 4 12 8 2 28 34
Nghost:        3878.99 ave        5426 max         232 min
Histogram: 8 0 8 0 16 0 8 8 16 40
Neighs:        79213.4 ave      115143 max           0 min
Histogram: 8 4 4 0 10 6 8 8 24 32

Total # of neighbors = 8238197
Ave neighs/atom = 28.530454
Neighbor list builds = 0
Dangerous builds = 0
The dot product: -2.39370424558423e-09
Setting atom values ...
  1 settings made for x
  1 settings made for y
  1 settings made for z
Setting up cg style minimization ...
  Unit style    : metal
  Current step  : 1714
Per MPI rank memory allocation (min/avg/max) = 5.441 | 5.816 | 6.074 Mbytes
Step PotEng KinEng TotEng v_fx v_fy v_fz 
    1714   -1152449.3            0   -1152449.3 -0.023556062   0.10252524   0.06263034 
    1859   -1152449.4            0   -1152449.4 1.2084738e-06 5.6490203e-06 4.5264188e-05 
Loop time of 1.68393 on 104 procs for 145 steps with 288751 atoms

99.9% CPU use with 104 MPI tasks x 1 OpenMP threads

Minimization stats:
  Stopping criterion = energy tolerance
  Energy initial, next-to-last, final = 
     -1152449.34636004  -1152449.35089178  -1152449.35089178
  Force two-norm initial, final = 0.20595071 0.00019759082
  Force max component initial, final = 0.10252524 4.5264188e-05
  Final line search alpha, max atom move = 1.0000000 4.5264188e-05
  Iterations, force evaluations = 145 290

MPI task timing breakdown:
Section |  min time  |  avg time  |  max time  |%varavg| %total
---------------------------------------------------------------
Pair    | 0.44177    | 1.2136     | 1.582      |  29.7 | 72.07
Neigh   | 0          | 0          | 0          |   0.0 |  0.00
Comm    | 0.032926   | 0.27133    | 0.82099    |  44.1 | 16.11
Output  | 0          | 0          | 0          |   0.0 |  0.00
Modify  | 1.6702e-05 | 0.0023897  | 0.005112   |   2.3 |  0.14
Other   |            | 0.1966     |            |       | 11.68

Nlocal:        2776.45 ave        3952 max           0 min
Histogram: 8 4 4 0 4 12 8 2 28 34
Nghost:        3879.01 ave        5427 max         232 min
Histogram: 8 0 8 0 16 0 8 8 16 40
Neighs:        79213.4 ave      115161 max           0 min
Histogram: 8 4 4 0 10 6 8 8 24 32

Total # of neighbors = 8238192
Ave neighs/atom = 28.530436
Neighbor list builds = 0
Dangerous builds = 0
The dot product: 2.04899668393099e-06
Setting atom values ...
  1 settings made for x
  1 settings made for y
  1 settings made for z
Setting up cg style minimization ...
  Unit style    : metal
  Current step  : 1859
Per MPI rank memory allocation (min/avg/max) = 5.441 | 5.816 | 6.074 Mbytes
Step PotEng KinEng TotEng v_fx v_fy v_fz 
    1859   -1152449.3            0   -1152449.3   0.02377579   0.21800066   0.13882478 
    2000   -1152449.3            0   -1152449.3 -5.8864716e-05 -1.2538837e-05 -0.00026773663 
    2071   -1152449.3            0   -1152449.3 1.4371078e-07 3.0781617e-05 5.0849144e-06 
Loop time of 2.45739 on 104 procs for 212 steps with 288751 atoms

99.9% CPU use with 104 MPI tasks x 1 OpenMP threads

Minimization stats:
  Stopping criterion = energy tolerance
  Energy initial, next-to-last, final = 
     -1152449.33555445  -1152449.34592292  -1152449.34592292
  Force two-norm initial, final = 0.29931541 0.00017757785
  Force max component initial, final = 0.21800066 3.7393911e-05
  Final line search alpha, max atom move = 1.0000000 3.7393911e-05
  Iterations, force evaluations = 212 424

MPI task timing breakdown:
Section |  min time  |  avg time  |  max time  |%varavg| %total
---------------------------------------------------------------
Pair    | 0.64707    | 1.7831     | 2.3207     |  35.9 | 72.56
Neigh   | 1.0155e-05 | 0.002951   | 0.0043061  |   2.2 |  0.12
Comm    | 0.045347   | 0.39932    | 1.2143     |  53.1 | 16.25
Output  | 0.00015546 | 0.00016285 | 0.00029787 |   0.0 |  0.01
Modify  | 2.4809e-05 | 0.0034857  | 0.0074062  |   2.8 |  0.14
Other   |            | 0.2684     |            |       | 10.92

Nlocal:        2776.45 ave        3957 max           0 min
Histogram: 8 4 4 0 4 12 8 2 28 34
Nghost:        3879.01 ave        5426 max         232 min
Histogram: 8 0 8 0 16 0 8 8 16 40
Neighs:        79213.4 ave      115358 max           0 min
Histogram: 8 4 4 0 10 6 8 8 24 32

Total # of neighbors = 8238196
Ave neighs/atom = 28.530450
Neighbor list builds = 1
Dangerous builds = 0
The dot product: 2.23694682567297e-06
Setting atom values ...
  1 settings made for x
  1 settings made for y
  1 settings made for z
Setting up cg style minimization ...
  Unit style    : metal
  Current step  : 2071
Per MPI rank memory allocation (min/avg/max) = 5.441 | 5.816 | 6.074 Mbytes
Step PotEng KinEng TotEng v_fx v_fy v_fz 
    2071   -1152449.3            0   -1152449.3  0.070497389   0.17555774  0.080076134 
    2323   -1152449.3            0   -1152449.3 -1.0797279e-05 -2.6227827e-05 -1.2680872e-05 
Loop time of 2.98881 on 104 procs for 252 steps with 288751 atoms

99.9% CPU use with 104 MPI tasks x 1 OpenMP threads

Minimization stats:
  Stopping criterion = energy tolerance
  Energy initial, next-to-last, final = 
     -1152449.33328611  -1152449.34468262  -1152449.34468262
  Force two-norm initial, final = 0.2475539 0.00014339448
  Force max component initial, final = 0.17555774 2.6227827e-05
  Final line search alpha, max atom move = 1.0000000 2.6227827e-05
  Iterations, force evaluations = 252 504

MPI task timing breakdown:
Section |  min time  |  avg time  |  max time  |%varavg| %total
---------------------------------------------------------------
Pair    | 0.76918    | 2.1186     | 2.7662     |  39.2 | 70.88
Neigh   | 1.0545e-05 | 0.0029694  | 0.0044822  |   2.2 |  0.10
Comm    | 0.06161    | 0.47948    | 1.4315     |  57.3 | 16.04
Output  | 0          | 0          | 0          |   0.0 |  0.00
Modify  | 3.0593e-05 | 0.0041539  | 0.0088967  |   3.0 |  0.14
Other   |            | 0.3836     |            |       | 12.83

Nlocal:        2776.45 ave        3958 max           0 min
Histogram: 8 4 4 0 4 12 8 2 28 34
Nghost:        3879.05 ave        5425 max         232 min
Histogram: 8 0 8 0 16 0 8 8 16 40
Neighs:        79213.4 ave      115367 max           0 min
Histogram: 8 4 4 0 10 6 8 8 24 32

Total # of neighbors = 8238190
Ave neighs/atom = 28.530429
Neighbor list builds = 1
Dangerous builds = 0
The dot product: -2.88848873448359e-06
Setting atom values ...
  1 settings made for x
  1 settings made for y
  1 settings made for z
Setting up cg style minimization ...
  Unit style    : metal
  Current step  : 2323
Per MPI rank memory allocation (min/avg/max) = 5.441 | 5.816 | 6.074 Mbytes
Step PotEng KinEng TotEng v_fx v_fy v_fz 
    2323   -1152449.3            0   -1152449.3 -0.049997761 -0.030033348 -0.047964493 
    2465   -1152449.3            0   -1152449.3 -2.8273929e-05 -7.8668507e-06 -3.4307067e-05 
Loop time of 1.64184 on 104 procs for 142 steps with 288751 atoms

99.9% CPU use with 104 MPI tasks x 1 OpenMP threads

Minimization stats:
  Stopping criterion = energy tolerance
  Energy initial, next-to-last, final = 
     -1152449.34687935   -1152449.3481884   -1152449.3481884
  Force two-norm initial, final = 0.1464257 0.00013258625
  Force max component initial, final = 0.049997761 3.4307067e-05
  Final line search alpha, max atom move = 1.0000000 3.4307067e-05
  Iterations, force evaluations = 142 284

MPI task timing breakdown:
Section |  min time  |  avg time  |  max time  |%varavg| %total
---------------------------------------------------------------
Pair    | 0.43254    | 1.1955     | 1.5552     |  29.4 | 72.82
Neigh   | 0          | 0          | 0          |   0.0 |  0.00
Comm    | 0.028403   | 0.26657    | 0.81491    |  43.8 | 16.24
Output  | 0          | 0          | 0          |   0.0 |  0.00
Modify  | 1.6529e-05 | 0.0023438  | 0.0049898  |   2.3 |  0.14
Other   |            | 0.1774     |            |       | 10.80

Nlocal:        2776.45 ave        3957 max           0 min
Histogram: 8 4 4 0 4 12 8 2 28 34
Nghost:        3879.03 ave        5425 max         232 min
Histogram: 8 0 8 0 16 0 8 8 16 40
Neighs:        79213.4 ave      115332 max           0 min
Histogram: 8 4 4 0 10 6 8 8 24 32

Total # of neighbors = 8238192
Ave neighs/atom = 28.530436
Neighbor list builds = 0
Dangerous builds = 0
The dot product: 4.27761528528417e-07
Setting atom values ...
  1 settings made for x
  1 settings made for y
  1 settings made for z
Setting up cg style minimization ...
  Unit style    : metal
  Current step  : 2465
Per MPI rank memory allocation (min/avg/max) = 5.441 | 5.816 | 6.074 Mbytes
Step PotEng KinEng TotEng v_fx v_fy v_fz 
    2465   -1152449.3            0   -1152449.3 -0.0067041923 0.0096187219 -0.017567755 
    2636   -1152449.4            0   -1152449.4 2.2717704e-05 6.808141e-06 2.9246928e-05 
Loop time of 2.00536 on 104 procs for 171 steps with 288751 atoms

99.9% CPU use with 104 MPI tasks x 1 OpenMP threads

Minimization stats:
  Stopping criterion = energy tolerance
  Energy initial, next-to-last, final = 
     -1152449.34955047  -1152449.35045681  -1152449.35045681
  Force two-norm initial, final = 0.12496559 0.00017206562
  Force max component initial, final = 0.04769931 3.2125965e-05
  Final line search alpha, max atom move = 1.0000000 3.2125965e-05
  Iterations, force evaluations = 171 342

MPI task timing breakdown:
Section |  min time  |  avg time  |  max time  |%varavg| %total
---------------------------------------------------------------
Pair    | 0.522      | 1.4333     | 1.8684     |  32.1 | 71.47
Neigh   | 0          | 0          | 0          |   0.0 |  0.00
Comm    | 0.042503   | 0.32338    | 0.98093    |  47.7 | 16.13
Output  | 0          | 0          | 0          |   0.0 |  0.00
Modify  | 1.9686e-05 | 0.0028174  | 0.0060149  |   2.5 |  0.14
Other   |            | 0.2459     |            |       | 12.26

Nlocal:        2776.45 ave        3957 max           0 min
Histogram: 8 4 4 0 4 12 8 2 28 34
Nghost:        3879.07 ave        5425 max         232 min
Histogram: 8 0 8 0 16 0 8 8 16 40
Neighs:        79213.4 ave      115343 max           0 min
Histogram: 8 4 4 0 10 6 8 8 24 32

Total # of neighbors = 8238193
Ave neighs/atom = 28.530440
Neighbor list builds = 0
Dangerous builds = 0
The dot product: 1.51923476205386e-08
Setting atom values ...
  1 settings made for x
  1 settings made for y
  1 settings made for z
Setting up cg style minimization ...
  Unit style    : metal
  Current step  : 2636
Per MPI rank memory allocation (min/avg/max) = 5.441 | 5.816 | 6.074 Mbytes
Step PotEng KinEng TotEng v_fx v_fy v_fz 
    2636   -1152449.4            0   -1152449.4 -0.010210591 0.0063183036 -0.020357685 
    2846   -1152449.4            0   -1152449.4 -4.5565449e-06 -2.4699925e-06 -4.9949962e-06 
Loop time of 2.46864 on 104 procs for 210 steps with 288751 atoms

99.9% CPU use with 104 MPI tasks x 1 OpenMP threads

Minimization stats:
  Stopping criterion = energy tolerance
  Energy initial, next-to-last, final = 
     -1152449.35060897  -1152449.35151105  -1152449.35151105
  Force two-norm initial, final = 0.12556598 5.2513377e-05
  Force max component initial, final = 0.047070022 6.1062704e-06
  Final line search alpha, max atom move = 1.0000000 6.1062704e-06
  Iterations, force evaluations = 210 420

MPI task timing breakdown:
Section |  min time  |  avg time  |  max time  |%varavg| %total
---------------------------------------------------------------
Pair    | 0.63689    | 1.7698     | 2.3237     |  35.9 | 71.69
Neigh   | 0          | 0          | 0          |   0.0 |  0.00
Comm    | 0.037596   | 0.39906    | 1.204      |  52.6 | 16.17
Output  | 0          | 0          | 0          |   0.0 |  0.00
Modify  | 2.4143e-05 | 0.0034506  | 0.0073696  |   2.8 |  0.14
Other   |            | 0.2963     |            |       | 12.00

Nlocal:        2776.45 ave        3957 max           0 min
Histogram: 8 4 4 0 4 12 8 2 28 34
Nghost:        3879.03 ave        5424 max         232 min
Histogram: 8 0 8 0 16 0 8 8 16 40
Neighs:        79213.4 ave      115332 max           0 min
Histogram: 8 4 4 0 10 6 8 8 24 32

Total # of neighbors = 8238189
Ave neighs/atom = 28.530426
Neighbor list builds = 0
Dangerous builds = 0
The dot product: 2.32989641564911e-09
Setting atom values ...
  1 settings made for x
  1 settings made for y
  1 settings made for z
Setting up cg style minimization ...
  Unit style    : metal
  Current step  : 2846
Per MPI rank memory allocation (min/avg/max) = 5.441 | 5.816 | 6.074 Mbytes
Step PotEng KinEng TotEng v_fx v_fy v_fz 
    2846   -1152449.4            0   -1152449.4 -0.0094884475  0.006562065 -0.019514062 
    3000   -1152449.4            0   -1152449.4 3.7503049e-05 2.175089e-05 4.0110925e-05 
    3029   -1152449.4            0   -1152449.4 2.3709713e-07 -6.7934257e-07 8.8768317e-07 
Loop time of 2.12215 on 104 procs for 183 steps with 288751 atoms

99.9% CPU use with 104 MPI tasks x 1 OpenMP threads

Minimization stats:
  Stopping criterion = energy tolerance
  Energy initial, next-to-last, final = 
     -1152449.35035508  -1152449.35125047  -1152449.35125047
  Force two-norm initial, final = 0.12516292 0.00011876728
  Force max component initial, final = 0.046477054 5.0365350e-06
  Final line search alpha, max atom move = 1.0000000 5.0365350e-06
  Iterations, force evaluations = 183 366

MPI task timing breakdown:
Section |  min time  |  avg time  |  max time  |%varavg| %total
---------------------------------------------------------------
Pair    | 0.55675    | 1.5358     | 2.008      |  33.4 | 72.37
Neigh   | 0          | 0          | 0          |   0.0 |  0.00
Comm    | 0.040592   | 0.34359    | 1.0435     |  49.7 | 16.19
Output  | 0.00016313 | 0.0001658  | 0.0002913  |   0.0 |  0.01
Modify  | 2.0922e-05 | 0.0030069  | 0.0064223  |   2.6 |  0.14
Other   |            | 0.2396     |            |       | 11.29

Nlocal:        2776.45 ave        3958 max           0 min
Histogram: 8 4 4 0 4 12 8 2 28 34
Nghost:        3879.03 ave        5424 max         232 min
Histogram: 8 0 8 0 16 0 8 8 16 40
Neighs:        79213.4 ave      115369 max           0 min
Histogram: 8 4 4 0 10 6 8 8 24 32

Total # of neighbors = 8238191
Ave neighs/atom = 28.530433
Neighbor list builds = 0
Dangerous builds = 0
The dot product: -6.59673811094596e-10
Setting atom values ...
  1 settings made for x
  1 settings made for y
  1 settings made for z
Setting up cg style minimization ...
  Unit style    : metal
  Current step  : 3029
Per MPI rank memory allocation (min/avg/max) = 5.441 | 5.816 | 6.074 Mbytes
Step PotEng KinEng TotEng v_fx v_fy v_fz 
    3029   -1152449.3            0   -1152449.3 -0.008567816 0.0064541051  -0.01808913 
    3208   -1152449.3            0   -1152449.3 6.5809965e-07 2.1902867e-06 -7.0503025e-07 
Loop time of 2.11363 on 104 procs for 179 steps with 288751 atoms

99.9% CPU use with 104 MPI tasks x 1 OpenMP threads

Minimization stats:
  Stopping criterion = energy tolerance
  Energy initial, next-to-last, final = 
     -1152449.34875787  -1152449.34964125  -1152449.34964125
  Force two-norm initial, final = 0.12425761 0.00014315733
  Force max component initial, final = 0.045828317 8.0357999e-06
  Final line search alpha, max atom move = 1.0000000 8.0357999e-06
  Iterations, force evaluations = 179 358

MPI task timing breakdown:
Section |  min time  |  avg time  |  max time  |%varavg| %total
---------------------------------------------------------------
Pair    | 0.54367    | 1.5131     | 1.9818     |  33.1 | 71.59
Neigh   | 0          | 0          | 0          |   0.0 |  0.00
Comm    | 0.030419   | 0.34472    | 1.0449     |  48.4 | 16.31
Output  | 0          | 0          | 0          |   0.0 |  0.00
Modify  | 2.0445e-05 | 0.0029517  | 0.0063592  |   2.6 |  0.14
Other   |            | 0.2529     |            |       | 11.96

Nlocal:        2776.45 ave        3958 max           0 min
Histogram: 8 4 4 0 4 12 8 2 28 34
Nghost:        3879.01 ave        5424 max         232 min
Histogram: 8 0 8 0 16 0 8 8 16 40
Neighs:        79213.4 ave      115370 max           0 min
Histogram: 8 4 4 0 10 6 8 8 24 32

Total # of neighbors = 8238191
Ave neighs/atom = 28.530433
Neighbor list builds = 0
Dangerous builds = 0
The dot product: 1.01807952564642e-09
Setting atom values ...
  1 settings made for x
  1 settings made for y
  1 settings made for z
Setting up cg style minimization ...
  Unit style    : metal
  Current step  : 3208
Per MPI rank memory allocation (min/avg/max) = 5.441 | 5.816 | 6.074 Mbytes
Step PotEng KinEng TotEng v_fx v_fy v_fz 
    3208   -1152449.3            0   -1152449.3 -0.0076079579 0.0060960181 -0.016393817 
    3370   -1152449.3            0   -1152449.3 3.9419627e-05 -1.0926118e-05 6.876462e-05 
Loop time of 1.87669 on 104 procs for 162 steps with 288751 atoms

99.9% CPU use with 104 MPI tasks x 1 OpenMP threads

Minimization stats:
  Stopping criterion = energy tolerance
  Energy initial, next-to-last, final = 
     -1152449.34580603   -1152449.3466754   -1152449.3466754
  Force two-norm initial, final = 0.12325999 0.00026037038
  Force max component initial, final = 0.045147956 6.8764620e-05
  Final line search alpha, max atom move = 1.0000000 6.8764620e-05
  Iterations, force evaluations = 162 324

MPI task timing breakdown:
Section |  min time  |  avg time  |  max time  |%varavg| %total
---------------------------------------------------------------
Pair    | 0.49035    | 1.3611     | 1.7722     |  31.6 | 72.52
Neigh   | 0          | 0          | 0          |   0.0 |  0.00
Comm    | 0.032639   | 0.30319    | 0.92786    |  47.0 | 16.16
Output  | 0          | 0          | 0          |   0.0 |  0.00
Modify  | 1.9093e-05 | 0.0026658  | 0.0057027  |   2.4 |  0.14
Other   |            | 0.2098     |            |       | 11.18

Nlocal:        2776.45 ave        3958 max           0 min
Histogram: 8 4 4 0 4 12 8 2 28 34
Nghost:        3879.01 ave        5424 max         232 min
Histogram: 8 0 8 0 16 0 8 8 16 40
Neighs:        79213.4 ave      115370 max           0 min
Histogram: 8 4 4 0 10 6 8 8 24 32

Total # of neighbors = 8238190
Ave neighs/atom = 28.530429
Neighbor list builds = 0
Dangerous builds = 0
The dot product: -3.25661882776693e-08
Setting atom values ...
  1 settings made for x
  1 settings made for y
  1 settings made for z
Setting up cg style minimization ...
  Unit style    : metal
  Current step  : 3370
Per MPI rank memory allocation (min/avg/max) = 5.441 | 5.816 | 6.074 Mbytes
Step PotEng KinEng TotEng v_fx v_fy v_fz 
    3370   -1152449.3            0   -1152449.3 -0.0067439287 0.0054397816 -0.014596706 
    3554   -1152449.3            0   -1152449.3 -5.0786902e-06 -3.5054595e-06 -5.0168317e-06 
Loop time of 2.12142 on 104 procs for 184 steps with 288751 atoms

99.9% CPU use with 104 MPI tasks x 1 OpenMP threads

Minimization stats:
  Stopping criterion = energy tolerance
  Energy initial, next-to-last, final = 
     -1152449.34149105  -1152449.34234757  -1152449.34234757
  Force two-norm initial, final = 0.12240566 0.00011187001
  Force max component initial, final = 0.044394427 1.0828126e-05
  Final line search alpha, max atom move = 1.0000000 1.0828126e-05
  Iterations, force evaluations = 184 368

MPI task timing breakdown:
Section |  min time  |  avg time  |  max time  |%varavg| %total
---------------------------------------------------------------
Pair    | 0.55786    | 1.5439     | 2.0098     |  33.4 | 72.78
Neigh   | 0          | 0          | 0          |   0.0 |  0.00
Comm    | 0.033627   | 0.34178    | 1.0356     |  49.6 | 16.11
Output  | 0          | 0          | 0          |   0.0 |  0.00
Modify  | 2.1222e-05 | 0.0030292  | 0.0064934  |   2.6 |  0.14
Other   |            | 0.2327     |            |       | 10.97

Nlocal:        2776.45 ave        3958 max           0 min
Histogram: 8 4 4 0 4 12 8 2 28 34
Nghost:        3879.01 ave        5424 max         232 min
Histogram: 8 0 8 0 16 0 8 8 16 40
Neighs:        79213.4 ave      115370 max           0 min
Histogram: 8 4 4 0 10 6 8 8 24 32

Total # of neighbors = 8238191
Ave neighs/atom = 28.530433
Neighbor list builds = 0
Dangerous builds = 0
The dot product: 7.45627893202036e-10
Setting atom values ...
  1 settings made for x
  1 settings made for y
  1 settings made for z
Setting up cg style minimization ...
  Unit style    : metal
  Current step  : 3554
Per MPI rank memory allocation (min/avg/max) = 5.441 | 5.816 | 6.074 Mbytes
Step PotEng KinEng TotEng v_fx v_fy v_fz 
    3554   -1152449.3            0   -1152449.3 -0.0061759464 0.0044993496 -0.013013536 
    3725   -1152449.3            0   -1152449.3 -2.5841617e-05 -4.2607366e-06  -3.6248e-05 
Loop time of 1.97353 on 104 procs for 171 steps with 288751 atoms

99.9% CPU use with 104 MPI tasks x 1 OpenMP threads

Minimization stats:
  Stopping criterion = energy tolerance
  Energy initial, next-to-last, final = 
     -1152449.33579827  -1152449.33664718  -1152449.33664718
  Force two-norm initial, final = 0.12196305 0.00019376279
  Force max component initial, final = 0.044171914 3.6248000e-05
  Final line search alpha, max atom move = 1.0000000 3.6248000e-05
  Iterations, force evaluations = 171 342

MPI task timing breakdown:
Section |  min time  |  avg time  |  max time  |%varavg| %total
---------------------------------------------------------------
Pair    | 0.52023    | 1.432      | 1.8694     |  32.3 | 72.56
Neigh   | 0          | 0          | 0          |   0.0 |  0.00
Comm    | 0.034883   | 0.31871    | 0.9643     |  47.9 | 16.15
Output  | 0          | 0          | 0          |   0.0 |  0.00
Modify  | 1.9854e-05 | 0.0028158  | 0.0060279  |   2.5 |  0.14
Other   |            | 0.22       |            |       | 11.15

Nlocal:        2776.45 ave        3958 max           0 min
Histogram: 8 4 4 0 4 12 8 2 28 34
Nghost:        3879.03 ave        5424 max         232 min
Histogram: 8 0 8 0 16 0 8 8 16 40
Neighs:        79213.4 ave      115370 max           0 min
Histogram: 8 4 4 0 10 6 8 8 24 32

Total # of neighbors = 8238192
Ave neighs/atom = 28.530436
Neighbor list builds = 0
Dangerous builds = 0
The dot product: 1.10974113563322e-08
Setting atom values ...
  1 settings made for x
  1 settings made for y
  1 settings made for z
Setting up cg style minimization ...
  Unit style    : metal
  Current step  : 3725
Per MPI rank memory allocation (min/avg/max) = 5.441 | 5.816 | 6.074 Mbytes
Step PotEng KinEng TotEng v_fx v_fy v_fz 
    3725   -1152449.3            0   -1152449.3 -0.005839462 0.0032470557 -0.011529407 
    3903   -1152449.3            0   -1152449.3 2.3912608e-05 -1.1912989e-05 4.6119169e-05 
Loop time of 2.05426 on 104 procs for 178 steps with 288751 atoms

99.9% CPU use with 104 MPI tasks x 1 OpenMP threads

Minimization stats:
  Stopping criterion = energy tolerance
  Energy initial, next-to-last, final = 
     -1152449.32870889  -1152449.32955533  -1152449.32955533
  Force two-norm initial, final = 0.12187795 0.00014750396
  Force max component initial, final = 0.044003078 4.6119169e-05
  Final line search alpha, max atom move = 1.0000000 4.6119169e-05
  Iterations, force evaluations = 178 356

MPI task timing breakdown:
Section |  min time  |  avg time  |  max time  |%varavg| %total
---------------------------------------------------------------
Pair    | 0.54039    | 1.496      | 1.9464     |  32.9 | 72.82
Neigh   | 0          | 0          | 0          |   0.0 |  0.00
Comm    | 0.036809   | 0.33164    | 1.0121     |  49.0 | 16.14
Output  | 0          | 0          | 0          |   0.0 |  0.00
Modify  | 2.0949e-05 | 0.0029294  | 0.0062659  |   2.6 |  0.14
Other   |            | 0.2237     |            |       | 10.89

Nlocal:        2776.45 ave        3959 max           0 min
Histogram: 8 4 4 0 4 12 8 2 28 34
Nghost:        3879.05 ave        5424 max         232 min
Histogram: 8 0 8 0 16 0 8 8 16 40
Neighs:        79213.4 ave      115404 max           0 min
Histogram: 8 4 4 0 10 6 8 8 24 32

Total # of neighbors = 8238190
Ave neighs/atom = 28.530429
Neighbor list builds = 0
Dangerous builds = 0
The dot product: -1.5571303877472e-08
Setting atom values ...
  1 settings made for x
  1 settings made for y
  1 settings made for z
Setting up cg style minimization ...
  Unit style    : metal
  Current step  : 3903
Per MPI rank memory allocation (min/avg/max) = 5.441 | 5.816 | 6.074 Mbytes
Step PotEng KinEng TotEng v_fx v_fy v_fz 
    3903   -1152449.3            0   -1152449.3 -0.0057167974  0.001697965 -0.010130145 
    4000   -1152449.3            0   -1152449.3 3.9204194e-05 6.6718953e-06 5.4964961e-05 
    4132   -1152449.3            0   -1152449.3 1.1191143e-06 1.6039514e-07 1.592822e-06 
Loop time of 2.65333 on 104 procs for 229 steps with 288751 atoms

99.9% CPU use with 104 MPI tasks x 1 OpenMP threads

Minimization stats:
  Stopping criterion = energy tolerance
  Energy initial, next-to-last, final = 
     -1152449.32019395  -1152449.32104377  -1152449.32104377
  Force two-norm initial, final = 0.12211914 2.1586158e-05
  Force max component initial, final = 0.043900957 5.6726723e-06
  Final line search alpha, max atom move = 1.0000000 5.6726723e-06
  Iterations, force evaluations = 229 458

MPI task timing breakdown:
Section |  min time  |  avg time  |  max time  |%varavg| %total
---------------------------------------------------------------
Pair    | 0.69774    | 1.9194     | 2.5047     |  37.4 | 72.34
Neigh   | 0          | 0          | 0          |   0.0 |  0.00
Comm    | 0.043211   | 0.4285     | 1.2925     |  55.0 | 16.15
Output  | 9.8311e-05 | 0.00010461 | 0.0002397  |   0.0 |  0.00
Modify  | 2.6111e-05 | 0.003767   | 0.0080483  |   2.9 |  0.14
Other   |            | 0.3016     |            |       | 11.37

Nlocal:        2776.45 ave        3959 max           0 min
Histogram: 8 4 4 0 4 12 8 2 28 34
Nghost:        3879.01 ave        5424 max         232 min
Histogram: 8 0 8 0 16 0 8 8 16 40
Neighs:        79213.3 ave      115403 max           0 min
Histogram: 8 4 4 0 10 6 8 8 24 32

Total # of neighbors = 8238188
Ave neighs/atom = 28.530422
Neighbor list builds = 0
Dangerous builds = 0
The dot product: -4.82371948649994e-10
Setting atom values ...
  1 settings made for x
  1 settings made for y
  1 settings made for z
Setting up cg style minimization ...
  Unit style    : metal
  Current step  : 4132
Per MPI rank memory allocation (min/avg/max) = 5.441 | 5.816 | 6.074 Mbytes
Step PotEng KinEng TotEng v_fx v_fy v_fz 
    4132   -1152449.3            0   -1152449.3 -0.0059390058 -9.573611e-05 -0.0090618719 
    4344   -1152449.3            0   -1152449.3 8.0245783e-07 -6.5112703e-07 1.7508681e-06 
Loop time of 2.4792 on 104 procs for 212 steps with 288751 atoms

99.9% CPU use with 104 MPI tasks x 1 OpenMP threads

Minimization stats:
  Stopping criterion = energy tolerance
  Energy initial, next-to-last, final = 
     -1152449.31022164  -1152449.31107824  -1152449.31107824
  Force two-norm initial, final = 0.12265918 4.2759567e-05
  Force max component initial, final = 0.043710117 5.5612931e-06
  Final line search alpha, max atom move = 1.0000000 5.5612931e-06
  Iterations, force evaluations = 212 424

MPI task timing breakdown:
Section |  min time  |  avg time  |  max time  |%varavg| %total
---------------------------------------------------------------
Pair    | 0.64527    | 1.792      | 2.3402     |  36.0 | 72.28
Neigh   | 0          | 0          | 0          |   0.0 |  0.00
Comm    | 0.037682   | 0.40438    | 1.221      |  53.0 | 16.31
Output  | 0          | 0          | 0          |   0.0 |  0.00
Modify  | 2.5271e-05 | 0.0034953  | 0.0074399  |   2.8 |  0.14
Other   |            | 0.2793     |            |       | 11.27

Nlocal:        2776.45 ave        3959 max           0 min
Histogram: 8 4 4 0 4 12 8 2 28 34
Nghost:        3879.01 ave        5424 max         232 min
Histogram: 8 0 8 0 16 0 8 8 16 40
Neighs:        79213.4 ave      115405 max           0 min
Histogram: 8 4 4 0 10 6 8 8 24 32

Total # of neighbors = 8238189
Ave neighs/atom = 28.530426
Neighbor list builds = 0
Dangerous builds = 0
The dot product: -4.79941269703985e-10
Setting atom values ...
  1 settings made for x
  1 settings made for y
  1 settings made for z
Setting up cg style minimization ...
  Unit style    : metal
  Current step  : 4344
Per MPI rank memory allocation (min/avg/max) = 5.441 | 5.816 | 6.074 Mbytes
Step PotEng KinEng TotEng v_fx v_fy v_fz 
    4344   -1152449.3            0   -1152449.3 -0.0064576247 -0.0020998703 -0.0082826979 
    4526   -1152449.3            0   -1152449.3 2.3582803e-06 6.7581574e-06 -1.7273641e-06 
Loop time of 2.10191 on 104 procs for 182 steps with 288751 atoms

99.9% CPU use with 104 MPI tasks x 1 OpenMP threads

Minimization stats:
  Stopping criterion = energy tolerance
  Energy initial, next-to-last, final = 
     -1152449.29876364  -1152449.29962653  -1152449.29962653
  Force two-norm initial, final = 0.12332532 0.00011409719
  Force max component initial, final = 0.043522346 9.4148178e-06
  Final line search alpha, max atom move = 1.0000000 9.4148178e-06
  Iterations, force evaluations = 182 364

MPI task timing breakdown:
Section |  min time  |  avg time  |  max time  |%varavg| %total
---------------------------------------------------------------
Pair    | 0.55338    | 1.5239     | 1.9906     |  33.3 | 72.50
Neigh   | 0          | 0          | 0          |   0.0 |  0.00
Comm    | 0.035685   | 0.34005    | 1.028      |  49.3 | 16.18
Output  | 0          | 0          | 0          |   0.0 |  0.00
Modify  | 2.1138e-05 | 0.0029949  | 0.0063854  |   2.6 |  0.14
Other   |            | 0.2349     |            |       | 11.18

Nlocal:        2776.45 ave        3959 max           0 min
Histogram: 8 4 4 0 4 12 8 2 28 34
Nghost:        3879.07 ave        5424 max         232 min
Histogram: 8 0 8 0 16 0 8 8 16 40
Neighs:        79213.4 ave      115404 max           0 min
Histogram: 8 4 4 0 10 6 8 8 24 32

Total # of neighbors = 8238189
Ave neighs/atom = 28.530426
Neighbor list builds = 0
Dangerous builds = 0
The dot product: -1.53384539107814e-09
Setting atom values ...
  1 settings made for x
  1 settings made for y
  1 settings made for z
Setting up cg style minimization ...
  Unit style    : metal
  Current step  : 4526
Per MPI rank memory allocation (min/avg/max) = 5.441 | 5.816 | 6.074 Mbytes
Step PotEng KinEng TotEng v_fx v_fy v_fz 
    4526   -1152449.3            0   -1152449.3 -0.007388435 -0.0042149004 -0.0080558625 
    4711   -1152449.3            0   -1152449.3 2.8933171e-06 3.9722424e-06 1.3132765e-06 
Loop time of 2.16894 on 104 procs for 185 steps with 288751 atoms

99.9% CPU use with 104 MPI tasks x 1 OpenMP threads

Minimization stats:
  Stopping criterion = energy tolerance
  Energy initial, next-to-last, final = 
     -1152449.28579929  -1152449.28666458  -1152449.28666458
  Force two-norm initial, final = 0.12398604 0.00010307344
  Force max component initial, final = 0.043341277 3.9722424e-06
  Final line search alpha, max atom move = 1.0000000 3.9722424e-06
  Iterations, force evaluations = 185 370

MPI task timing breakdown:
Section |  min time  |  avg time  |  max time  |%varavg| %total
---------------------------------------------------------------
Pair    | 0.56118    | 1.5572     | 2.0571     |  33.7 | 71.79
Neigh   | 0          | 0          | 0          |   0.0 |  0.00
Comm    | 0.031729   | 0.35326    | 1.0628     |  49.2 | 16.29
Output  | 0          | 0          | 0          |   0.0 |  0.00
Modify  | 2.1382e-05 | 0.0030434  | 0.0064653  |   2.6 |  0.14
Other   |            | 0.2555     |            |       | 11.78

Nlocal:        2776.45 ave        3959 max           0 min
Histogram: 8 4 4 0 4 12 8 2 28 34
Nghost:        3879.12 ave        5424 max         232 min
Histogram: 8 0 8 0 16 0 8 8 16 40
Neighs:        79213.3 ave      115408 max           0 min
Histogram: 8 4 4 0 10 6 8 8 24 32

Total # of neighbors = 8238187
Ave neighs/atom = 28.530419
Neighbor list builds = 0
Dangerous builds = 0
The dot product: -2.73913758130074e-09
Setting atom values ...
  1 settings made for x
  1 settings made for y
  1 settings made for z
Setting up cg style minimization ...
  Unit style    : metal
  Current step  : 4711
Per MPI rank memory allocation (min/avg/max) = 5.441 | 5.816 | 6.074 Mbytes
Step PotEng KinEng TotEng v_fx v_fy v_fz 
    4711   -1152449.3            0   -1152449.3 -0.0088512118 -0.0063096768 -0.0086783328 
    4897   -1152449.3            0   -1152449.3 -1.5016845e-05 -1.4859774e-05 -1.1429835e-05 
Loop time of 2.17445 on 104 procs for 186 steps with 288751 atoms

99.9% CPU use with 104 MPI tasks x 1 OpenMP threads

Minimization stats:
  Stopping criterion = energy tolerance
  Energy initial, next-to-last, final = 
     -1152449.27132513  -1152449.27218575  -1152449.27218575
  Force two-norm initial, final = 0.12455137 0.00010520292
  Force max component initial, final = 0.043144568 1.9915869e-05
  Final line search alpha, max atom move = 1.0000000 1.9915869e-05
  Iterations, force evaluations = 186 372

MPI task timing breakdown:
Section |  min time  |  avg time  |  max time  |%varavg| %total
---------------------------------------------------------------
Pair    | 0.56714    | 1.5653     | 2.0382     |  33.9 | 71.99
Neigh   | 0          | 0          | 0          |   0.0 |  0.00
Comm    | 0.03786    | 0.35281    | 1.0564     |  49.4 | 16.23
Output  | 0          | 0          | 0          |   0.0 |  0.00
Modify  | 2.1652e-05 | 0.0030596  | 0.0065051  |   2.6 |  0.14
Other   |            | 0.2533     |            |       | 11.65

Nlocal:        2776.45 ave        3960 max           0 min
Histogram: 8 4 4 0 4 12 8 2 28 34
Nghost:        3879.11 ave        5424 max         232 min
Histogram: 8 0 8 0 16 0 8 8 16 40
Neighs:        79213.3 ave      115438 max           0 min
Histogram: 8 4 4 0 10 6 8 8 24 32

Total # of neighbors = 8238186
Ave neighs/atom = 28.530415
Neighbor list builds = 0
Dangerous builds = 0
The dot product: 1.96058258262862e-08
Setting atom values ...
  1 settings made for x
  1 settings made for y
  1 settings made for z
Setting up cg style minimization ...
  Unit style    : metal
  Current step  : 4897
Per MPI rank memory allocation (min/avg/max) = 5.441 | 5.816 | 6.074 Mbytes
Step PotEng KinEng TotEng v_fx v_fy v_fz 
    4897   -1152449.3            0   -1152449.3 -0.011031511 -0.0081595631 -0.010629459 
    5000   -1152449.3            0   -1152449.3 0.00011453684 3.1794695e-05 0.00015229311 
    5115   -1152449.3            0   -1152449.3 -5.9568529e-06 -1.0656429e-06 -8.3863068e-06 
Loop time of 2.54946 on 104 procs for 218 steps with 288751 atoms

99.9% CPU use with 104 MPI tasks x 1 OpenMP threads

Minimization stats:
  Stopping criterion = energy tolerance
  Energy initial, next-to-last, final = 
      -1152449.2553662    -1152449.256214    -1152449.256214
  Force two-norm initial, final = 0.12512674 3.2893498e-05
  Force max component initial, final = 0.044206077 8.3863068e-06
  Final line search alpha, max atom move = 1.0000000 8.3863068e-06
  Iterations, force evaluations = 218 436

MPI task timing breakdown:
Section |  min time  |  avg time  |  max time  |%varavg| %total
---------------------------------------------------------------
Pair    | 0.65968    | 1.8384     | 2.3897     |  36.5 | 72.11
Neigh   | 0          | 0          | 0          |   0.0 |  0.00
Comm    | 0.040697   | 0.41113    | 1.2336     |  53.4 | 16.13
Output  | 0.0001344  | 0.00013791 | 0.00027196 |   0.0 |  0.01
Modify  | 2.5165e-05 | 0.0035867  | 0.0077238  |   2.8 |  0.14
Other   |            | 0.2962     |            |       | 11.62

Nlocal:        2776.45 ave        3960 max           0 min
Histogram: 8 4 4 0 4 12 8 2 28 34
Nghost:        3879.11 ave        5424 max         232 min
Histogram: 8 0 8 0 16 0 8 8 16 40
Neighs:        79213.3 ave      115438 max           0 min
Histogram: 8 4 4 0 10 6 8 8 24 32

Total # of neighbors = 8238187
Ave neighs/atom = 28.530419
Neighbor list builds = 0
Dangerous builds = 0
The dot product: 1.15220830897329e-08
Setting atom values ...
  1 settings made for x
  1 settings made for y
  1 settings made for z
Setting up cg style minimization ...
  Unit style    : metal
  Current step  : 5115
Per MPI rank memory allocation (min/avg/max) = 5.441 | 5.816 | 6.074 Mbytes
Step PotEng KinEng TotEng v_fx v_fy v_fz 
    5115   -1152449.2            0   -1152449.2  -0.01428005 -0.0096270991 -0.014591125 
    5303   -1152449.2            0   -1152449.2 -8.4421982e-06 -2.0453702e-06 -1.1515145e-05 
Loop time of 2.17214 on 104 procs for 188 steps with 288751 atoms

99.9% CPU use with 104 MPI tasks x 1 OpenMP threads

Minimization stats:
  Stopping criterion = energy tolerance
  Energy initial, next-to-last, final = 
     -1152449.23800462  -1152449.23884077  -1152449.23884077
  Force two-norm initial, final = 0.12632996 8.9111353e-05
  Force max component initial, final = 0.047466364 1.5275885e-05
  Final line search alpha, max atom move = 1.0000000 1.5275885e-05
  Iterations, force evaluations = 188 376

MPI task timing breakdown:
Section |  min time  |  avg time  |  max time  |%varavg| %total
---------------------------------------------------------------
Pair    | 0.57247    | 1.5777     | 2.0571     |  33.9 | 72.63
Neigh   | 0          | 0          | 0          |   0.0 |  0.00
Comm    | 0.037524   | 0.35027    | 1.0655     |  50.5 | 16.13
Output  | 0          | 0          | 0          |   0.0 |  0.00
Modify  | 2.1741e-05 | 0.0030911  | 0.0065732  |   2.6 |  0.14
Other   |            | 0.2411     |            |       | 11.10

Nlocal:        2776.45 ave        3960 max           0 min
Histogram: 8 4 4 0 4 12 8 2 28 34
Nghost:        3879.11 ave        5424 max         232 min
Histogram: 8 0 8 0 16 0 8 8 16 40
Neighs:        79213.3 ave      115435 max           0 min
Histogram: 8 4 4 0 10 6 8 8 24 32

Total # of neighbors = 8238185
Ave neighs/atom = 28.530412
Neighbor list builds = 0
Dangerous builds = 0
The dot product: 3.00064842395121e-08
Setting atom values ...
  1 settings made for x
  1 settings made for y
  1 settings made for z
Setting up cg style minimization ...
  Unit style    : metal
  Current step  : 5303
Per MPI rank memory allocation (min/avg/max) = 5.441 | 5.816 | 6.074 Mbytes
Step PotEng KinEng TotEng v_fx v_fy v_fz 
    5303   -1152449.2            0   -1152449.2 -0.019328567 -0.010405773 -0.022037992 
    5566   -1152449.3            0   -1152449.3 -4.6227067e-06 2.566707e-06 -9.2871291e-06 
Loop time of 3.03329 on 104 procs for 263 steps with 288751 atoms

99.9% CPU use with 104 MPI tasks x 1 OpenMP threads

Minimization stats:
  Stopping criterion = energy tolerance
  Energy initial, next-to-last, final = 
     -1152449.21946817  -1152449.25004535  -1152449.25004535
  Force two-norm initial, final = 0.13032264 0.00011664123
  Force max component initial, final = 0.050701409 2.3525050e-05
  Final line search alpha, max atom move = 1.0000000 2.3525050e-05
  Iterations, force evaluations = 263 524

MPI task timing breakdown:
Section |  min time  |  avg time  |  max time  |%varavg| %total
---------------------------------------------------------------
Pair    | 0.80239    | 2.2006     | 2.8633     |  39.7 | 72.55
Neigh   | 2.0509e-05 | 0.0059353  | 0.0085981  |   3.2 |  0.20
Comm    | 0.047831   | 0.48789    | 1.476      |  59.4 | 16.08
Output  | 0          | 0          | 0          |   0.0 |  0.00
Modify  | 3.0362e-05 | 0.0043105  | 0.009191   |   3.1 |  0.14
Other   |            | 0.3345     |            |       | 11.03

Nlocal:        2776.45 ave        3960 max           0 min
Histogram: 8 4 4 0 4 12 8 2 28 34
Nghost:        3879.11 ave        5424 max         232 min
Histogram: 8 0 8 0 16 0 8 8 16 40
Neighs:        79213.2 ave      115429 max           0 min
Histogram: 8 4 4 0 10 6 8 8 24 32

Total # of neighbors = 8238169
Ave neighs/atom = 28.530357
Neighbor list builds = 2
Dangerous builds = 0
The dot product: 8.81938616947897e-07
Setting atom values ...
  1 settings made for x
  1 settings made for y
  1 settings made for z
Setting up cg style minimization ...
  Unit style    : metal
  Current step  : 5566
Per MPI rank memory allocation (min/avg/max) = 5.441 | 5.816 | 6.074 Mbytes
Step PotEng KinEng TotEng v_fx v_fy v_fz 
    5566   -1152449.2            0   -1152449.2 -0.027984419 -0.033879014  -0.02382736 
    5803   -1152449.2            0   -1152449.2 -1.0230975e-05 9.5817409e-07 -2.3235091e-05 
Loop time of 2.74581 on 104 procs for 237 steps with 288751 atoms

99.9% CPU use with 104 MPI tasks x 1 OpenMP threads

Minimization stats:
  Stopping criterion = energy tolerance
  Energy initial, next-to-last, final = 
     -1152449.24564139  -1152449.24930652  -1152449.24930652
  Force two-norm initial, final = 0.15067454 7.0420532e-05
  Force max component initial, final = 0.055811505 2.3235091e-05
  Final line search alpha, max atom move = 1.0000000 2.3235091e-05
  Iterations, force evaluations = 237 474

MPI task timing breakdown:
Section |  min time  |  avg time  |  max time  |%varavg| %total
---------------------------------------------------------------
Pair    | 0.73032    | 1.9872     | 2.5898     |  37.8 | 72.37
Neigh   | 0          | 0          | 0          |   0.0 |  0.00
Comm    | 0.052901   | 0.4441     | 1.33       |  56.1 | 16.17
Output  | 0          | 0          | 0          |   0.0 |  0.00
Modify  | 2.7219e-05 | 0.0038949  | 0.0082911  |   2.9 |  0.14
Other   |            | 0.3106     |            |       | 11.31

Nlocal:        2776.45 ave        3959 max           0 min
Histogram: 8 4 4 0 4 12 8 2 28 34
Nghost:        3879.01 ave        5424 max         232 min
Histogram: 8 0 8 0 16 0 8 8 16 40
Neighs:        79213.3 ave      115401 max           0 min
Histogram: 8 4 4 0 10 6 8 8 24 32

Total # of neighbors = 8238182
Ave neighs/atom = 28.530402
Neighbor list builds = 0
Dangerous builds = 0
The dot product: 7.88756662963054e-07
Setting atom values ...
  1 settings made for x
  1 settings made for y
  1 settings made for z
Setting up cg style minimization ...
  Unit style    : metal
  Current step  : 5803
Per MPI rank memory allocation (min/avg/max) = 5.441 | 5.816 | 6.074 Mbytes
Step PotEng KinEng TotEng v_fx v_fy v_fz 
    5803   -1152449.3            0   -1152449.3 -0.014995974 -0.038242725 0.00098686089 
    5988   -1152449.3            0   -1152449.3 -1.5507772e-05 -2.0198975e-06 -3.679935e-05 
Loop time of 2.15211 on 104 procs for 185 steps with 288751 atoms

99.9% CPU use with 104 MPI tasks x 1 OpenMP threads

Minimization stats:
  Stopping criterion = energy tolerance
  Energy initial, next-to-last, final = 
     -1152449.25028133  -1152449.25218852  -1152449.25218852
  Force two-norm initial, final = 0.15357681 0.00011130035
  Force max component initial, final = 0.055030025 3.6799350e-05
  Final line search alpha, max atom move = 1.0000000 3.6799350e-05
  Iterations, force evaluations = 185 370

MPI task timing breakdown:
Section |  min time  |  avg time  |  max time  |%varavg| %total
---------------------------------------------------------------
Pair    | 0.56089    | 1.5588     | 2.0334     |  33.7 | 72.43
Neigh   | 0          | 0          | 0          |   0.0 |  0.00
Comm    | 0.040134   | 0.34837    | 1.06       |  49.6 | 16.19
Output  | 0          | 0          | 0          |   0.0 |  0.00
Modify  | 2.1312e-05 | 0.0030369  | 0.0064771  |   2.6 |  0.14
Other   |            | 0.2419     |            |       | 11.24

Nlocal:        2776.45 ave        3959 max           0 min
Histogram: 8 4 4 0 4 12 8 2 28 34
Nghost:        3879.12 ave        5424 max         232 min
Histogram: 8 0 8 0 16 0 8 8 16 40
Neighs:        79213.3 ave      115391 max           0 min
Histogram: 8 4 4 0 10 6 8 8 24 32

Total # of neighbors = 8238186
Ave neighs/atom = 28.530415
Neighbor list builds = 0
Dangerous builds = 0
The dot product: 3.61413324926689e-07
Setting atom values ...
  1 settings made for x
  1 settings made for y
  1 settings made for z
Setting up cg style minimization ...
  Unit style    : metal
  Current step  : 5988
Per MPI rank memory allocation (min/avg/max) = 5.441 | 5.816 | 6.074 Mbytes
Step PotEng KinEng TotEng v_fx v_fy v_fz 
    5988   -1152449.3            0   -1152449.3 -0.014293151 -0.049349853  0.012725497 
    6000   -1152449.3            0   -1152449.3 0.00041815833 0.00038908694 0.00069507701 
    6120   -1152449.3            0   -1152449.3 4.6120755e-06 3.1219806e-06 8.8498687e-06 
Loop time of 1.52567 on 104 procs for 132 steps with 288751 atoms

99.9% CPU use with 104 MPI tasks x 1 OpenMP threads

Minimization stats:
  Stopping criterion = energy tolerance
  Energy initial, next-to-last, final = 
     -1152449.25427048  -1152449.25547053  -1152449.25547053
  Force two-norm initial, final = 0.15225211 7.7537894e-05
  Force max component initial, final = 0.055455569 9.6602183e-06
  Final line search alpha, max atom move = 1.0000000 9.6602183e-06
  Iterations, force evaluations = 132 264

MPI task timing breakdown:
Section |  min time  |  avg time  |  max time  |%varavg| %total
---------------------------------------------------------------
Pair    | 0.40193    | 1.1066     | 1.4462     |  28.3 | 72.53
Neigh   | 0          | 0          | 0          |   0.0 |  0.00
Comm    | 0.025236   | 0.24686    | 0.7491     |  42.1 | 16.18
Output  | 9.4608e-05 | 0.00010468 | 0.00017886 |   0.0 |  0.01
Modify  | 1.5204e-05 | 0.002171   | 0.0046366  |   2.2 |  0.14
Other   |            | 0.1699     |            |       | 11.14

Nlocal:        2776.45 ave        3958 max           0 min
Histogram: 8 4 4 0 4 12 8 2 28 34
Nghost:        3879.14 ave        5424 max         232 min
Histogram: 8 0 8 0 16 0 8 8 16 40
Neighs:        79213.3 ave      115368 max           0 min
Histogram: 8 4 4 0 10 6 8 8 24 32

Total # of neighbors = 8238182
Ave neighs/atom = 28.530402
Neighbor list builds = 0
Dangerous builds = 0
The dot product: -6.46525490859384e-08
Setting atom values ...
  1 settings made for x
  1 settings made for y
  1 settings made for z
Setting up cg style minimization ...
  Unit style    : metal
  Current step  : 6120
Per MPI rank memory allocation (min/avg/max) = 5.441 | 5.816 | 6.074 Mbytes
Step PotEng KinEng TotEng v_fx v_fy v_fz 
    6120   -1152449.3            0   -1152449.3  -0.01363289  -0.05745876  0.020584964 
    6475   -1152449.3            0   -1152449.3 -3.5972133e-08 -1.35178e-07 3.8116439e-08 
Loop time of 4.10683 on 104 procs for 355 steps with 288751 atoms

99.9% CPU use with 104 MPI tasks x 1 OpenMP threads

Minimization stats:
  Stopping criterion = energy tolerance
  Energy initial, next-to-last, final = 
       -1152449.256931  -1152449.29755181  -1152449.29755181
  Force two-norm initial, final = 0.15747894 2.1703240e-06
  Force max component initial, final = 0.05745876 3.8249910e-07
  Final line search alpha, max atom move = 1.0000000 3.8249910e-07
  Iterations, force evaluations = 355 709

MPI task timing breakdown:
Section |  min time  |  avg time  |  max time  |%varavg| %total
---------------------------------------------------------------
Pair    | 1.0818     | 2.9865     | 3.8873     |  46.5 | 72.72
Neigh   | 1.0324e-05 | 0.0029684  | 0.0043219  |   2.2 |  0.07
Comm    | 0.068135   | 0.66538    | 2.0355     |  69.2 | 16.20
Output  | 0          | 0          | 0          |   0.0 |  0.00
Modify  | 4.0196e-05 | 0.0058214  | 0.012393   |   3.6 |  0.14
Other   |            | 0.4462     |            |       | 10.86

Nlocal:        2776.45 ave        3959 max           0 min
Histogram: 8 4 4 0 4 12 8 2 28 34
Nghost:        3879.14 ave        5424 max         232 min
Histogram: 8 0 8 0 16 0 8 8 16 40
Neighs:        79213.4 ave      115401 max           0 min
Histogram: 8 4 4 0 10 6 8 8 24 32

Total # of neighbors = 8238197
Ave neighs/atom = 28.530454
Neighbor list builds = 1
Dangerous builds = 0
The dot product: 1.69079223060744e-08
Setting atom values ...
  1 settings made for x
  1 settings made for y
  1 settings made for z
Setting up cg style minimization ...
  Unit style    : metal
  Current step  : 6475
Per MPI rank memory allocation (min/avg/max) = 5.441 | 5.816 | 6.074 Mbytes
Step PotEng KinEng TotEng v_fx v_fy v_fz 
    6475   -1152449.3            0   -1152449.3  0.028774992  0.059011313  0.058763656 
    6692   -1152449.3            0   -1152449.3 -2.604135e-06 -4.4785562e-06 -5.8064292e-06 
Loop time of 2.52726 on 104 procs for 217 steps with 288751 atoms

99.9% CPU use with 104 MPI tasks x 1 OpenMP threads

Minimization stats:
  Stopping criterion = energy tolerance
  Energy initial, next-to-last, final = 
     -1152449.30886821  -1152449.31115032  -1152449.31115032
  Force two-norm initial, final = 0.16259275 6.2851743e-05
  Force max component initial, final = 0.059011313 7.5445816e-06
  Final line search alpha, max atom move = 1.0000000 7.5445816e-06
  Iterations, force evaluations = 217 434

MPI task timing breakdown:
Section |  min time  |  avg time  |  max time  |%varavg| %total
---------------------------------------------------------------
Pair    | 0.65794    | 1.8229     | 2.3691     |  36.5 | 72.13
Neigh   | 0          | 0          | 0          |   0.0 |  0.00
Comm    | 0.042687   | 0.4083     | 1.2256     |  53.7 | 16.16
Output  | 0          | 0          | 0          |   0.0 |  0.00
Modify  | 2.4785e-05 | 0.0035696  | 0.0076356  |   2.8 |  0.14
Other   |            | 0.2925     |            |       | 11.58

Nlocal:        2776.45 ave        3956 max           0 min
Histogram: 8 4 4 0 4 12 8 0 30 34
Nghost:        3879.07 ave        5424 max         232 min
Histogram: 8 0 8 0 16 0 8 8 16 40
Neighs:        79213.4 ave      115306 max           0 min
Histogram: 8 4 4 0 10 6 8 8 24 32

Total # of neighbors = 8238197
Ave neighs/atom = 28.530454
Neighbor list builds = 0
Dangerous builds = 0
The dot product: -1.48762698670684e-07
Setting atom values ...
  1 settings made for x
  1 settings made for y
  1 settings made for z
Setting up cg style minimization ...
  Unit style    : metal
  Current step  : 6692
Per MPI rank memory allocation (min/avg/max) = 5.441 | 5.816 | 6.074 Mbytes
Step PotEng KinEng TotEng v_fx v_fy v_fz 
    6692   -1152449.3            0   -1152449.3 -0.0060579504  -0.07112598  0.027042489 
    6893   -1152449.3            0   -1152449.3 -4.0381226e-06 -7.8765881e-08 -1.2429306e-05 
Loop time of 2.33894 on 104 procs for 201 steps with 288751 atoms

99.9% CPU use with 104 MPI tasks x 1 OpenMP threads

Minimization stats:
  Stopping criterion = energy tolerance
  Energy initial, next-to-last, final = 
     -1152449.32049788  -1152449.32174223  -1152449.32174223
  Force two-norm initial, final = 0.16162607 6.0637503e-05
  Force max component initial, final = 0.07112598 1.2429306e-05
  Final line search alpha, max atom move = 1.0000000 1.2429306e-05
  Iterations, force evaluations = 201 402

MPI task timing breakdown:
Section |  min time  |  avg time  |  max time  |%varavg| %total
---------------------------------------------------------------
Pair    | 0.61037    | 1.6898     | 2.2067     |  35.0 | 72.25
Neigh   | 0          | 0          | 0          |   0.0 |  0.00
Comm    | 0.037176   | 0.38032    | 1.1499     |  51.3 | 16.26
Output  | 0          | 0          | 0          |   0.0 |  0.00
Modify  | 2.3077e-05 | 0.0033072  | 0.0070814  |   2.7 |  0.14
Other   |            | 0.2655     |            |       | 11.35

Nlocal:        2776.45 ave        3959 max           0 min
Histogram: 8 4 4 0 4 12 8 4 26 34
Nghost:        3879.09 ave        5424 max         232 min
Histogram: 8 0 8 0 16 0 8 8 16 40
Neighs:        79213.4 ave      115400 max           0 min
Histogram: 8 4 4 0 10 6 8 8 24 32

Total # of neighbors = 8238195
Ave neighs/atom = 28.530447
Neighbor list builds = 0
Dangerous builds = 0
The dot product: -8.23425171830811e-09
Setting atom values ...
  1 settings made for x
  1 settings made for y
  1 settings made for z
Setting up cg style minimization ...
  Unit style    : metal
  Current step  : 6893
Per MPI rank memory allocation (min/avg/max) = 5.441 | 5.816 | 6.074 Mbytes
Step PotEng KinEng TotEng v_fx v_fy v_fz 
    6893   -1152449.3            0   -1152449.3 -0.00050832044 -0.053803862   0.03136852 
    7000   -1152449.3            0   -1152449.3 -2.1239482e-05 -4.141957e-05 -4.0093667e-05 
    7068   -1152449.3            0   -1152449.3 -6.2184451e-08 1.4840004e-05 -9.2756031e-06 
Loop time of 2.03783 on 104 procs for 175 steps with 288751 atoms

99.9% CPU use with 104 MPI tasks x 1 OpenMP threads

Minimization stats:
  Stopping criterion = energy tolerance
  Energy initial, next-to-last, final = 
     -1152449.32951989   -1152449.3307041   -1152449.3307041
  Force two-norm initial, final = 0.15650473 0.00015405311
  Force max component initial, final = 0.054021216 1.4840004e-05
  Final line search alpha, max atom move = 1.0000000 1.4840004e-05
  Iterations, force evaluations = 175 350

MPI task timing breakdown:
Section |  min time  |  avg time  |  max time  |%varavg| %total
---------------------------------------------------------------
Pair    | 0.5327     | 1.4693     | 1.9138     |  32.7 | 72.10
Neigh   | 0          | 0          | 0          |   0.0 |  0.00
Comm    | 0.03849    | 0.32888    | 0.99504    |  48.5 | 16.14
Output  | 9.3498e-05 | 9.5937e-05 | 0.00023732 |   0.0 |  0.00
Modify  | 2.0325e-05 | 0.002881   | 0.0061624  |   2.5 |  0.14
Other   |            | 0.2367     |            |       | 11.61

Nlocal:        2776.45 ave        3959 max           0 min
Histogram: 8 4 4 0 4 12 8 4 26 34
Nghost:        3879.12 ave        5424 max         232 min
Histogram: 8 0 8 0 16 0 8 8 16 40
Neighs:        79213.4 ave      115400 max           0 min
Histogram: 8 4 4 0 10 6 8 8 24 32

Total # of neighbors = 8238197
Ave neighs/atom = 28.530454
Neighbor list builds = 0
Dangerous builds = 0
The dot product: -5.52423292354443e-08
Setting atom values ...
  1 settings made for x
  1 settings made for y
  1 settings made for z
Setting up cg style minimization ...
  Unit style    : metal
  Current step  : 7068
Per MPI rank memory allocation (min/avg/max) = 5.441 | 5.816 | 6.074 Mbytes
Step PotEng KinEng TotEng v_fx v_fy v_fz 
    7068   -1152449.3            0   -1152449.3 -0.0012652277 -0.058227558  0.030901121 
    7262   -1152449.3            0   -1152449.3 1.948925e-06 6.0948547e-06 2.3228619e-06 
Loop time of 2.24881 on 104 procs for 194 steps with 288751 atoms

99.9% CPU use with 104 MPI tasks x 1 OpenMP threads

Minimization stats:
  Stopping criterion = energy tolerance
  Energy initial, next-to-last, final = 
      -1152449.3368484  -1152449.33806455  -1152449.33806455
  Force two-norm initial, final = 0.15886489 8.1374110e-05
  Force max component initial, final = 0.058227558 1.3745330e-05
  Final line search alpha, max atom move = 1.0000000 1.3745330e-05
  Iterations, force evaluations = 194 388

MPI task timing breakdown:
Section |  min time  |  avg time  |  max time  |%varavg| %total
---------------------------------------------------------------
Pair    | 0.59069    | 1.6335     | 2.1228     |  34.4 | 72.64
Neigh   | 0          | 0          | 0          |   0.0 |  0.00
Comm    | 0.035159   | 0.36329    | 1.0968     |  50.9 | 16.15
Output  | 0          | 0          | 0          |   0.0 |  0.00
Modify  | 2.2253e-05 | 0.0031973  | 0.006795   |   2.7 |  0.14
Other   |            | 0.2488     |            |       | 11.06

Nlocal:        2776.45 ave        3959 max           0 min
Histogram: 8 4 4 0 4 12 8 4 26 34
Nghost:        3879.12 ave        5428 max         232 min
Histogram: 8 0 8 0 16 0 8 8 16 40
Neighs:        79213.4 ave      115400 max           0 min
Histogram: 8 4 4 0 10 6 8 8 24 32

Total # of neighbors = 8238197
Ave neighs/atom = 28.530454
Neighbor list builds = 0
Dangerous builds = 0
The dot product: -1.68925753170016e-08
Setting atom values ...
  1 settings made for x
  1 settings made for y
  1 settings made for z
Setting up cg style minimization ...
  Unit style    : metal
  Current step  : 7262
Per MPI rank memory allocation (min/avg/max) = 5.441 | 5.816 | 6.074 Mbytes
Step PotEng KinEng TotEng v_fx v_fy v_fz 
    7262   -1152449.3            0   -1152449.3 -0.0012996804 -0.058780637  0.030118479 
[...]

Nlocal:        2776.45 ave        3959 max           0 min
Histogram: 8 4 4 0 4 12 8 2 28 34
Nghost:        3879.01 ave        5424 max         232 min
Histogram: 8 0 8 0 16 0 8 8 16 40
Neighs:        79213.5 ave      115408 max           0 min
Histogram: 8 4 4 0 10 6 8 8 24 32

Total # of neighbors = 8238202
Ave neighs/atom = 28.530471
Neighbor list builds = 0
Dangerous builds = 0
The dot product: -1.16798192267067e-07
Setting atom values ...
  1 settings made for x
  1 settings made for y
  1 settings made for z
Setting up cg style minimization ...
  Unit style    : metal
  Current step  : 2127
Per MPI rank memory allocation (min/avg/max) = 5.441 | 5.816 | 6.074 Mbytes
Step PotEng KinEng TotEng v_fx v_fy v_fz 
    2127   -1152449.3            0   -1152449.3 0.0045220182 0.0055782722 0.0036274125 
    2231   -1152449.4            0   -1152449.4 -1.3591503e-05 -1.004038e-05 -1.8225904e-05 
Loop time of 1.19643 on 104 procs for 104 steps with 288751 atoms

99.9% CPU use with 104 MPI tasks x 1 OpenMP threads

Minimization stats:
  Stopping criterion = energy tolerance
  Energy initial, next-to-last, final = 
     -1152449.34944478  -1152449.35065861  -1152449.35065861
  Force two-norm initial, final = 0.13672552 8.6565259e-05
  Force max component initial, final = 0.067878742 2.5551478e-05
  Final line search alpha, max atom move = 1.0000000 2.5551478e-05
  Iterations, force evaluations = 104 208

MPI task timing breakdown:
Section |  min time  |  avg time  |  max time  |%varavg| %total
---------------------------------------------------------------
Pair    | 0.31594    | 0.87182    | 1.1326     |  25.1 | 72.87
Neigh   | 0          | 0          | 0          |   0.0 |  0.00
Comm    | 0.022356   | 0.19574    | 0.5884     |  37.0 | 16.36
Output  | 0          | 0          | 0          |   0.0 |  0.00
Modify  | 1.2582e-05 | 0.0017126  | 0.0037068  |   2.0 |  0.14
Other   |            | 0.1272     |            |       | 10.63

Nlocal:        2776.45 ave        3959 max           0 min
Histogram: 8 4 4 0 4 12 8 2 28 34
Nghost:        3879.01 ave        5424 max         232 min
Histogram: 8 0 8 0 16 0 8 8 16 40
Neighs:        79213.5 ave      115407 max           0 min
Histogram: 8 4 4 0 10 6 8 8 24 32

Total # of neighbors = 8238201
Ave neighs/atom = 28.530467
Neighbor list builds = 0
Dangerous builds = 0
The dot product: -1.04673209865801e-07
Setting atom values ...
  1 settings made for x
  1 settings made for y
  1 settings made for z
Setting up cg style minimization ...
  Unit style    : metal
  Current step  : 2231
Per MPI rank memory allocation (min/avg/max) = 5.441 | 5.816 | 6.074 Mbytes
Step PotEng KinEng TotEng v_fx v_fy v_fz 
    2231   -1152449.3            0   -1152449.3 0.0073327217 0.0022894294  0.012612207 
    2431   -1152449.3            0   -1152449.3 -7.596541e-06 1.8951263e-05 -3.5519237e-05 
Loop time of 2.31155 on 104 procs for 200 steps with 288751 atoms

99.9% CPU use with 104 MPI tasks x 1 OpenMP threads

Minimization stats:
  Stopping criterion = energy tolerance
  Energy initial, next-to-last, final = 
     -1152449.34004356  -1152449.34214323  -1152449.34214323
  Force two-norm initial, final = 0.14104112 0.00019581844
  Force max component initial, final = 0.065997182 3.5519237e-05
  Final line search alpha, max atom move = 1.0000000 3.5519237e-05
  Iterations, force evaluations = 200 400

MPI task timing breakdown:
Section |  min time  |  avg time  |  max time  |%varavg| %total
---------------------------------------------------------------
Pair    | 0.609      | 1.6722     | 2.1811     |  34.7 | 72.34
Neigh   | 0          | 0          | 0          |   0.0 |  0.00
Comm    | 0.043548   | 0.37448    | 1.1364     |  51.4 | 16.20
Output  | 0          | 0          | 0          |   0.0 |  0.00
Modify  | 2.3736e-05 | 0.0032882  | 0.0070464  |   2.7 |  0.14
Other   |            | 0.2616     |            |       | 11.32

Nlocal:        2776.45 ave        3959 max           0 min
Histogram: 8 4 4 0 4 12 8 2 28 34
Nghost:        3879.01 ave        5424 max         232 min
Histogram: 8 0 8 0 16 0 8 8 16 40
Neighs:        79213.5 ave      115408 max           0 min
Histogram: 8 4 4 0 10 6 8 8 24 32

Total # of neighbors = 8238202
Ave neighs/atom = 28.530471
Neighbor list builds = 0
Dangerous builds = 0
The dot product: -5.89690117961002e-07
Setting atom values ...
  1 settings made for x
  1 settings made for y
  1 settings made for z
Setting up cg style minimization ...
  Unit style    : metal
  Current step  : 2431
Per MPI rank memory allocation (min/avg/max) = 5.441 | 5.816 | 6.074 Mbytes
Step PotEng KinEng TotEng v_fx v_fy v_fz 
    2431   -1152449.3            0   -1152449.3  0.012885229 -0.0011225524  0.024059944 
    2696   -1152449.3            0   -1152449.3 5.1691556e-06 3.9459298e-06 5.5982162e-06 
Loop time of 3.04486 on 104 procs for 265 steps with 288751 atoms

99.9% CPU use with 104 MPI tasks x 1 OpenMP threads

Minimization stats:
  Stopping criterion = energy tolerance
  Energy initial, next-to-last, final = 
     -1152449.33582984  -1152449.34623673  -1152449.34623673
  Force two-norm initial, final = 0.15609267 2.8888090e-05
  Force max component initial, final = 0.058955176 5.5982162e-06
  Final line search alpha, max atom move = 1.0000000 5.5982162e-06
  Iterations, force evaluations = 265 530

MPI task timing breakdown:
Section |  min time  |  avg time  |  max time  |%varavg| %total
---------------------------------------------------------------
Pair    | 0.80764    | 2.2153     | 2.8746     |  40.0 | 72.75
Neigh   | 1.0133e-05 | 0.0029564  | 0.0042965  |   2.2 |  0.10
Comm    | 0.060433   | 0.49855    | 1.4917     |  59.4 | 16.37
Output  | 0          | 0          | 0          |   0.0 |  0.00
Modify  | 3.0662e-05 | 0.0043476  | 0.0093105  |   3.1 |  0.14
Other   |            | 0.3237     |            |       | 10.63

Nlocal:        2776.45 ave        3958 max           0 min
Histogram: 8 4 4 0 4 12 8 2 28 34
Nghost:        3879.05 ave        5424 max         232 min
Histogram: 8 0 8 0 16 0 8 8 16 40
Neighs:        79213.4 ave      115369 max           0 min
Histogram: 8 4 4 0 10 6 8 8 24 32

Total # of neighbors = 8238193
Ave neighs/atom = 28.530440
Neighbor list builds = 1
Dangerous builds = 0
The dot product: 1.44757013776545e-07
Setting atom values ...
  1 settings made for x
  1 settings made for y
  1 settings made for z
Setting up cg style minimization ...
  Unit style    : metal
  Current step  : 2696
Per MPI rank memory allocation (min/avg/max) = 5.441 | 5.816 | 6.074 Mbytes
Step PotEng KinEng TotEng v_fx v_fy v_fz 
    2696   -1152449.3            0   -1152449.3 -0.015256294  0.010029808 -0.030315551 
    2849   -1152449.3            0   -1152449.3 -1.2452052e-06 6.3735564e-07 -2.337055e-06 
Loop time of 1.77404 on 104 procs for 153 steps with 288751 atoms

99.9% CPU use with 104 MPI tasks x 1 OpenMP threads

Minimization stats:
  Stopping criterion = energy tolerance
  Energy initial, next-to-last, final = 
     -1152449.34821545  -1152449.34915959  -1152449.34915959
  Force two-norm initial, final = 0.12865762 0.00013186327
  Force max component initial, final = 0.048205346 4.1882033e-06
  Final line search alpha, max atom move = 1.0000000 4.1882033e-06
  Iterations, force evaluations = 153 306

MPI task timing breakdown:
Section |  min time  |  avg time  |  max time  |%varavg| %total
---------------------------------------------------------------
Pair    | 0.46355    | 1.2792     | 1.6686     |  30.4 | 72.11
Neigh   | 0          | 0          | 0          |   0.0 |  0.00
Comm    | 0.033866   | 0.28874    | 0.87914    |  44.7 | 16.28
Output  | 0          | 0          | 0          |   0.0 |  0.00
Modify  | 1.817e-05  | 0.0025139  | 0.0054034  |   2.4 |  0.14
Other   |            | 0.2036     |            |       | 11.48

Nlocal:        2776.45 ave        3957 max           0 min
Histogram: 8 4 4 0 4 12 8 2 28 34
Nghost:        3879.07 ave        5425 max         232 min
Histogram: 8 0 8 0 16 0 8 8 16 40
Neighs:        79213.4 ave      115341 max           0 min
Histogram: 8 4 4 0 10 6 8 8 24 32

Total # of neighbors = 8238191
Ave neighs/atom = 28.530433
Neighbor list builds = 0
Dangerous builds = 0
The dot product: 7.03340084365226e-09
Setting atom values ...
  1 settings made for x
  1 settings made for y
  1 settings made for z
Setting up cg style minimization ...
  Unit style    : metal
  Current step  : 2849
Per MPI rank memory allocation (min/avg/max) = 5.441 | 5.816 | 6.074 Mbytes
Step PotEng KinEng TotEng v_fx v_fy v_fz 
    2849   -1152449.4            0   -1152449.4 -0.0097532544 0.0060469078 -0.019442047 
    3000   -1152449.4            0   -1152449.4 -1.2691307e-05 1.8406026e-06 -2.0643532e-05 
    3015   -1152449.4            0   -1152449.4 3.6376554e-05 3.6456939e-05 2.6940423e-05 
Loop time of 1.90978 on 104 procs for 166 steps with 288751 atoms

99.9% CPU use with 104 MPI tasks x 1 OpenMP threads

Minimization stats:
  Stopping criterion = energy tolerance
  Energy initial, next-to-last, final = 
     -1152449.35009261  -1152449.35099628  -1152449.35099628
  Force two-norm initial, final = 0.12529163 0.00021658331
  Force max component initial, final = 0.047433301 5.7422117e-05
  Final line search alpha, max atom move = 1.0000000 5.7422117e-05
  Iterations, force evaluations = 166 332

MPI task timing breakdown:
Section |  min time  |  avg time  |  max time  |%varavg| %total
---------------------------------------------------------------
Pair    | 0.50485    | 1.3896     | 1.8032     |  31.7 | 72.76
Neigh   | 0          | 0          | 0          |   0.0 |  0.00
Comm    | 0.033803   | 0.31364    | 0.94265    |  46.7 | 16.42
Output  | 0.00010574 | 0.00011366 | 0.00027731 |   0.0 |  0.01
Modify  | 1.9857e-05 | 0.002735   | 0.0059411  |   2.5 |  0.14
Other   |            | 0.2037     |            |       | 10.67

Nlocal:        2776.45 ave        3957 max           0 min
Histogram: 8 4 4 0 4 12 8 2 28 34
Nghost:        3879.07 ave        5425 max         232 min
Histogram: 8 0 8 0 16 0 8 8 16 40
Neighs:        79213.4 ave      115343 max           0 min
Histogram: 8 4 4 0 10 6 8 8 24 32

Total # of neighbors = 8238192
Ave neighs/atom = 28.530436
Neighbor list builds = 0
Dangerous builds = 0
The dot product: -4.23940241122295e-09
Setting atom values ...
  1 settings made for x
  1 settings made for y
  1 settings made for z
Setting up cg style minimization ...
  Unit style    : metal
  Current step  : 3015
Per MPI rank memory allocation (min/avg/max) = 5.441 | 5.816 | 6.074 Mbytes
Step PotEng KinEng TotEng v_fx v_fy v_fz 
    3015   -1152449.4            0   -1152449.4 -0.0098946628 0.0065793354 -0.020105349 
    3241   -1152449.4            0   -1152449.4 1.7834042e-06 1.1063405e-06 1.8491654e-06 
Loop time of 2.6039 on 104 procs for 226 steps with 288751 atoms

99.9% CPU use with 104 MPI tasks x 1 OpenMP threads

Minimization stats:
  Stopping criterion = energy tolerance
  Energy initial, next-to-last, final = 
      -1152449.3506703  -1152449.35157058  -1152449.35157058
  Force two-norm initial, final = 0.12547392 2.4612760e-05
  Force max component initial, final = 0.046850662 1.8491654e-06
  Final line search alpha, max atom move = 1.0000000 1.8491654e-06
  Iterations, force evaluations = 226 452

MPI task timing breakdown:
Section |  min time  |  avg time  |  max time  |%varavg| %total
---------------------------------------------------------------
Pair    | 0.68572    | 1.8918     | 2.465      |  37.1 | 72.65
Neigh   | 0          | 0          | 0          |   0.0 |  0.00
Comm    | 0.048395   | 0.42483    | 1.28       |  54.7 | 16.32
Output  | 0          | 0          | 0          |   0.0 |  0.00
Modify  | 2.7103e-05 | 0.0037112  | 0.0079557  |   2.9 |  0.14
Other   |            | 0.2835     |            |       | 10.89

Nlocal:        2776.45 ave        3958 max           0 min
Histogram: 8 4 4 0 4 12 8 2 28 34
Nghost:        3879.03 ave        5424 max         232 min
Histogram: 8 0 8 0 16 0 8 8 16 40
Neighs:        79213.4 ave      115369 max           0 min
Histogram: 8 4 4 0 10 6 8 8 24 32

Total # of neighbors = 8238190
Ave neighs/atom = 28.530429
Neighbor list builds = 0
Dangerous builds = 0
The dot product: -7.09619745470526e-10
Setting atom values ...
  1 settings made for x
  1 settings made for y
  1 settings made for z
Setting up cg style minimization ...
  Unit style    : metal
  Current step  : 3241
Per MPI rank memory allocation (min/avg/max) = 5.441 | 5.816 | 6.074 Mbytes
Step PotEng KinEng TotEng v_fx v_fy v_fz 
    3241   -1152449.3            0   -1152449.3 -0.0091635585 0.0065490932 -0.019032899 
    3402   -1152449.4            0   -1152449.4 6.2648913e-05 5.621791e-05 5.1596696e-05 
Loop time of 1.85025 on 104 procs for 161 steps with 288751 atoms

99.9% CPU use with 104 MPI tasks x 1 OpenMP threads

Minimization stats:
  Stopping criterion = energy tolerance
  Energy initial, next-to-last, final = 
      -1152449.3499211   -1152449.3508123   -1152449.3508123
  Force two-norm initial, final = 0.12486091 0.00026358659
  Force max component initial, final = 0.046241823 6.6938968e-05
  Final line search alpha, max atom move = 1.0000000 6.6938968e-05
  Iterations, force evaluations = 161 322

MPI task timing breakdown:
Section |  min time  |  avg time  |  max time  |%varavg| %total
---------------------------------------------------------------
Pair    | 0.48982    | 1.3489     | 1.751      |  31.2 | 72.90
Neigh   | 0          | 0          | 0          |   0.0 |  0.00
Comm    | 0.037284   | 0.30242    | 0.90634    |  46.1 | 16.34
Output  | 0          | 0          | 0          |   0.0 |  0.00
Modify  | 1.9013e-05 | 0.0026491  | 0.0056849  |   2.4 |  0.14
Other   |            | 0.1963     |            |       | 10.61

Nlocal:        2776.45 ave        3958 max           0 min
Histogram: 8 4 4 0 4 12 8 2 28 34
Nghost:        3878.99 ave        5424 max         232 min
Histogram: 8 0 8 0 16 0 8 8 16 40
Neighs:        79213.4 ave      115370 max           0 min
Histogram: 8 4 4 0 10 6 8 8 24 32

Total # of neighbors = 8238192
Ave neighs/atom = 28.530436
Neighbor list builds = 0
Dangerous builds = 0
The dot product: -1.16902335911526e-08
Setting atom values ...
  1 settings made for x
  1 settings made for y
  1 settings made for z
Setting up cg style minimization ...
  Unit style    : metal
  Current step  : 3402
Per MPI rank memory allocation (min/avg/max) = 5.441 | 5.816 | 6.074 Mbytes
Step PotEng KinEng TotEng v_fx v_fy v_fz 
    3402   -1152449.3            0   -1152449.3 -0.0081410218 0.0064108962 -0.017425725 
    3637   -1152449.3            0   -1152449.3 -2.7122547e-06 1.3974366e-07 -4.2464431e-06 
Loop time of 2.70561 on 104 procs for 235 steps with 288751 atoms

99.9% CPU use with 104 MPI tasks x 1 OpenMP threads

Minimization stats:
  Stopping criterion = energy tolerance
  Energy initial, next-to-last, final = 
     -1152449.34782275  -1152449.34870118  -1152449.34870118
  Force two-norm initial, final = 0.12385909 1.8245728e-05
  Force max component initial, final = 0.045600999 4.2464431e-06
  Final line search alpha, max atom move = 1.0000000 4.2464431e-06
  Iterations, force evaluations = 235 470

MPI task timing breakdown:
Section |  min time  |  avg time  |  max time  |%varavg| %total
---------------------------------------------------------------
Pair    | 0.71329    | 1.9641     | 2.5543     |  37.7 | 72.59
Neigh   | 0          | 0          | 0          |   0.0 |  0.00
Comm    | 0.048563   | 0.44016    | 1.3375     |  55.9 | 16.27
Output  | 0          | 0          | 0          |   0.0 |  0.00
Modify  | 2.8062e-05 | 0.0038628  | 0.0083016  |   2.9 |  0.14
Other   |            | 0.2975     |            |       | 10.99

Nlocal:        2776.45 ave        3958 max           0 min
Histogram: 8 4 4 0 4 12 8 2 28 34
Nghost:        3879.01 ave        5424 max         232 min
Histogram: 8 0 8 0 16 0 8 8 16 40
Neighs:        79213.4 ave      115370 max           0 min
Histogram: 8 4 4 0 10 6 8 8 24 32

Total # of neighbors = 8238191
Ave neighs/atom = 28.530433
Neighbor list builds = 0
Dangerous builds = 0
The dot product: 1.81120338652476e-09
Setting atom values ...
  1 settings made for x
  1 settings made for y
  1 settings made for z
Setting up cg style minimization ...
  Unit style    : metal
  Current step  : 3637
Per MPI rank memory allocation (min/avg/max) = 5.441 | 5.816 | 6.074 Mbytes
Step PotEng KinEng TotEng v_fx v_fy v_fz 
    3637   -1152449.3            0   -1152449.3 -0.007281839 0.0058882809 -0.015747128 
    3933   -1152449.3            0   -1152449.3 -1.9428755e-07 -8.1163973e-08 -2.3330928e-07 
Loop time of 3.40883 on 104 procs for 296 steps with 288751 atoms

99.9% CPU use with 104 MPI tasks x 1 OpenMP threads

Minimization stats:
  Stopping criterion = energy tolerance
  Energy initial, next-to-last, final = 
     -1152449.34436754   -1152449.3452317   -1152449.3452317
  Force two-norm initial, final = 0.12292364 9.8126700e-07
  Force max component initial, final = 0.044879074 2.3330928e-07
  Final line search alpha, max atom move = 1.0000000 2.3330928e-07
  Iterations, force evaluations = 296 592

MPI task timing breakdown:
Section |  min time  |  avg time  |  max time  |%varavg| %total
---------------------------------------------------------------
Pair    | 0.89802    | 2.4773     | 3.2093     |  42.3 | 72.67
Neigh   | 0          | 0          | 0          |   0.0 |  0.00
Comm    | 0.076691   | 0.55886    | 1.6647     |  62.0 | 16.39
Output  | 0          | 0          | 0          |   0.0 |  0.00
Modify  | 3.5214e-05 | 0.0048541  | 0.010376   |   3.3 |  0.14
Other   |            | 0.3678     |            |       | 10.79

Nlocal:        2776.45 ave        3958 max           0 min
Histogram: 8 4 4 0 4 12 8 2 28 34
Nghost:        3879.01 ave        5424 max         232 min
Histogram: 8 0 8 0 16 0 8 8 16 40
Neighs:        79213.4 ave      115370 max           0 min
Histogram: 8 4 4 0 10 6 8 8 24 32

Total # of neighbors = 8238190
Ave neighs/atom = 28.530429
Neighbor list builds = 0
Dangerous builds = 0
The dot product: 6.52475828088183e-11
Setting up cg style minimization ...
  Unit style    : metal
  Current step  : 3933
Per MPI rank memory allocation (min/avg/max) = 5.441 | 5.816 | 6.074 Mbytes
Step PotEng KinEng TotEng v_fx v_fy v_fz 
    3933   -1152449.3            0   -1152449.3   0.15957535 -0.081870207  -0.10440516 
    4000   -1152449.4            0   -1152449.4 0.00041914989 0.00049292057 0.00065010067 
    4152   -1152449.4            0   -1152449.4 1.5228187e-05 9.8005101e-07 3.2522292e-05 
Loop time of 2.56119 on 104 procs for 219 steps with 288751 atoms

99.9% CPU use with 104 MPI tasks x 1 OpenMP threads

Minimization stats:
  Stopping criterion = energy tolerance
  Energy initial, next-to-last, final = 
      -1152449.3452317  -1152449.35157333  -1152449.35157333
  Force two-norm initial, final = 0.20752702 0.00011449569
  Force max component initial, final = 0.15957535 3.2522292e-05
  Final line search alpha, max atom move = 1.0000000 3.2522292e-05
  Iterations, force evaluations = 219 438

MPI task timing breakdown:
Section |  min time  |  avg time  |  max time  |%varavg| %total
---------------------------------------------------------------
Pair    | 0.66483    | 1.8357     | 2.3838     |  36.2 | 71.67
Neigh   | 0          | 0          | 0          |   0.0 |  0.00
Comm    | 0.046259   | 0.41683    | 1.2624     |  53.6 | 16.27
Output  | 0.00015196 | 0.00016026 | 0.00034134 |   0.0 |  0.01
Modify  | 2.4823e-05 | 0.0023453  | 0.0060425  |   3.0 |  0.09
Other   |            | 0.3062     |            |       | 11.96

Nlocal:        2776.45 ave        3958 max           0 min
Histogram: 8 4 4 0 4 12 8 2 28 34
Nghost:        3879.01 ave        5424 max         232 min
Histogram: 8 0 8 0 16 0 8 8 16 40
Neighs:        79213.4 ave      115370 max           0 min
Histogram: 8 4 4 0 10 6 8 8 24 32

Total # of neighbors = 8238190
Ave neighs/atom = 28.530429
Neighbor list builds = 0
Dangerous builds = 0
