LAMMPS (29 Oct 2020)
OMP_NUM_THREADS environment is not set. Defaulting to 1 thread. (../comm.cpp:94)
  using 1 OpenMP thread(s) per MPI task
OMP_NUM_THREADS environment is not set. Defaulting to 1 thread. (../comm.cpp:94)
  using 1 OpenMP thread(s) per MPI task
Reading data file ...
  orthogonal box = (-122.39241 -121.13707 -37.090501) to (122.39241 121.13707 37.090501)
  13 by 4 by 2 MPI processor grid
  reading atoms ...
  288751 atoms
  read_data CPU = 0.383 seconds
199981 atoms in group inner
88770 atoms in group outer
1 atoms in group carbon
Neighbor list info ...
  update every 1 steps, delay 0 steps, check yes
  max neighbors/atom: 2000, page size: 100000
  master list distance cutoff = 5.6
  ghost atom cutoff = 5.6
  binsize = 2.8, bins = 88 87 27
  1 neighbor lists, perpetual/occasional/extra = 1 0 0
  (1) pair eam/alloy, perpetual
      attributes: half, newton on
      pair build: half/bin/atomonly/newton
      stencil: half/bin/3d/newton
      bin: standard
Setting up cg style minimization ...
  Unit style    : metal
  Current step  : 0
Per MPI rank memory allocation (min/avg/max) = 5.441 | 5.816 | 6.074 Mbytes
Step v_fx v_fy v_fz PotEng KinEng TotEng 
       0    25.326616    15.063702   -49.953762   -1152433.5            0   -1152433.5 
     167 -5.4147097e-06 -8.9627262e-06 5.7989159e-06   -1152449.5            0   -1152449.5 
Loop time of 1.96304 on 104 procs for 167 steps with 288751 atoms

99.8% CPU use with 104 MPI tasks x 1 OpenMP threads

Minimization stats:
  Stopping criterion = energy tolerance
  Energy initial, next-to-last, final = 
     -1152433.47490445  -1152449.45035261  -1152449.45035261
  Force two-norm initial, final = 87.037789 0.00011668298
  Force max component initial, final = 57.206950 8.9627262e-06
  Final line search alpha, max atom move = 1.0000000 8.9627262e-06
  Iterations, force evaluations = 167 325

MPI task timing breakdown:
Section |  min time  |  avg time  |  max time  |%varavg| %total
---------------------------------------------------------------
Pair    | 0.51756    | 1.3751     | 1.7985     |  31.0 | 70.05
Neigh   | 5.1163e-05 | 0.014672   | 0.021506   |   5.0 |  0.75
Comm    | 0.033618   | 0.31609    | 0.9186     |  45.1 | 16.10
Output  | 0          | 0          | 0          |   0.0 |  0.00
Modify  | 1.8437e-05 | 0.0017588  | 0.0044874  |   2.6 |  0.09
Other   |            | 0.2554     |            |       | 13.01

Nlocal:        2776.45 ave        3961 max           0 min
Histogram: 8 4 4 0 6 10 8 2 28 34
Nghost:        3879.01 ave        5424 max         232 min
Histogram: 8 0 8 0 16 0 8 8 16 40
Neighs:        79213.5 ave      115455 max           0 min
Histogram: 8 4 4 0 10 6 8 8 24 32

Total # of neighbors = 8238206
Ave neighs/atom = 28.530485
Neighbor list builds = 5
Dangerous builds = 0
Setting atom values ...
  1 settings made for x
  1 settings made for y
  1 settings made for z
Setting up cg style minimization ...
  Unit style    : metal
  Current step  : 167
Per MPI rank memory allocation (min/avg/max) = 5.441 | 5.816 | 6.074 Mbytes
Step PotEng KinEng TotEng v_fx v_fy v_fz 
     167   -1152449.4            0   -1152449.4 -0.00063853359 0.0013179311 0.0026157639 
     319   -1152449.5            0   -1152449.5 1.535219e-06 3.3282727e-07 4.8904302e-06 
Loop time of 1.83671 on 104 procs for 152 steps with 288751 atoms

99.9% CPU use with 104 MPI tasks x 1 OpenMP threads

Minimization stats:
  Stopping criterion = energy tolerance
  Energy initial, next-to-last, final = 
     -1152449.44942751  -1152449.45004203  -1152449.45004203
  Force two-norm initial, final = 0.11511294 0.00012565136
  Force max component initial, final = 0.053213124 4.8904302e-06
  Final line search alpha, max atom move = 1.0000000 4.8904302e-06
  Iterations, force evaluations = 152 304

MPI task timing breakdown:
Section |  min time  |  avg time  |  max time  |%varavg| %total
---------------------------------------------------------------
Pair    | 0.46276    | 1.2854     | 1.7097     |  30.6 | 69.98
Neigh   | 0          | 0          | 0          |   0.0 |  0.00
Comm    | 0.028685   | 0.2986     | 0.85831    |  43.1 | 16.26
Output  | 0          | 0          | 0          |   0.0 |  0.00
Modify  | 1.8589e-05 | 0.0025172  | 0.0053629  |   2.4 |  0.14
Other   |            | 0.2502     |            |       | 13.62

Nlocal:        2776.45 ave        3961 max           0 min
Histogram: 8 4 4 0 6 10 8 2 28 34
Nghost:        3879.01 ave        5425 max         232 min
Histogram: 8 0 8 0 16 0 8 8 16 40
Neighs:        79213.4 ave      115455 max           0 min
Histogram: 8 4 4 0 10 6 8 8 24 32

Total # of neighbors = 8238197
Ave neighs/atom = 28.530454
Neighbor list builds = 0
Dangerous builds = 0
Setting atom values ...
  1 settings made for x
  1 settings made for y
  1 settings made for z
Setting up cg style minimization ...
  Unit style    : metal
  Current step  : 319
Per MPI rank memory allocation (min/avg/max) = 5.441 | 5.816 | 6.074 Mbytes
Step PotEng KinEng TotEng v_fx v_fy v_fz 
     319   -1152449.4            0   -1152449.4 -0.0048927606 0.0043602737 0.0031958641 
     486   -1152449.4            0   -1152449.4 -4.4305503e-07 -1.1829267e-06 -5.6646169e-06 
Loop time of 2.01727 on 104 procs for 167 steps with 288751 atoms

99.8% CPU use with 104 MPI tasks x 1 OpenMP threads

Minimization stats:
  Stopping criterion = energy tolerance
  Energy initial, next-to-last, final = 
     -1152449.44646533  -1152449.44816114  -1152449.44816114
  Force two-norm initial, final = 0.1915515 0.00018343765
  Force max component initial, final = 0.088777853 1.5817627e-05
  Final line search alpha, max atom move = 1.0000000 1.5817627e-05
  Iterations, force evaluations = 167 334

MPI task timing breakdown:
Section |  min time  |  avg time  |  max time  |%varavg| %total
---------------------------------------------------------------
Pair    | 0.51263    | 1.4142     | 1.8605     |  32.2 | 70.10
Neigh   | 0          | 0          | 0          |   0.0 |  0.00
Comm    | 0.037386   | 0.32809    | 0.95111    |  45.5 | 16.26
Output  | 0          | 0          | 0          |   0.0 |  0.00
Modify  | 1.9539e-05 | 0.0027665  | 0.0058687  |   2.5 |  0.14
Other   |            | 0.2722     |            |       | 13.49

Nlocal:        2776.45 ave        3961 max           0 min
Histogram: 8 4 4 0 6 10 8 2 28 34
Nghost:        3879.01 ave        5425 max         232 min
Histogram: 8 0 8 0 16 0 8 8 16 40
Neighs:        79213.4 ave      115455 max           0 min
Histogram: 8 4 4 0 10 6 8 8 24 32

Total # of neighbors = 8238196
Ave neighs/atom = 28.530450
Neighbor list builds = 0
Dangerous builds = 0
The dot product: 4.62830035792326e-09
Setting atom values ...
  1 settings made for x
  1 settings made for y
  1 settings made for z
Setting up cg style minimization ...
  Unit style    : metal
  Current step  : 486
Per MPI rank memory allocation (min/avg/max) = 5.441 | 5.816 | 6.074 Mbytes
Step PotEng KinEng TotEng v_fx v_fy v_fz 
     486   -1152449.4            0   -1152449.4 -0.011921635 0.0087393533 0.00069696785 
     611   -1152449.4            0   -1152449.4 -7.6667058e-07 -2.8465457e-06 -1.4573345e-05 
Loop time of 1.48978 on 104 procs for 125 steps with 288751 atoms

99.9% CPU use with 104 MPI tasks x 1 OpenMP threads

Minimization stats:
  Stopping criterion = energy tolerance
  Energy initial, next-to-last, final = 
     -1152449.44295238  -1152449.44465855  -1152449.44465855
  Force two-norm initial, final = 0.1922657 0.00015568124
  Force max component initial, final = 0.088500888 1.4573345e-05
  Final line search alpha, max atom move = 1.0000000 1.4573345e-05
  Iterations, force evaluations = 125 250

MPI task timing breakdown:
Section |  min time  |  avg time  |  max time  |%varavg| %total
---------------------------------------------------------------
Pair    | 0.38432    | 1.0582     | 1.3791     |  27.6 | 71.03
Neigh   | 0          | 0          | 0          |   0.0 |  0.00
Comm    | 0.03382    | 0.24405    | 0.73107    |  40.0 | 16.38
Output  | 0          | 0          | 0          |   0.0 |  0.00
Modify  | 1.5087e-05 | 0.0020713  | 0.0044354  |   2.1 |  0.14
Other   |            | 0.1854     |            |       | 12.45

Nlocal:        2776.45 ave        3961 max           0 min
Histogram: 8 4 4 0 6 10 8 2 28 34
Nghost:        3879.01 ave        5424 max         232 min
Histogram: 8 0 8 0 16 0 8 8 16 40
Neighs:        79213.4 ave      115455 max           0 min
Histogram: 8 4 4 0 10 6 8 8 24 32

Total # of neighbors = 8238197
Ave neighs/atom = 28.530454
Neighbor list builds = 0
Dangerous builds = 0
The dot product: 1.54893067869081e-08
Setting atom values ...
  1 settings made for x
  1 settings made for y
  1 settings made for z
Setting up cg style minimization ...
  Unit style    : metal
  Current step  : 611
Per MPI rank memory allocation (min/avg/max) = 5.441 | 5.816 | 6.074 Mbytes
Step PotEng KinEng TotEng v_fx v_fy v_fz 
     611   -1152449.4            0   -1152449.4 -0.017561327  0.013642807 -0.0002434912 
     788   -1152449.4            0   -1152449.4 -3.6586162e-06 -2.8682202e-06 -2.7224598e-05 
Loop time of 2.08743 on 104 procs for 177 steps with 288751 atoms

99.9% CPU use with 104 MPI tasks x 1 OpenMP threads

Minimization stats:
  Stopping criterion = energy tolerance
  Energy initial, next-to-last, final = 
      -1152449.4380523  -1152449.43977407  -1152449.43977407
  Force two-norm initial, final = 0.19280687 8.6354134e-05
  Force max component initial, final = 0.087583063 2.7224598e-05
  Final line search alpha, max atom move = 1.0000000 2.7224598e-05
  Iterations, force evaluations = 177 354

MPI task timing breakdown:
Section |  min time  |  avg time  |  max time  |%varavg| %total
---------------------------------------------------------------
Pair    | 0.53894    | 1.4865     | 1.9451     |  32.9 | 71.21
Neigh   | 0          | 0          | 0          |   0.0 |  0.00
Comm    | 0.033702   | 0.33854    | 0.99803    |  47.7 | 16.22
Output  | 0          | 0          | 0          |   0.0 |  0.00
Modify  | 2.0361e-05 | 0.0029265  | 0.0062169  |   2.5 |  0.14
Other   |            | 0.2594     |            |       | 12.43

Nlocal:        2776.45 ave        3961 max           0 min
Histogram: 8 4 4 0 6 10 8 2 28 34
Nghost:        3879.01 ave        5424 max         232 min
Histogram: 8 0 8 0 16 0 8 8 16 40
Neighs:        79213.4 ave      115455 max           0 min
Histogram: 8 4 4 0 10 6 8 8 24 32

Total # of neighbors = 8238196
Ave neighs/atom = 28.530450
Neighbor list builds = 0
Dangerous builds = 0
The dot product: 3.74716839756884e-08
Setting atom values ...
  1 settings made for x
  1 settings made for y
  1 settings made for z
Setting up cg style minimization ...
  Unit style    : metal
  Current step  : 788
Per MPI rank memory allocation (min/avg/max) = 5.441 | 5.816 | 6.074 Mbytes
Step PotEng KinEng TotEng v_fx v_fy v_fz 
     788   -1152449.4            0   -1152449.4 -0.018143223  0.016040378 0.0018297412 
     946   -1152449.4            0   -1152449.4 1.6606423e-06 2.9328663e-06 2.2281224e-05 
Loop time of 1.87374 on 104 procs for 158 steps with 288751 atoms

99.9% CPU use with 104 MPI tasks x 1 OpenMP threads

Minimization stats:
  Stopping criterion = energy tolerance
  Energy initial, next-to-last, final = 
     -1152449.43189587   -1152449.4336124   -1152449.4336124
  Force two-norm initial, final = 0.19218816 5.4250182e-05
  Force max component initial, final = 0.086471776 2.2281224e-05
  Final line search alpha, max atom move = 1.0000000 2.2281224e-05
  Iterations, force evaluations = 158 316

MPI task timing breakdown:
Section |  min time  |  avg time  |  max time  |%varavg| %total
---------------------------------------------------------------
Pair    | 0.47962    | 1.3333     | 1.7484     |  31.2 | 71.16
Neigh   | 0          | 0          | 0          |   0.0 |  0.00
Comm    | 0.037537   | 0.30416    | 0.89608    |  44.9 | 16.23
Output  | 0          | 0          | 0          |   0.0 |  0.00
Modify  | 1.7991e-05 | 0.0026145  | 0.0055847  |   2.4 |  0.14
Other   |            | 0.2336     |            |       | 12.47

Nlocal:        2776.45 ave        3961 max           0 min
Histogram: 8 4 4 0 6 10 8 2 28 34
Nghost:        3879.01 ave        5424 max         232 min
Histogram: 8 0 8 0 16 0 8 8 16 40
Neighs:        79213.4 ave      115455 max           0 min
Histogram: 8 4 4 0 10 6 8 8 24 32

Total # of neighbors = 8238198
Ave neighs/atom = 28.530457
Neighbor list builds = 0
Dangerous builds = 0
The dot product: -1.58520328602896e-08
Setting atom values ...
  1 settings made for x
  1 settings made for y
  1 settings made for z
Setting up cg style minimization ...
  Unit style    : metal
  Current step  : 946
Per MPI rank memory allocation (min/avg/max) = 5.441 | 5.816 | 6.074 Mbytes
Step PotEng KinEng TotEng v_fx v_fy v_fz 
     946   -1152449.4            0   -1152449.4 -0.015954637  0.015763851 0.0047626919 
    1000   -1152449.4            0   -1152449.4 5.2940496e-06 3.6820784e-05 0.00021927908 
    1047   -1152449.4            0   -1152449.4 3.0422523e-06 1.0039607e-06 2.0151948e-05 
Loop time of 1.18353 on 104 procs for 101 steps with 288751 atoms

99.9% CPU use with 104 MPI tasks x 1 OpenMP threads

Minimization stats:
  Stopping criterion = energy tolerance
  Energy initial, next-to-last, final = 
     -1152449.42448899  -1152449.42618263  -1152449.42618263
  Force two-norm initial, final = 0.19084103 0.00024886878
  Force max component initial, final = 0.085868018 3.9340391e-05
  Final line search alpha, max atom move = 1.0000000 3.9340391e-05
  Iterations, force evaluations = 101 202

MPI task timing breakdown:
Section |  min time  |  avg time  |  max time  |%varavg| %total
---------------------------------------------------------------
Pair    | 0.30729    | 0.8491     | 1.1049     |  24.9 | 71.74
Neigh   | 0          | 0          | 0          |   0.0 |  0.00
Comm    | 0.018639   | 0.19161    | 0.57096    |  36.4 | 16.19
Output  | 0.00026096 | 0.00026396 | 0.0003641  |   0.0 |  0.02
Modify  | 1.2271e-05 | 0.001673   | 0.0035603  |   1.9 |  0.14
Other   |            | 0.1409     |            |       | 11.90

Nlocal:        2776.45 ave        3960 max           0 min
Histogram: 8 4 4 0 4 12 8 2 28 34
Nghost:        3879.01 ave        5424 max         232 min
Histogram: 8 0 8 0 16 0 8 8 16 40
Neighs:        79213.4 ave      115412 max           0 min
Histogram: 8 4 4 0 10 6 8 8 24 32

Total # of neighbors = 8238198
Ave neighs/atom = 28.530457
Neighbor list builds = 0
Dangerous builds = 0
The dot product: -6.54206938777035e-09
Setting atom values ...
  1 settings made for x
  1 settings made for y
  1 settings made for z
Setting up cg style minimization ...
  Unit style    : metal
  Current step  : 1047
Per MPI rank memory allocation (min/avg/max) = 5.441 | 5.816 | 6.074 Mbytes
Step PotEng KinEng TotEng v_fx v_fy v_fz 
    1047   -1152449.4            0   -1152449.4 -0.012804916  0.013896662 0.0076131671 
    1171   -1152449.4            0   -1152449.4 7.9010083e-07 3.1193648e-06 2.0207623e-05 
Loop time of 1.46854 on 104 procs for 124 steps with 288751 atoms

99.9% CPU use with 104 MPI tasks x 1 OpenMP threads

Minimization stats:
  Stopping criterion = energy tolerance
  Energy initial, next-to-last, final = 
      -1152449.4157758  -1152449.41744868  -1152449.41744868
  Force two-norm initial, final = 0.18932895 0.00015084254
  Force max component initial, final = 0.086080177 2.0207623e-05
  Final line search alpha, max atom move = 1.0000000 2.0207623e-05
  Iterations, force evaluations = 124 248

MPI task timing breakdown:
Section |  min time  |  avg time  |  max time  |%varavg| %total
---------------------------------------------------------------
Pair    | 0.38455    | 1.0481     | 1.3688     |  27.3 | 71.37
Neigh   | 0          | 0          | 0          |   0.0 |  0.00
Comm    | 0.024534   | 0.23795    | 0.70129    |  39.8 | 16.20
Output  | 0          | 0          | 0          |   0.0 |  0.00
Modify  | 1.4032e-05 | 0.00205    | 0.0043698  |   2.1 |  0.14
Other   |            | 0.1804     |            |       | 12.29

Nlocal:        2776.45 ave        3960 max           0 min
Histogram: 8 4 4 0 4 12 8 2 28 34
Nghost:        3879.01 ave        5424 max         232 min
Histogram: 8 0 8 0 16 0 8 8 16 40
Neighs:        79213.5 ave      115412 max           0 min
Histogram: 8 4 4 0 10 6 8 8 24 32

Total # of neighbors = 8238202
Ave neighs/atom = 28.530471
Neighbor list builds = 0
Dangerous builds = 0
The dot product: 1.41442397198364e-08
Setting atom values ...
  1 settings made for x
  1 settings made for y
  1 settings made for z
Setting up cg style minimization ...
  Unit style    : metal
  Current step  : 1171
Per MPI rank memory allocation (min/avg/max) = 5.441 | 5.816 | 6.074 Mbytes
Step PotEng KinEng TotEng v_fx v_fy v_fz 
    1171   -1152449.4            0   -1152449.4 -0.0093342862  0.011252782  0.010147584 
    1350   -1152449.4            0   -1152449.4 1.5838088e-06 4.241528e-06 2.8957631e-05 
Loop time of 2.09241 on 104 procs for 179 steps with 288751 atoms

99.9% CPU use with 104 MPI tasks x 1 OpenMP threads

Minimization stats:
  Stopping criterion = energy tolerance
  Energy initial, next-to-last, final = 
     -1152449.40572378  -1152449.40739189  -1152449.40739189
  Force two-norm initial, final = 0.18790624 8.6751398e-05
  Force max component initial, final = 0.086955362 2.8957631e-05
  Final line search alpha, max atom move = 1.0000000 2.8957631e-05
  Iterations, force evaluations = 179 358

MPI task timing breakdown:
Section |  min time  |  avg time  |  max time  |%varavg| %total
---------------------------------------------------------------
Pair    | 0.54186    | 1.5023     | 1.965      |  33.1 | 71.80
Neigh   | 0          | 0          | 0          |   0.0 |  0.00
Comm    | 0.032254   | 0.33946    | 1.0104     |  48.4 | 16.22
Output  | 0          | 0          | 0          |   0.0 |  0.00
Modify  | 1.9955e-05 | 0.0029544  | 0.0062795  |   2.6 |  0.14
Other   |            | 0.2477     |            |       | 11.84

Nlocal:        2776.45 ave        3959 max           0 min
Histogram: 8 4 4 0 4 12 8 2 28 34
Nghost:        3878.99 ave        5424 max         232 min
Histogram: 8 0 8 0 16 0 8 8 16 40
Neighs:        79213.5 ave      115389 max           0 min
Histogram: 8 4 4 0 10 6 8 8 24 32

Total # of neighbors = 8238206
Ave neighs/atom = 28.530485
Neighbor list builds = 0
Dangerous builds = 0
The dot product: 4.44803196353722e-08
Setting atom values ...
  1 settings made for x
  1 settings made for y
  1 settings made for z
Setting up cg style minimization ...
  Unit style    : metal
  Current step  : 1350
Per MPI rank memory allocation (min/avg/max) = 5.441 | 5.816 | 6.074 Mbytes
Step PotEng KinEng TotEng v_fx v_fy v_fz 
    1350   -1152449.4            0   -1152449.4 -0.0056923421 0.0083496346  0.012740371 
    1475   -1152449.4            0   -1152449.4 5.015696e-06 1.0487336e-05 7.1872586e-05 
Loop time of 1.47262 on 104 procs for 125 steps with 288751 atoms

99.9% CPU use with 104 MPI tasks x 1 OpenMP threads

Minimization stats:
  Stopping criterion = energy tolerance
  Energy initial, next-to-last, final = 
     -1152449.39433952  -1152449.39603353  -1152449.39603353
  Force two-norm initial, final = 0.18662236 0.00021378662
  Force max component initial, final = 0.088490507 7.1872586e-05
  Final line search alpha, max atom move = 1.0000000 7.1872586e-05
  Iterations, force evaluations = 125 250

MPI task timing breakdown:
Section |  min time  |  avg time  |  max time  |%varavg| %total
---------------------------------------------------------------
Pair    | 0.38106    | 1.0561     | 1.3774     |  27.6 | 71.71
Neigh   | 0          | 0          | 0          |   0.0 |  0.00
Comm    | 0.022825   | 0.24078    | 0.7141     |  39.8 | 16.35
Output  | 0          | 0          | 0          |   0.0 |  0.00
Modify  | 1.4373e-05 | 0.0020652  | 0.0044258  |   2.1 |  0.14
Other   |            | 0.1737     |            |       | 11.79

Nlocal:        2776.45 ave        3959 max           0 min
Histogram: 8 4 4 0 4 12 8 2 28 34
Nghost:        3879.01 ave        5424 max         232 min
Histogram: 8 0 8 0 16 0 8 8 16 40
Neighs:        79213.5 ave      115391 max           0 min
Histogram: 8 4 4 0 10 6 8 8 24 32

Total # of neighbors = 8238204
Ave neighs/atom = 28.530478
Neighbor list builds = 0
Dangerous builds = 0
The dot product: 2.20954064015677e-07
Setting atom values ...
  1 settings made for x
  1 settings made for y
  1 settings made for z
Setting up cg style minimization ...
  Unit style    : metal
  Current step  : 1475
Per MPI rank memory allocation (min/avg/max) = 5.441 | 5.816 | 6.074 Mbytes
Step PotEng KinEng TotEng v_fx v_fy v_fz 
    1475   -1152449.4            0   -1152449.4 -0.0014012497 0.0053979875  0.016910978 
    1655   -1152449.4            0   -1152449.4 7.5349132e-07 -1.9089593e-07 2.2612394e-06 
Loop time of 2.11895 on 104 procs for 180 steps with 288751 atoms

99.9% CPU use with 104 MPI tasks x 1 OpenMP threads

Minimization stats:
  Stopping criterion = energy tolerance
  Energy initial, next-to-last, final = 
     -1152449.38171473  -1152449.38356305  -1152449.38356305
  Force two-norm initial, final = 0.18536356 0.00014865377
  Force max component initial, final = 0.090677683 1.9043204e-05
  Final line search alpha, max atom move = 1.0000000 1.9043204e-05
  Iterations, force evaluations = 180 360

MPI task timing breakdown:
Section |  min time  |  avg time  |  max time  |%varavg| %total
---------------------------------------------------------------
Pair    | 0.54719    | 1.5168     | 1.9783     |  33.3 | 71.58
Neigh   | 0          | 0          | 0          |   0.0 |  0.00
Comm    | 0.033816   | 0.34679    | 1.0222     |  48.2 | 16.37
Output  | 0          | 0          | 0          |   0.0 |  0.00
Modify  | 2.0222e-05 | 0.0029683  | 0.0063359  |   2.6 |  0.14
Other   |            | 0.2524     |            |       | 11.91

Nlocal:        2776.45 ave        3956 max           0 min
Histogram: 8 4 4 0 4 12 8 2 28 34
Nghost:        3879.01 ave        5424 max         232 min
Histogram: 8 0 8 0 16 0 8 8 16 40
Neighs:        79213.5 ave      115305 max           0 min
Histogram: 8 4 4 0 10 6 8 8 24 32

Total # of neighbors = 8238203
Ave neighs/atom = 28.530474
Neighbor list builds = 0
Dangerous builds = 0
The dot product: 1.68479921296932e-08
Setting atom values ...
  1 settings made for x
  1 settings made for y
  1 settings made for z
Setting up cg style minimization ...
  Unit style    : metal
  Current step  : 1655
Per MPI rank memory allocation (min/avg/max) = 5.441 | 5.816 | 6.074 Mbytes
Step PotEng KinEng TotEng v_fx v_fy v_fz 
    1655   -1152449.4            0   -1152449.4 0.0044569676  0.002984671  0.025334908 
    1862   -1152449.4            0   -1152449.4 -6.6887816e-07 -2.2711765e-06 -1.0237881e-05 
Loop time of 2.4629 on 104 procs for 207 steps with 288751 atoms

99.9% CPU use with 104 MPI tasks x 1 OpenMP threads

Minimization stats:
  Stopping criterion = energy tolerance
  Energy initial, next-to-last, final = 
     -1152449.36816261  -1152449.37002714  -1152449.37002714
  Force two-norm initial, final = 0.18425868 7.4178545e-05
  Force max component initial, final = 0.09392388 1.0625530e-05
  Final line search alpha, max atom move = 1.0000000 1.0625530e-05
  Iterations, force evaluations = 207 414

MPI task timing breakdown:
Section |  min time  |  avg time  |  max time  |%varavg| %total
---------------------------------------------------------------
Pair    | 0.62906    | 1.7427     | 2.3082     |  35.6 | 70.76
Neigh   | 0          | 0          | 0          |   0.0 |  0.00
Comm    | 0.044291   | 0.40215    | 1.1684     |  50.8 | 16.33
Output  | 0          | 0          | 0          |   0.0 |  0.00
Modify  | 2.6162e-05 | 0.003413   | 0.0072531  |   2.7 |  0.14
Other   |            | 0.3146     |            |       | 12.77

Nlocal:        2776.45 ave        3954 max           0 min
Histogram: 8 4 4 0 4 12 8 2 28 34
Nghost:        3879.01 ave        5424 max         232 min
Histogram: 8 0 8 0 16 0 8 8 16 40
Neighs:        79213.5 ave      115246 max           0 min
Histogram: 8 4 4 0 10 6 8 8 24 32

Total # of neighbors = 8238205
Ave neighs/atom = 28.530481
Neighbor list builds = 0
Dangerous builds = 0
The dot product: -8.3974243914365e-08
Setting atom values ...
  1 settings made for x
  1 settings made for y
  1 settings made for z
Setting up cg style minimization ...
  Unit style    : metal
  Current step  : 1862
Per MPI rank memory allocation (min/avg/max) = 5.441 | 5.816 | 6.074 Mbytes
Step PotEng KinEng TotEng v_fx v_fy v_fz 
    1862   -1152449.4            0   -1152449.4 0.0080605304  0.001980162  0.027762404 
    2000   -1152449.4            0   -1152449.4 1.8303101e-05 1.9149989e-05 0.00010681287 
    2068   -1152449.4            0   -1152449.4 2.6509007e-06 6.1747856e-06 2.5630053e-05 
Loop time of 2.41423 on 104 procs for 206 steps with 288751 atoms

99.9% CPU use with 104 MPI tasks x 1 OpenMP threads

Minimization stats:
  Stopping criterion = energy tolerance
  Energy initial, next-to-last, final = 
     -1152449.35354917  -1152449.35549694  -1152449.35549694
  Force two-norm initial, final = 0.18291332 9.3804602e-05
  Force max component initial, final = 0.097959313 2.5630053e-05
  Final line search alpha, max atom move = 1.0000000 2.5630053e-05
  Iterations, force evaluations = 206 412

MPI task timing breakdown:
Section |  min time  |  avg time  |  max time  |%varavg| %total
---------------------------------------------------------------
Pair    | 0.62747    | 1.7278     | 2.2441     |  35.4 | 71.57
Neigh   | 0          | 0          | 0          |   0.0 |  0.00
Comm    | 0.043795   | 0.39206    | 1.165      |  51.6 | 16.24
Output  | 0.00019752 | 0.00020466 | 0.00034553 |   0.0 |  0.01
Modify  | 2.479e-05  | 0.0033963  | 0.0072506  |   2.7 |  0.14
Other   |            | 0.2908     |            |       | 12.04

Nlocal:        2776.45 ave        3952 max           0 min
Histogram: 8 4 4 0 4 12 8 2 28 34
Nghost:        3879.04 ave        5424 max         232 min
Histogram: 8 0 8 0 16 0 8 8 16 40
Neighs:        79213.5 ave      115180 max           0 min
Histogram: 8 4 4 0 10 6 8 8 24 32

Total # of neighbors = 8238203
Ave neighs/atom = 28.530474
Neighbor list builds = 0
Dangerous builds = 0
The dot product: 2.38209477698161e-07
Setting atom values ...
  1 settings made for x
  1 settings made for y
  1 settings made for z
Setting up cg style minimization ...
  Unit style    : metal
  Current step  : 2068
Per MPI rank memory allocation (min/avg/max) = 5.441 | 5.816 | 6.074 Mbytes
Step PotEng KinEng TotEng v_fx v_fy v_fz 
    2068   -1152449.3            0   -1152449.3 0.0098161491 0.0017977046  0.026863977 
    2246   -1152449.3            0   -1152449.3 5.8874772e-06 6.7578887e-06 3.0802357e-05 
Loop time of 2.08553 on 104 procs for 178 steps with 288751 atoms

99.9% CPU use with 104 MPI tasks x 1 OpenMP threads

Minimization stats:
  Stopping criterion = energy tolerance
  Energy initial, next-to-last, final = 
     -1152449.33794132  -1152449.33978204  -1152449.33978204
  Force two-norm initial, final = 0.18116297 0.00019971485
  Force max component initial, final = 0.1019837 3.0802357e-05
  Final line search alpha, max atom move = 1.0000000 3.0802357e-05
  Iterations, force evaluations = 178 356

MPI task timing breakdown:
Section |  min time  |  avg time  |  max time  |%varavg| %total
---------------------------------------------------------------
Pair    | 0.53938    | 1.4984     | 1.9589     |  33.0 | 71.85
Neigh   | 0          | 0          | 0          |   0.0 |  0.00
Comm    | 0.040568   | 0.33874    | 1.0116     |  48.0 | 16.24
Output  | 0          | 0          | 0          |   0.0 |  0.00
Modify  | 2.142e-05  | 0.002936   | 0.0062427  |   2.5 |  0.14
Other   |            | 0.2455     |            |       | 11.77

Nlocal:        2776.45 ave        3950 max           0 min
Histogram: 8 4 4 0 4 12 8 2 26 36
Nghost:        3879.07 ave        5424 max         232 min
Histogram: 8 0 8 0 16 0 8 8 16 40
Neighs:        79213.5 ave      115135 max           0 min
Histogram: 8 4 4 0 10 6 8 8 24 32

Total # of neighbors = 8238207
Ave neighs/atom = 28.530488
Neighbor list builds = 0
Dangerous builds = 0
The dot product: 2.71056062372929e-07
Setting atom values ...
  1 settings made for x
  1 settings made for y
  1 settings made for z
Setting up cg style minimization ...
  Unit style    : metal
  Current step  : 2246
Per MPI rank memory allocation (min/avg/max) = 5.441 | 5.816 | 6.074 Mbytes
Step PotEng KinEng TotEng v_fx v_fy v_fz 
    2246   -1152449.3            0   -1152449.3 0.0085671278 0.0017787495  0.021063421 
    2445   -1152449.3            0   -1152449.3 3.2602878e-07 1.1377375e-06 3.2926402e-06 
Loop time of 2.32257 on 104 procs for 199 steps with 288751 atoms

99.9% CPU use with 104 MPI tasks x 1 OpenMP threads

Minimization stats:
  Stopping criterion = energy tolerance
  Energy initial, next-to-last, final = 
     -1152449.32099492  -1152449.32276883  -1152449.32276883
  Force two-norm initial, final = 0.1790675 9.6810381e-05
  Force max component initial, final = 0.10574481 1.0841791e-05
  Final line search alpha, max atom move = 1.0000000 1.0841791e-05
  Iterations, force evaluations = 199 398

MPI task timing breakdown:
Section |  min time  |  avg time  |  max time  |%varavg| %total
---------------------------------------------------------------
Pair    | 0.60116    | 1.6672     | 2.1837     |  34.9 | 71.78
Neigh   | 0          | 0          | 0          |   0.0 |  0.00
Comm    | 0.035237   | 0.3755     | 1.1178     |  51.0 | 16.17
Output  | 0          | 0          | 0          |   0.0 |  0.00
Modify  | 2.3922e-05 | 0.0032837  | 0.0070064  |   2.7 |  0.14
Other   |            | 0.2766     |            |       | 11.91

Nlocal:        2776.45 ave        3947 max           0 min
Histogram: 8 4 4 0 4 12 8 2 26 36
Nghost:        3879.08 ave        5424 max         232 min
Histogram: 8 0 8 0 16 0 8 8 16 40
Neighs:        79213.6 ave      115020 max           0 min
Histogram: 8 4 4 0 10 6 8 8 24 32

Total # of neighbors = 8238210
Ave neighs/atom = 28.530499
Neighbor list builds = 0
Dangerous builds = 0
The dot product: 2.46744839522298e-08
Setting atom values ...
  1 settings made for x
  1 settings made for y
  1 settings made for z
Setting up cg style minimization ...
  Unit style    : metal
  Current step  : 2445
Per MPI rank memory allocation (min/avg/max) = 5.441 | 5.816 | 6.074 Mbytes
Step PotEng KinEng TotEng v_fx v_fy v_fz 
    2445   -1152449.3            0   -1152449.3 0.0068439444 0.0018792904  0.016214298 
    2652   -1152449.3            0   -1152449.3 4.3146842e-06 5.1545926e-06 1.8753158e-05 
Loop time of 2.40651 on 104 procs for 207 steps with 288751 atoms

99.9% CPU use with 104 MPI tasks x 1 OpenMP threads

Minimization stats:
  Stopping criterion = energy tolerance
  Energy initial, next-to-last, final = 
      -1152449.3027019   -1152449.3044527   -1152449.3044527
  Force two-norm initial, final = 0.17736201 8.9739019e-05
  Force max component initial, final = 0.1089542 2.5152924e-05
  Final line search alpha, max atom move = 1.0000000 2.5152924e-05
  Iterations, force evaluations = 207 414

MPI task timing breakdown:
Section |  min time  |  avg time  |  max time  |%varavg| %total
---------------------------------------------------------------
Pair    | 0.6306     | 1.7415     | 2.2606     |  35.5 | 72.37
Neigh   | 0          | 0          | 0          |   0.0 |  0.00
Comm    | 0.044089   | 0.39219    | 1.1757     |  52.3 | 16.30
Output  | 0          | 0          | 0          |   0.0 |  0.00
Modify  | 2.4369e-05 | 0.0034182  | 0.0072802  |   2.7 |  0.14
Other   |            | 0.2694     |            |       | 11.19

Nlocal:        2776.45 ave        3943 max           0 min
Histogram: 8 4 4 0 4 12 8 2 26 36
Nghost:        3879.08 ave        5424 max         232 min
Histogram: 8 0 8 0 16 0 8 8 16 40
Neighs:        79213.6 ave      114877 max           0 min
Histogram: 8 4 4 0 10 6 8 8 22 34

Total # of neighbors = 8238211
Ave neighs/atom = 28.530502
Neighbor list builds = 0
Dangerous builds = 0
The dot product: 1.44461505045298e-07
Setting atom values ...
  1 settings made for x
  1 settings made for y
  1 settings made for z
Setting up cg style minimization ...
  Unit style    : metal
  Current step  : 2652
Per MPI rank memory allocation (min/avg/max) = 5.441 | 5.816 | 6.074 Mbytes
Step PotEng KinEng TotEng v_fx v_fy v_fz 
    2652   -1152449.3            0   -1152449.3 0.0060249928 0.0020762308  0.013991046 
    2901   -1152449.3            0   -1152449.3 -5.418568e-07 -1.2046974e-06 -3.3032007e-06 
Loop time of 2.90264 on 104 procs for 249 steps with 288751 atoms

99.9% CPU use with 104 MPI tasks x 1 OpenMP threads

Minimization stats:
  Stopping criterion = energy tolerance
  Energy initial, next-to-last, final = 
     -1152449.28312412  -1152449.28490944  -1152449.28490944
  Force two-norm initial, final = 0.17606078 1.4590197e-05
  Force max component initial, final = 0.11176556 3.3032007e-06
  Final line search alpha, max atom move = 1.0000000 3.3032007e-06
  Iterations, force evaluations = 249 498

MPI task timing breakdown:
Section |  min time  |  avg time  |  max time  |%varavg| %total
---------------------------------------------------------------
Pair    | 0.75609    | 2.0876     | 2.7146     |  38.9 | 71.92
Neigh   | 0          | 0          | 0          |   0.0 |  0.00
Comm    | 0.049948   | 0.47113    | 1.3955     |  57.0 | 16.23
Output  | 0          | 0          | 0          |   0.0 |  0.00
Modify  | 3.0298e-05 | 0.0041057  | 0.008745   |   3.0 |  0.14
Other   |            | 0.3398     |            |       | 11.71

Nlocal:        2776.45 ave        3938 max           0 min
Histogram: 8 4 4 0 4 12 8 2 26 36
Nghost:        3879.10 ave        5424 max         232 min
Histogram: 8 0 8 0 16 0 8 8 16 40
Neighs:        79213.6 ave      114712 max           0 min
Histogram: 8 4 4 0 9 7 8 8 22 34

Total # of neighbors = 8238215
Ave neighs/atom = 28.530516
Neighbor list builds = 0
Dangerous builds = 0
The dot product: -2.66654508702667e-08
Setting atom values ...
  1 settings made for x
  1 settings made for y
  1 settings made for z
Setting up cg style minimization ...
  Unit style    : metal
  Current step  : 2901
Per MPI rank memory allocation (min/avg/max) = 5.441 | 5.816 | 6.074 Mbytes
Step PotEng KinEng TotEng v_fx v_fy v_fz 
    2901   -1152449.3            0   -1152449.3 0.0065359209 0.0025471046   0.01460515 
    3000   -1152449.3            0   -1152449.3 -1.0580297e-05 2.3143661e-06 -1.1522383e-05 
    3135   -1152449.3            0   -1152449.3 -4.4230835e-07 -1.3647281e-06 -3.2332773e-06 
Loop time of 2.76212 on 104 procs for 234 steps with 288751 atoms

99.9% CPU use with 104 MPI tasks x 1 OpenMP threads

Minimization stats:
  Stopping criterion = energy tolerance
  Energy initial, next-to-last, final = 
     -1152449.26240118  -1152449.26418087  -1152449.26418087
  Force two-norm initial, final = 0.17498633 2.6265238e-05
  Force max component initial, final = 0.11432155 4.7053176e-06
  Final line search alpha, max atom move = 1.0000000 4.7053176e-06
  Iterations, force evaluations = 234 468

MPI task timing breakdown:
Section |  min time  |  avg time  |  max time  |%varavg| %total
---------------------------------------------------------------
Pair    | 0.72158    | 1.9761     | 2.5845     |  37.5 | 71.54
Neigh   | 0          | 0          | 0          |   0.0 |  0.00
Comm    | 0.053628   | 0.4518     | 1.3313     |  54.3 | 16.36
Output  | 0.00023756 | 0.00024073 | 0.00037125 |   0.0 |  0.01
Modify  | 2.928e-05  | 0.0038593  | 0.0082408  |   2.9 |  0.14
Other   |            | 0.3301     |            |       | 11.95

Nlocal:        2776.45 ave        3936 max           0 min
Histogram: 8 4 4 0 4 12 8 0 28 36
Nghost:        3879.12 ave        5424 max         232 min
Histogram: 8 0 8 0 16 0 8 8 16 40
Neighs:        79213.6 ave      114682 max           0 min
Histogram: 8 4 4 0 8 8 8 8 22 34

Total # of neighbors = 8238215
Ave neighs/atom = 28.530516
Neighbor list builds = 0
Dangerous builds = 0
The dot product: -2.72371276272115e-08
Setting atom values ...
  1 settings made for x
  1 settings made for y
  1 settings made for z
Setting up cg style minimization ...
  Unit style    : metal
  Current step  : 3135
Per MPI rank memory allocation (min/avg/max) = 5.441 | 5.816 | 6.074 Mbytes
Step PotEng KinEng TotEng v_fx v_fy v_fz 
    3135   -1152449.2            0   -1152449.2  0.007409392 0.0027286787  0.015129046 
    3331   -1152449.2            0   -1152449.2 4.4969743e-06 8.2154301e-06 2.0801606e-05 
Loop time of 2.27765 on 104 procs for 196 steps with 288751 atoms

99.9% CPU use with 104 MPI tasks x 1 OpenMP threads

Minimization stats:
  Stopping criterion = energy tolerance
  Energy initial, next-to-last, final = 
     -1152449.24048108   -1152449.2422858   -1152449.2422858
  Force two-norm initial, final = 0.17414356 0.00011142879
  Force max component initial, final = 0.1169215 2.4062206e-05
  Final line search alpha, max atom move = 1.0000000 2.4062206e-05
  Iterations, force evaluations = 196 392

MPI task timing breakdown:
Section |  min time  |  avg time  |  max time  |%varavg| %total
---------------------------------------------------------------
Pair    | 0.59437    | 1.6465     | 2.137      |  34.6 | 72.29
Neigh   | 0          | 0          | 0          |   0.0 |  0.00
Comm    | 0.033931   | 0.37293    | 1.1116     |  50.8 | 16.37
Output  | 0          | 0          | 0          |   0.0 |  0.00
Modify  | 2.2633e-05 | 0.0032313  | 0.0069067  |   2.7 |  0.14
Other   |            | 0.255      |            |       | 11.20

Nlocal:        2776.45 ave        3936 max           0 min
Histogram: 8 4 4 0 4 12 8 0 28 36
Nghost:        3879.15 ave        5425 max         232 min
Histogram: 8 0 8 0 16 0 8 8 16 40
Neighs:        79213.6 ave      114680 max           0 min
Histogram: 8 4 4 0 8 8 8 8 22 34

Total # of neighbors = 8238215
Ave neighs/atom = 28.530516
Neighbor list builds = 0
Dangerous builds = 0
The dot product: 2.01434609501717e-07
Setting atom values ...
  1 settings made for x
  1 settings made for y
  1 settings made for z
Setting up cg style minimization ...
  Unit style    : metal
  Current step  : 3331
Per MPI rank memory allocation (min/avg/max) = 5.441 | 5.816 | 6.074 Mbytes
Step PotEng KinEng TotEng v_fx v_fy v_fz 
    3331   -1152449.2            0   -1152449.2 0.0099718376 0.0028726037  0.017605313 
    3591   -1152449.2            0   -1152449.2 1.5977762e-07 7.173931e-07 1.4011843e-06 
Loop time of 3.05884 on 104 procs for 260 steps with 288751 atoms

99.9% CPU use with 104 MPI tasks x 1 OpenMP threads

Minimization stats:
  Stopping criterion = energy tolerance
  Energy initial, next-to-last, final = 
     -1152449.21746504  -1152449.21945129  -1152449.21945129
  Force two-norm initial, final = 0.17368188 9.4059723e-06
  Force max component initial, final = 0.119491 1.4011843e-06
  Final line search alpha, max atom move = 1.0000000 1.4011843e-06
  Iterations, force evaluations = 260 520

MPI task timing breakdown:
Section |  min time  |  avg time  |  max time  |%varavg| %total
---------------------------------------------------------------
Pair    | 0.78649    | 2.1907     | 2.8724     |  39.9 | 71.62
Neigh   | 0          | 0          | 0          |   0.0 |  0.00
Comm    | 0.046939   | 0.50086    | 1.4819     |  57.4 | 16.37
Output  | 0          | 0          | 0          |   0.0 |  0.00
Modify  | 2.9448e-05 | 0.0042839  | 0.0091716  |   3.1 |  0.14
Other   |            | 0.3629     |            |       | 11.87

Nlocal:        2776.45 ave        3935 max           0 min
Histogram: 8 4 4 0 4 12 8 0 28 36
Nghost:        3879.15 ave        5425 max         232 min
Histogram: 8 0 8 0 16 0 8 8 16 40
Neighs:        79213.6 ave      114656 max           0 min
Histogram: 8 4 4 0 8 8 8 8 22 34

Total # of neighbors = 8238212
Ave neighs/atom = 28.530506
Neighbor list builds = 0
Dangerous builds = 0
The dot product: 1.72804587978786e-08
Setting atom values ...
  1 settings made for x
  1 settings made for y
  1 settings made for z
Setting up cg style minimization ...
  Unit style    : metal
  Current step  : 3591
Per MPI rank memory allocation (min/avg/max) = 5.441 | 5.816 | 6.074 Mbytes
Step PotEng KinEng TotEng v_fx v_fy v_fz 
    3591   -1152449.2            0   -1152449.2  0.016447354 0.0036551742  0.024890933 
    3761   -1152449.2            0   -1152449.2 -2.1951243e-06 6.1782043e-06 7.0246599e-06 
Loop time of 2.00295 on 104 procs for 170 steps with 288751 atoms

99.9% CPU use with 104 MPI tasks x 1 OpenMP threads

Minimization stats:
  Stopping criterion = energy tolerance
  Energy initial, next-to-last, final = 
     -1152449.19382022  -1152449.19600384  -1152449.19600384
  Force two-norm initial, final = 0.17402413 0.00020970293
  Force max component initial, final = 0.12195838 2.6557942e-05
  Final line search alpha, max atom move = 1.0000000 2.6557942e-05
  Iterations, force evaluations = 170 340

MPI task timing breakdown:
Section |  min time  |  avg time  |  max time  |%varavg| %total
---------------------------------------------------------------
Pair    | 0.5196     | 1.4332     | 1.8765     |  32.3 | 71.56
Neigh   | 0          | 0          | 0          |   0.0 |  0.00
Comm    | 0.031661   | 0.32486    | 0.96178    |  47.2 | 16.22
Output  | 0          | 0          | 0          |   0.0 |  0.00
Modify  | 1.9529e-05 | 0.0028044  | 0.0059998  |   2.5 |  0.14
Other   |            | 0.2421     |            |       | 12.08

Nlocal:        2776.45 ave        3935 max           0 min
Histogram: 8 4 4 0 4 12 8 0 28 36
Nghost:        3879.16 ave        5425 max         232 min
Histogram: 8 0 8 0 16 0 8 8 16 40
Neighs:        79213.6 ave      114654 max           0 min
Histogram: 8 4 4 0 8 8 8 8 22 34

Total # of neighbors = 8238212
Ave neighs/atom = 28.530506
Neighbor list builds = 0
Dangerous builds = 0
The dot product: 8.63293538984646e-08
Setting atom values ...
  1 settings made for x
  1 settings made for y
  1 settings made for z
Setting up cg style minimization ...
  Unit style    : metal
  Current step  : 3761
Per MPI rank memory allocation (min/avg/max) = 5.441 | 5.816 | 6.074 Mbytes
Step PotEng KinEng TotEng v_fx v_fy v_fz 
    3761   -1152449.2            0   -1152449.2  0.021977054 0.0047155108  0.029837671 
    3943   -1152449.2            0   -1152449.2 5.2881507e-06 8.1837275e-06 1.7312207e-05 
Loop time of 2.11879 on 104 procs for 182 steps with 288751 atoms

99.9% CPU use with 104 MPI tasks x 1 OpenMP threads

Minimization stats:
  Stopping criterion = energy tolerance
  Energy initial, next-to-last, final = 
     -1152449.16972037    -1152449.171851    -1152449.171851
  Force two-norm initial, final = 0.17451266 0.0001312051
  Force max component initial, final = 0.12447206 2.2286909e-05
  Final line search alpha, max atom move = 1.0000000 2.2286909e-05
  Iterations, force evaluations = 182 364

MPI task timing breakdown:
Section |  min time  |  avg time  |  max time  |%varavg| %total
---------------------------------------------------------------
Pair    | 0.54819    | 1.5274     | 1.9971     |  33.3 | 72.09
Neigh   | 0          | 0          | 0          |   0.0 |  0.00
Comm    | 0.03333    | 0.34412    | 1.0233     |  48.6 | 16.24
Output  | 0          | 0          | 0          |   0.0 |  0.00
Modify  | 2.1502e-05 | 0.0029989  | 0.0064036  |   2.6 |  0.14
Other   |            | 0.2443     |            |       | 11.53

Nlocal:        2776.45 ave        3935 max           0 min
Histogram: 8 4 4 0 4 12 8 0 28 36
Nghost:        3879.14 ave        5425 max         232 min
Histogram: 8 0 8 0 16 0 8 8 16 40
Neighs:        79213.6 ave      114647 max           0 min
Histogram: 8 4 4 0 8 8 8 8 22 34

Total # of neighbors = 8238216
Ave neighs/atom = 28.530519
Neighbor list builds = 0
Dangerous builds = 0
The dot product: 2.79180479948414e-07
Setting atom values ...
  1 settings made for x
  1 settings made for y
  1 settings made for z
Setting up cg style minimization ...
  Unit style    : metal
  Current step  : 3943
Per MPI rank memory allocation (min/avg/max) = 5.441 | 5.816 | 6.074 Mbytes
Step PotEng KinEng TotEng v_fx v_fy v_fz 
    3943   -1152449.1            0   -1152449.1  0.022275551  0.004709877  0.027492461 
    4000   -1152449.1            0   -1152449.1 -1.470053e-05 -6.7133618e-05 -0.00010412563 
    4108   -1152449.1            0   -1152449.1 -9.5695482e-06 -2.6745274e-05 -4.5010781e-05 
Loop time of 1.91688 on 104 procs for 165 steps with 288751 atoms

99.9% CPU use with 104 MPI tasks x 1 OpenMP threads

Minimization stats:
  Stopping criterion = energy tolerance
  Energy initial, next-to-last, final = 
     -1152449.14469636  -1152449.14670648  -1152449.14670648
  Force two-norm initial, final = 0.1740373 0.00022056234
  Force max component initial, final = 0.12740386 4.5010781e-05
  Final line search alpha, max atom move = 1.0000000 4.5010781e-05
  Iterations, force evaluations = 165 330

MPI task timing breakdown:
Section |  min time  |  avg time  |  max time  |%varavg| %total
---------------------------------------------------------------
Pair    | 0.50028    | 1.3853     | 1.8005     |  31.8 | 72.27
Neigh   | 0          | 0          | 0          |   0.0 |  0.00
Comm    | 0.028876   | 0.31099    | 0.92704    |  46.7 | 16.22
Output  | 0.00015441 | 0.00015706 | 0.00026609 |   0.0 |  0.01
Modify  | 1.9418e-05 | 0.0027223  | 0.0057939  |   2.4 |  0.14
Other   |            | 0.2177     |            |       | 11.36

Nlocal:        2776.45 ave        3936 max           0 min
Histogram: 8 4 4 0 4 12 8 0 28 36
Nghost:        3879.16 ave        5426 max         232 min
Histogram: 8 0 8 0 16 0 8 8 16 40
Neighs:        79213.6 ave      114666 max           0 min
Histogram: 8 4 4 0 8 8 8 8 22 34

Total # of neighbors = 8238215
Ave neighs/atom = 28.530516
Neighbor list builds = 0
Dangerous builds = 0
The dot product: -6.45511018030864e-07
Setting atom values ...
  1 settings made for x
  1 settings made for y
  1 settings made for z
Setting up cg style minimization ...
  Unit style    : metal
  Current step  : 4108
Per MPI rank memory allocation (min/avg/max) = 5.441 | 5.816 | 6.074 Mbytes
Step PotEng KinEng TotEng v_fx v_fy v_fz 
    4108   -1152449.1            0   -1152449.1  0.019784014 0.0043449941  0.022788855 
    4333   -1152449.1            0   -1152449.1 -1.3796186e-07 4.0565191e-07 3.9409575e-07 
Loop time of 2.67257 on 104 procs for 225 steps with 288751 atoms

99.9% CPU use with 104 MPI tasks x 1 OpenMP threads

Minimization stats:
  Stopping criterion = energy tolerance
  Energy initial, next-to-last, final = 
     -1152449.11855931  -1152449.12039387  -1152449.12039387
  Force two-norm initial, final = 0.17335757 3.0367659e-05
  Force max component initial, final = 0.13023834 2.5515667e-06
  Final line search alpha, max atom move = 1.0000000 2.5515667e-06
  Iterations, force evaluations = 225 450

MPI task timing breakdown:
Section |  min time  |  avg time  |  max time  |%varavg| %total
---------------------------------------------------------------
Pair    | 0.68308    | 1.8961     | 2.4923     |  37.1 | 70.95
Neigh   | 0          | 0          | 0          |   0.0 |  0.00
Comm    | 0.047376   | 0.43514    | 1.2681     |  53.3 | 16.28
Output  | 0          | 0          | 0          |   0.0 |  0.00
Modify  | 2.625e-05  | 0.0037116  | 0.0078967  |   2.9 |  0.14
Other   |            | 0.3376     |            |       | 12.63

Nlocal:        2776.45 ave        3936 max           0 min
Histogram: 8 4 4 0 4 12 8 0 28 36
Nghost:        3879.16 ave        5426 max         232 min
Histogram: 8 0 8 0 16 0 8 8 16 40
Neighs:        79213.6 ave      114666 max           0 min
Histogram: 8 4 4 0 8 8 8 8 22 34

Total # of neighbors = 8238212
Ave neighs/atom = 28.530506
Neighbor list builds = 0
Dangerous builds = 0
The dot product: 3.84847856531397e-09
Setting atom values ...
  1 settings made for x
  1 settings made for y
  1 settings made for z
Setting up cg style minimization ...
  Unit style    : metal
  Current step  : 4333
Per MPI rank memory allocation (min/avg/max) = 5.441 | 5.816 | 6.074 Mbytes
Step PotEng KinEng TotEng v_fx v_fy v_fz 
    4333   -1152449.1            0   -1152449.1  0.015612135 0.0034653465  0.016952053 
    4505   -1152449.1            0   -1152449.1 -7.0579182e-06 -2.637662e-05 -3.7741747e-05 
Loop time of 2.00228 on 104 procs for 172 steps with 288751 atoms

99.9% CPU use with 104 MPI tasks x 1 OpenMP threads

Minimization stats:
  Stopping criterion = energy tolerance
  Energy initial, next-to-last, final = 
     -1152449.09109335  -1152449.09280793  -1152449.09280793
  Force two-norm initial, final = 0.17299865 0.00019038569
  Force max component initial, final = 0.1329855 3.7741747e-05
  Final line search alpha, max atom move = 1.0000000 3.7741747e-05
  Iterations, force evaluations = 172 344

MPI task timing breakdown:
Section |  min time  |  avg time  |  max time  |%varavg| %total
---------------------------------------------------------------
Pair    | 0.52267    | 1.4437     | 1.8747     |  32.4 | 72.10
Neigh   | 0          | 0          | 0          |   0.0 |  0.00
Comm    | 0.031244   | 0.32388    | 0.96487    |  47.5 | 16.18
Output  | 0          | 0          | 0          |   0.0 |  0.00
Modify  | 1.9763e-05 | 0.0028378  | 0.0060318  |   2.5 |  0.14
Other   |            | 0.2318     |            |       | 11.58

Nlocal:        2776.45 ave        3936 max           0 min
Histogram: 8 4 4 0 4 12 8 0 28 36
Nghost:        3879.16 ave        5426 max         232 min
Histogram: 8 0 8 0 16 0 8 8 16 40
Neighs:        79213.6 ave      114667 max           0 min
Histogram: 8 4 4 0 8 8 8 8 22 34

Total # of neighbors = 8238212
Ave neighs/atom = 28.530506
Neighbor list builds = 0
Dangerous builds = 0
The dot product: -3.90850511065474e-07
Setting atom values ...
  1 settings made for x
  1 settings made for y
  1 settings made for z
Setting up cg style minimization ...
  Unit style    : metal
  Current step  : 4505
Per MPI rank memory allocation (min/avg/max) = 5.441 | 5.816 | 6.074 Mbytes
Step PotEng KinEng TotEng v_fx v_fy v_fz 
    4505   -1152449.1            0   -1152449.1  0.011133248 0.0025598604  0.011631528 
    4719   -1152449.1            0   -1152449.1 -1.283835e-06 -6.7710628e-06 -8.914854e-06 
Loop time of 2.5071 on 104 procs for 214 steps with 288751 atoms

99.9% CPU use with 104 MPI tasks x 1 OpenMP threads

Minimization stats:
  Stopping criterion = energy tolerance
  Energy initial, next-to-last, final = 
      -1152449.0622942  -1152449.06394029  -1152449.06394029
  Force two-norm initial, final = 0.17320212 5.6978937e-05
  Force max component initial, final = 0.13560894 1.2007208e-05
  Final line search alpha, max atom move = 1.0000000 1.2007208e-05
  Iterations, force evaluations = 214 428

MPI task timing breakdown:
Section |  min time  |  avg time  |  max time  |%varavg| %total
---------------------------------------------------------------
Pair    | 0.64553    | 1.806      | 2.3519     |  36.3 | 72.03
Neigh   | 0          | 0          | 0          |   0.0 |  0.00
Comm    | 0.046036   | 0.41022    | 1.2205     |  52.8 | 16.36
Output  | 0          | 0          | 0          |   0.0 |  0.00
Modify  | 2.5014e-05 | 0.0035323  | 0.0076018  |   2.8 |  0.14
Other   |            | 0.2874     |            |       | 11.46

Nlocal:        2776.45 ave        3936 max           0 min
Histogram: 8 4 4 0 4 12 8 0 28 36
Nghost:        3879.16 ave        5426 max         232 min
Histogram: 8 0 8 0 16 0 8 8 16 40
Neighs:        79213.6 ave      114667 max           0 min
Histogram: 8 4 4 0 8 8 8 8 22 34

Total # of neighbors = 8238214
Ave neighs/atom = 28.530512
Neighbor list builds = 0
Dangerous builds = 0
The dot product: -7.84818904271434e-08
Setting atom values ...
  1 settings made for x
  1 settings made for y
  1 settings made for z
Setting up cg style minimization ...
  Unit style    : metal
  Current step  : 4719
Per MPI rank memory allocation (min/avg/max) = 5.441 | 5.816 | 6.074 Mbytes
Step PotEng KinEng TotEng v_fx v_fy v_fz 
    4719     -1152449            0     -1152449 0.0071345859  0.001947895 0.0075352047 
    4884     -1152449            0     -1152449 8.7059116e-06 2.0545772e-05 2.9828032e-05 
Loop time of 1.95587 on 104 procs for 165 steps with 288751 atoms

99.9% CPU use with 104 MPI tasks x 1 OpenMP threads

Minimization stats:
  Stopping criterion = energy tolerance
  Energy initial, next-to-last, final = 
      -1152449.0322093  -1152449.03383989  -1152449.03383989
  Force two-norm initial, final = 0.17381556 0.0002405546
  Force max component initial, final = 0.13795754 3.0464639e-05
  Final line search alpha, max atom move = 1.0000000 3.0464639e-05
  Iterations, force evaluations = 165 330

MPI task timing breakdown:
Section |  min time  |  avg time  |  max time  |%varavg| %total
---------------------------------------------------------------
Pair    | 0.49937    | 1.3869     | 1.8125     |  31.7 | 70.91
Neigh   | 0          | 0          | 0          |   0.0 |  0.00
Comm    | 0.029819   | 0.31877    | 0.95131    |  45.7 | 16.30
Output  | 0          | 0          | 0          |   0.0 |  0.00
Modify  | 1.9084e-05 | 0.0027248  | 0.0058275  |   2.5 |  0.14
Other   |            | 0.2475     |            |       | 12.66

Nlocal:        2776.45 ave        3936 max           0 min
Histogram: 8 4 4 0 4 12 8 0 28 36
Nghost:        3879.18 ave        5426 max         232 min
Histogram: 8 0 8 0 16 0 8 8 16 40
Neighs:        79213.6 ave      114668 max           0 min
Histogram: 8 4 4 0 8 8 8 8 22 34

Total # of neighbors = 8238218
Ave neighs/atom = 28.530526
Neighbor list builds = 0
Dangerous builds = 0
The dot product: 2.4132942849032e-07
Setting atom values ...
  1 settings made for x
  1 settings made for y
  1 settings made for z
Setting up cg style minimization ...
  Unit style    : metal
  Current step  : 4884
Per MPI rank memory allocation (min/avg/max) = 5.441 | 5.816 | 6.074 Mbytes
Step PotEng KinEng TotEng v_fx v_fy v_fz 
    4884     -1152449            0     -1152449 0.0041608621 0.0014735724 0.0046422478 
    5000     -1152449            0     -1152449 -1.677845e-05 -8.4327793e-05 -0.00010552309 
    5089     -1152449            0     -1152449 3.5604729e-06 9.2100687e-06 1.2775173e-05 
Loop time of 2.37896 on 104 procs for 205 steps with 288751 atoms

99.9% CPU use with 104 MPI tasks x 1 OpenMP threads

Minimization stats:
  Stopping criterion = energy tolerance
  Energy initial, next-to-last, final = 
     -1152449.00097652  -1152449.00262138  -1152449.00262138
  Force two-norm initial, final = 0.17458748 8.8356996e-05
  Force max component initial, final = 0.14002767 1.2775173e-05
  Final line search alpha, max atom move = 1.0000000 1.2775173e-05
  Iterations, force evaluations = 205 410

MPI task timing breakdown:
Section |  min time  |  avg time  |  max time  |%varavg| %total
---------------------------------------------------------------
Pair    | 0.62043    | 1.7247     | 2.2356     |  35.3 | 72.50
Neigh   | 0          | 0          | 0          |   0.0 |  0.00
Comm    | 0.040524   | 0.39147    | 1.1658     |  51.6 | 16.46
Output  | 0.00021198 | 0.00022078 | 0.00035727 |   0.0 |  0.01
Modify  | 2.3567e-05 | 0.0033803  | 0.0072611  |   2.7 |  0.14
Other   |            | 0.2592     |            |       | 10.89

Nlocal:        2776.45 ave        3936 max           0 min
Histogram: 8 4 4 0 4 12 8 0 28 36
Nghost:        3879.18 ave        5426 max         232 min
Histogram: 8 0 8 0 16 0 8 8 16 40
Neighs:        79213.6 ave      114650 max           0 min
Histogram: 8 4 4 0 8 8 8 8 22 34

Total # of neighbors = 8238218
Ave neighs/atom = 28.530526
Neighbor list builds = 0
Dangerous builds = 0
The dot product: 9.4097298732375e-08
Setting atom values ...
  1 settings made for x
  1 settings made for y
  1 settings made for z
Setting up cg style minimization ...
  Unit style    : metal
  Current step  : 5089
Per MPI rank memory allocation (min/avg/max) = 5.441 | 5.816 | 6.074 Mbytes
Step PotEng KinEng TotEng v_fx v_fy v_fz 
    5089     -1152449            0     -1152449 0.0019491461  0.000818382 0.0022620118 
    5401     -1152449            0     -1152449 -1.1603381e-07 -2.9220997e-07 -3.9836815e-07 
Loop time of 3.62617 on 104 procs for 312 steps with 288751 atoms

99.9% CPU use with 104 MPI tasks x 1 OpenMP threads

Minimization stats:
  Stopping criterion = energy tolerance
  Energy initial, next-to-last, final = 
     -1152448.96868774  -1152448.97033983  -1152448.97033983
  Force two-norm initial, final = 0.17545733 2.6785265e-06
  Force max component initial, final = 0.14192285 3.9836815e-07
  Final line search alpha, max atom move = 1.0000000 3.9836815e-07
  Iterations, force evaluations = 312 624

MPI task timing breakdown:
Section |  min time  |  avg time  |  max time  |%varavg| %total
---------------------------------------------------------------
Pair    | 0.94392    | 2.62       | 3.4128     |  43.8 | 72.25
Neigh   | 0          | 0          | 0          |   0.0 |  0.00
Comm    | 0.059267   | 0.59157    | 1.7632     |  64.3 | 16.31
Output  | 0          | 0          | 0          |   0.0 |  0.00
Modify  | 3.6865e-05 | 0.0051441  | 0.011007   |   3.4 |  0.14
Other   |            | 0.4094     |            |       | 11.29

Nlocal:        2776.45 ave        3936 max           0 min
Histogram: 8 4 4 0 4 12 8 0 28 36
Nghost:        3879.18 ave        5426 max         232 min
Histogram: 8 0 8 0 16 0 8 8 16 40
Neighs:        79213.6 ave      114650 max           0 min
Histogram: 8 4 4 0 8 8 8 8 22 34

Total # of neighbors = 8238219
Ave neighs/atom = 28.530530
Neighbor list builds = 0
Dangerous builds = 0
The dot product: -2.73242646259358e-09
Setting atom values ...
  1 settings made for x
  1 settings made for y
  1 settings made for z
Setting up cg style minimization ...
  Unit style    : metal
  Current step  : 5401
Per MPI rank memory allocation (min/avg/max) = 5.441 | 5.816 | 6.074 Mbytes
Step PotEng KinEng TotEng v_fx v_fy v_fz 
    5401   -1152448.9            0   -1152448.9 0.00041378155 -4.4284062e-05 0.00023906574 
    5584   -1152448.9            0   -1152448.9 7.5447434e-06 2.2012584e-05 2.8584066e-05 
Loop time of 2.15747 on 104 procs for 183 steps with 288751 atoms

99.9% CPU use with 104 MPI tasks x 1 OpenMP threads

Minimization stats:
  Stopping criterion = energy tolerance
  Energy initial, next-to-last, final = 
     -1152448.93541934  -1152448.93713381  -1152448.93713381
  Force two-norm initial, final = 0.17632736 0.00019871119
  Force max component initial, final = 0.14362648 2.8584066e-05
  Final line search alpha, max atom move = 1.0000000 2.8584066e-05
  Iterations, force evaluations = 183 366

MPI task timing breakdown:
Section |  min time  |  avg time  |  max time  |%varavg| %total
---------------------------------------------------------------
Pair    | 0.55643    | 1.5415     | 2.0293     |  33.3 | 71.45
Neigh   | 0          | 0          | 0          |   0.0 |  0.00
Comm    | 0.037657   | 0.35131    | 1.0355     |  48.4 | 16.28
Output  | 0          | 0          | 0          |   0.0 |  0.00
Modify  | 2.0938e-05 | 0.0030189  | 0.0064252  |   2.6 |  0.14
Other   |            | 0.2617     |            |       | 12.13

Nlocal:        2776.45 ave        3937 max           0 min
Histogram: 8 4 4 0 4 12 8 0 28 36
Nghost:        3879.18 ave        5426 max         232 min
Histogram: 8 0 8 0 16 0 8 8 16 40
Neighs:        79213.6 ave      114669 max           0 min
Histogram: 8 4 4 0 8 8 8 8 22 34

Total # of neighbors = 8238216
Ave neighs/atom = 28.530519
Neighbor list builds = 0
Dangerous builds = 0
The dot product: 1.88193987791136e-07
Setting atom values ...
  1 settings made for x
  1 settings made for y
  1 settings made for z
Setting up cg style minimization ...
  Unit style    : metal
  Current step  : 5584
Per MPI rank memory allocation (min/avg/max) = 5.441 | 5.816 | 6.074 Mbytes
Step PotEng KinEng TotEng v_fx v_fy v_fz 
    5584   -1152448.9            0   -1152448.9 -0.00057869913 -0.00095639295 -0.0013895967 
    5765   -1152448.9            0   -1152448.9 9.2850966e-07 8.6469149e-06 9.6410971e-06 
Loop time of 2.11376 on 104 procs for 181 steps with 288751 atoms

99.9% CPU use with 104 MPI tasks x 1 OpenMP threads

Minimization stats:
  Stopping criterion = energy tolerance
  Energy initial, next-to-last, final = 
     -1152448.90134424  -1152448.90298923  -1152448.90298923
  Force two-norm initial, final = 0.17701398 0.0001775742
  Force max component initial, final = 0.14500721 2.5163758e-05
  Final line search alpha, max atom move = 1.0000000 2.5163758e-05
  Iterations, force evaluations = 181 362

MPI task timing breakdown:
Section |  min time  |  avg time  |  max time  |%varavg| %total
---------------------------------------------------------------
Pair    | 0.54822    | 1.5225     | 1.9869     |  33.4 | 72.03
Neigh   | 0          | 0          | 0          |   0.0 |  0.00
Comm    | 0.031384   | 0.3432     | 1.0223     |  48.9 | 16.24
Output  | 0          | 0          | 0          |   0.0 |  0.00
Modify  | 2.0408e-05 | 0.002985   | 0.006371   |   2.6 |  0.14
Other   |            | 0.245      |            |       | 11.59

Nlocal:        2776.45 ave        3937 max           0 min
Histogram: 8 4 4 0 4 12 8 0 28 36
Nghost:        3879.17 ave        5426 max         232 min
Histogram: 8 0 8 0 16 0 8 8 16 40
Neighs:        79213.6 ave      114671 max           0 min
Histogram: 8 4 4 0 8 8 8 8 22 34

Total # of neighbors = 8238214
Ave neighs/atom = 28.530512
Neighbor list builds = 0
Dangerous builds = 0
The dot product: 5.49487120439222e-08
Setting atom values ...
  1 settings made for x
  1 settings made for y
  1 settings made for z
Setting up cg style minimization ...
  Unit style    : metal
  Current step  : 5765
Per MPI rank memory allocation (min/avg/max) = 5.441 | 5.816 | 6.074 Mbytes
Step PotEng KinEng TotEng v_fx v_fy v_fz 
    5765   -1152448.9            0   -1152448.9 -0.0019263114 -0.0029080225 -0.0042741919 
    5943   -1152448.9            0   -1152448.9 2.5208882e-06 1.1667582e-05 1.3661208e-05 
Loop time of 2.08216 on 104 procs for 178 steps with 288751 atoms

99.9% CPU use with 104 MPI tasks x 1 OpenMP threads

Minimization stats:
  Stopping criterion = energy tolerance
  Energy initial, next-to-last, final = 
     -1152448.86618399  -1152448.86779225  -1152448.86779225
  Force two-norm initial, final = 0.17820399 0.00017950628
  Force max component initial, final = 0.14665941 2.2102105e-05
  Final line search alpha, max atom move = 1.0000000 2.2102105e-05
  Iterations, force evaluations = 178 356

MPI task timing breakdown:
Section |  min time  |  avg time  |  max time  |%varavg| %total
---------------------------------------------------------------
Pair    | 0.53763    | 1.4967     | 1.9632     |  33.0 | 71.88
Neigh   | 0          | 0          | 0          |   0.0 |  0.00
Comm    | 0.030756   | 0.33818    | 1.0032     |  47.9 | 16.24
Output  | 0          | 0          | 0          |   0.0 |  0.00
Modify  | 2.1037e-05 | 0.0029341  | 0.0062618  |   2.5 |  0.14
Other   |            | 0.2443     |            |       | 11.73

Nlocal:        2776.45 ave        3937 max           0 min
Histogram: 8 4 4 0 4 12 8 0 28 36
Nghost:        3879.10 ave        5425 max         232 min
Histogram: 8 0 8 0 16 0 8 8 16 40
Neighs:        79213.6 ave      114672 max           0 min
Histogram: 8 4 4 0 8 8 8 8 22 34

Total # of neighbors = 8238213
Ave neighs/atom = 28.530509
Neighbor list builds = 0
Dangerous builds = 0
The dot product: 6.38241018354441e-08
Setting atom values ...
  1 settings made for x
  1 settings made for y
  1 settings made for z
Setting up cg style minimization ...
  Unit style    : metal
  Current step  : 5943
Per MPI rank memory allocation (min/avg/max) = 5.441 | 5.816 | 6.074 Mbytes
Step PotEng KinEng TotEng v_fx v_fy v_fz 
    5943   -1152448.8            0   -1152448.8 -0.0031161416 -0.0051255842 -0.0072613121 
    6000   -1152448.8            0   -1152448.8 -8.7763691e-05 -0.0002425085 -0.00030400248 
    6119   -1152448.8            0   -1152448.8 -2.1849821e-05 -4.6646552e-05 -6.1768378e-05 
Loop time of 2.04319 on 104 procs for 176 steps with 288751 atoms

99.9% CPU use with 104 MPI tasks x 1 OpenMP threads

Minimization stats:
  Stopping criterion = energy tolerance
  Energy initial, next-to-last, final = 
     -1152448.82993801  -1152448.83163791  -1152448.83163791
  Force two-norm initial, final = 0.17951803 0.00028214171
  Force max component initial, final = 0.1482842 6.5211323e-05
  Final line search alpha, max atom move = 1.0000000 6.5211323e-05
  Iterations, force evaluations = 176 352

MPI task timing breakdown:
Section |  min time  |  avg time  |  max time  |%varavg| %total
---------------------------------------------------------------
Pair    | 0.53229    | 1.4731     | 1.9257     |  32.8 | 72.10
Neigh   | 0          | 0          | 0          |   0.0 |  0.00
Comm    | 0.031124   | 0.33096    | 0.98563    |  48.0 | 16.20
Output  | 0.00015245 | 0.00016277 | 0.00027364 |   0.0 |  0.01
Modify  | 2.0374e-05 | 0.0029001  | 0.0061818  |   2.5 |  0.14
Other   |            | 0.236      |            |       | 11.55

Nlocal:        2776.45 ave        3937 max           0 min
Histogram: 8 4 4 0 4 12 8 0 28 36
Nghost:        3879.10 ave        5425 max         232 min
Histogram: 8 0 8 0 16 0 8 8 16 40
Neighs:        79213.6 ave      114664 max           0 min
Histogram: 8 4 4 0 8 8 8 8 22 34

Total # of neighbors = 8238216
Ave neighs/atom = 28.530519
Neighbor list builds = 0
Dangerous builds = 0
The dot product: -2.61188028318165e-07
Setting atom values ...
  1 settings made for x
  1 settings made for y
  1 settings made for z
Setting up cg style minimization ...
  Unit style    : metal
  Current step  : 6119
Per MPI rank memory allocation (min/avg/max) = 5.441 | 5.816 | 6.074 Mbytes
Step PotEng KinEng TotEng v_fx v_fy v_fz 
    6119   -1152448.8            0   -1152448.8 -0.0037098208 -0.0068541993 -0.0093099567 
    6296   -1152448.8            0   -1152448.8 -2.0618812e-06 -1.9050915e-05 -2.0454905e-05 
Loop time of 2.08964 on 104 procs for 177 steps with 288751 atoms

99.9% CPU use with 104 MPI tasks x 1 OpenMP threads

Minimization stats:
  Stopping criterion = energy tolerance
  Energy initial, next-to-last, final = 
     -1152448.79296453  -1152448.79459259  -1152448.79459259
  Force two-norm initial, final = 0.18012933 0.00020812047
  Force max component initial, final = 0.14935722 4.9487789e-05
  Final line search alpha, max atom move = 1.0000000 4.9487789e-05
  Iterations, force evaluations = 177 354

MPI task timing breakdown:
Section |  min time  |  avg time  |  max time  |%varavg| %total
---------------------------------------------------------------
Pair    | 0.53559    | 1.4933     | 1.9622     |  33.0 | 71.46
Neigh   | 0          | 0          | 0          |   0.0 |  0.00
Comm    | 0.037101   | 0.34105    | 1.0019     |  47.4 | 16.32
Output  | 0          | 0          | 0          |   0.0 |  0.00
Modify  | 2.0521e-05 | 0.0029221  | 0.0062361  |   2.5 |  0.14
Other   |            | 0.2523     |            |       | 12.08

Nlocal:        2776.45 ave        3938 max           0 min
Histogram: 8 4 4 0 4 12 8 2 26 36
Nghost:        3879.08 ave        5425 max         232 min
Histogram: 8 0 8 0 16 0 8 8 16 40
Neighs:        79213.6 ave      114697 max           0 min
Histogram: 8 4 4 0 8 8 8 8 22 34

Total # of neighbors = 8238215
Ave neighs/atom = 28.530516
Neighbor list builds = 0
Dangerous builds = 0
The dot product: -6.46008103967066e-08
Setting atom values ...
  1 settings made for x
  1 settings made for y
  1 settings made for z
Setting up cg style minimization ...
  Unit style    : metal
  Current step  : 6296
Per MPI rank memory allocation (min/avg/max) = 5.441 | 5.816 | 6.074 Mbytes
Step PotEng KinEng TotEng v_fx v_fy v_fz 
    6296   -1152448.8            0   -1152448.8 -0.004644328 -0.0096930756 -0.012680287 
    6500   -1152448.8            0   -1152448.8 7.8468306e-07 1.1860916e-07 6.3109256e-07 
Loop time of 2.37021 on 104 procs for 204 steps with 288751 atoms

99.9% CPU use with 104 MPI tasks x 1 OpenMP threads

Minimization stats:
  Stopping criterion = energy tolerance
  Energy initial, next-to-last, final = 
     -1152448.75490542  -1152448.75653212  -1152448.75653212
  Force two-norm initial, final = 0.18118315 7.8989738e-05
  Force max component initial, final = 0.15075922 7.4108118e-06
  Final line search alpha, max atom move = 1.0000000 7.4108118e-06
  Iterations, force evaluations = 204 408

MPI task timing breakdown:
Section |  min time  |  avg time  |  max time  |%varavg| %total
---------------------------------------------------------------
Pair    | 0.61588    | 1.7112     | 2.2286     |  35.4 | 72.20
Neigh   | 0          | 0          | 0          |   0.0 |  0.00
Comm    | 0.036797   | 0.38687    | 1.1497     |  51.6 | 16.32
Output  | 0          | 0          | 0          |   0.0 |  0.00
Modify  | 2.363e-05  | 0.0033626  | 0.0071721  |   2.7 |  0.14
Other   |            | 0.2687     |            |       | 11.34

Nlocal:        2776.45 ave        3938 max           0 min
Histogram: 8 4 4 0 4 12 8 2 26 36
Nghost:        3879.06 ave        5424 max         232 min
Histogram: 8 0 8 0 16 0 8 8 16 40
Neighs:        79213.6 ave      114695 max           0 min
Histogram: 8 4 4 0 8 8 8 8 22 34

Total # of neighbors = 8238212
Ave neighs/atom = 28.530506
Neighbor list builds = 0
Dangerous builds = 0
The dot product: 7.07599292428474e-10
Setting atom values ...
  1 settings made for x
  1 settings made for y
  1 settings made for z
Setting up cg style minimization ...
  Unit style    : metal
  Current step  : 6500
Per MPI rank memory allocation (min/avg/max) = 5.441 | 5.816 | 6.074 Mbytes
Step PotEng KinEng TotEng v_fx v_fy v_fz 
    6500   -1152448.7            0   -1152448.7 -0.0052638603 -0.012539163  -0.01585033 
    6670   -1152448.7            0   -1152448.7 -6.9756024e-06 -2.3406627e-05 -2.7727592e-05 
Loop time of 1.99761 on 104 procs for 170 steps with 288751 atoms

99.9% CPU use with 104 MPI tasks x 1 OpenMP threads

Minimization stats:
  Stopping criterion = energy tolerance
  Energy initial, next-to-last, final = 
     -1152448.71589656  -1152448.71766593  -1152448.71766593
  Force two-norm initial, final = 0.18170044 0.00014076897
  Force max component initial, final = 0.15184181 3.2395050e-05
  Final line search alpha, max atom move = 1.0000000 3.2395050e-05
  Iterations, force evaluations = 170 340

MPI task timing breakdown:
Section |  min time  |  avg time  |  max time  |%varavg| %total
---------------------------------------------------------------
Pair    | 0.51505    | 1.4349     | 1.8775     |  32.3 | 71.83
Neigh   | 0          | 0          | 0          |   0.0 |  0.00
Comm    | 0.041711   | 0.32679    | 0.9636     |  46.9 | 16.36
Output  | 0          | 0          | 0          |   0.0 |  0.00
Modify  | 1.9441e-05 | 0.0028044  | 0.0059873  |   2.5 |  0.14
Other   |            | 0.2331     |            |       | 11.67

Nlocal:        2776.45 ave        3938 max           0 min
Histogram: 8 4 4 0 4 12 8 2 26 36
Nghost:        3879.07 ave        5424 max         232 min
Histogram: 8 0 8 0 16 0 8 8 16 40
Neighs:        79213.6 ave      114694 max           0 min
Histogram: 8 4 4 0 8 8 8 8 22 34

Total # of neighbors = 8238212
Ave neighs/atom = 28.530506
Neighbor list builds = 0
Dangerous builds = 0
The dot product: -3.62282207250797e-08
Setting atom values ...
  1 settings made for x
  1 settings made for y
  1 settings made for z
Setting up cg style minimization ...
  Unit style    : metal
  Current step  : 6670
Per MPI rank memory allocation (min/avg/max) = 5.441 | 5.816 | 6.074 Mbytes
Step PotEng KinEng TotEng v_fx v_fy v_fz 
    6670   -1152448.7            0   -1152448.7 -0.0056423629 -0.014602389 -0.018089939 
    6842   -1152448.7            0   -1152448.7 1.7216195e-05 4.5809526e-05 5.6434149e-05 
Loop time of 2.00889 on 104 procs for 172 steps with 288751 atoms

99.9% CPU use with 104 MPI tasks x 1 OpenMP threads

Minimization stats:
  Stopping criterion = energy tolerance
  Energy initial, next-to-last, final = 
     -1152448.67653979   -1152448.6782788   -1152448.6782788
  Force two-norm initial, final = 0.18067816 0.00021206395
  Force max component initial, final = 0.15192895 5.6434149e-05
  Final line search alpha, max atom move = 1.0000000 5.6434149e-05
  Iterations, force evaluations = 172 344

MPI task timing breakdown:
Section |  min time  |  avg time  |  max time  |%varavg| %total
---------------------------------------------------------------
Pair    | 0.51854    | 1.4435     | 1.8898     |  32.5 | 71.86
Neigh   | 0          | 0          | 0          |   0.0 |  0.00
Comm    | 0.030643   | 0.32638    | 0.96714    |  47.4 | 16.25
Output  | 0          | 0          | 0          |   0.0 |  0.00
Modify  | 1.9839e-05 | 0.0028384  | 0.0060597  |   2.5 |  0.14
Other   |            | 0.2362     |            |       | 11.76

Nlocal:        2776.45 ave        3939 max           0 min
Histogram: 8 4 4 0 4 12 8 2 26 36
Nghost:        3879.09 ave        5424 max         232 min
Histogram: 8 0 8 0 16 0 8 8 16 40
Neighs:        79213.5 ave      114730 max           0 min
Histogram: 8 4 4 0 9 7 8 8 22 34

Total # of neighbors = 8238205
Ave neighs/atom = 28.530481
Neighbor list builds = 0
Dangerous builds = 0
The dot product: -9.62781281311898e-09
Setting atom values ...
  1 settings made for x
  1 settings made for y
  1 settings made for z
Setting up cg style minimization ...
  Unit style    : metal
  Current step  : 6842
Per MPI rank memory allocation (min/avg/max) = 5.441 | 5.816 | 6.074 Mbytes
Step PotEng KinEng TotEng v_fx v_fy v_fz 
    6842   -1152448.6            0   -1152448.6 -0.0058684681 -0.017513182 -0.021115712 
    7000   -1152448.6            0   -1152448.6 -9.1696356e-06 1.7535341e-05 1.1286834e-05 
    7057   -1152448.6            0   -1152448.6 -3.7076583e-06 -2.9858361e-05 -3.1875131e-05 
Loop time of 2.50179 on 104 procs for 215 steps with 288751 atoms

99.9% CPU use with 104 MPI tasks x 1 OpenMP threads

Minimization stats:
  Stopping criterion = energy tolerance
  Energy initial, next-to-last, final = 
     -1152448.63678459  -1152448.63873672  -1152448.63873672
  Force two-norm initial, final = 0.17970971 0.0002719678
  Force max component initial, final = 0.15172123 5.1646636e-05
  Final line search alpha, max atom move = 1.0000000 5.1646636e-05
  Iterations, force evaluations = 215 430

MPI task timing breakdown:
Section |  min time  |  avg time  |  max time  |%varavg| %total
---------------------------------------------------------------
Pair    | 0.65417    | 1.808      | 2.3415     |  36.1 | 72.27
Neigh   | 0          | 0          | 0          |   0.0 |  0.00
Comm    | 0.03921    | 0.4089     | 1.2191     |  52.7 | 16.34
Output  | 0.00015833 | 0.000161   | 0.00030648 |   0.0 |  0.01
Modify  | 2.6226e-05 | 0.0035451  | 0.007558   |   2.8 |  0.14
Other   |            | 0.2812     |            |       | 11.24

Nlocal:        2776.45 ave        3939 max           0 min
Histogram: 8 4 4 0 4 12 8 2 26 36
Nghost:        3879.09 ave        5424 max         232 min
Histogram: 8 0 8 0 16 0 8 8 16 40
Neighs:        79213.5 ave      114727 max           0 min
Histogram: 8 4 4 0 9 7 8 8 22 34

Total # of neighbors = 8238200
Ave neighs/atom = 28.530464
Neighbor list builds = 0
Dangerous builds = 0
The dot product: 1.21038260541563e-08
Setting atom values ...
  1 settings made for x
  1 settings made for y
  1 settings made for z
Setting up cg style minimization ...
  Unit style    : metal
  Current step  : 7057
Per MPI rank memory allocation (min/avg/max) = 5.441 | 5.816 | 6.074 Mbytes
Step PotEng KinEng TotEng v_fx v_fy v_fz 
    7057   -1152448.6            0   -1152448.6 -0.009090139 -0.018815154  -0.02455377 
    7284   -1152448.6            0   -1152448.6 -2.2636171e-07 -6.4083098e-06 -6.4713341e-06 
Loop time of 2.74127 on 104 procs for 227 steps with 288751 atoms

99.8% CPU use with 104 MPI tasks x 1 OpenMP threads

Minimization stats:
  Stopping criterion = energy tolerance
  Energy initial, next-to-last, final = 
     -1152448.59792369  -1152448.60003596  -1152448.60003596
  Force two-norm initial, final = 0.17780817 7.5599453e-05
  Force max component initial, final = 0.14942059 1.2857437e-05
  Final line search alpha, max atom move = 1.0000000 1.2857437e-05
  Iterations, force evaluations = 227 454

MPI task timing breakdown:
Section |  min time  |  avg time  |  max time  |%varavg| %total
---------------------------------------------------------------
Pair    | 0.68722    | 1.9223     | 2.5331     |  37.7 | 70.13
Neigh   | 0          | 0          | 0          |   0.0 |  0.00
Comm    | 0.053246   | 0.44426    | 1.2926     |  53.4 | 16.21
Output  | 0          | 0          | 0          |   0.0 |  0.00
Modify  | 2.9214e-05 | 0.0037452  | 0.0079724  |   2.9 |  0.14
Other   |            | 0.3709     |            |       | 13.53

Nlocal:        2776.45 ave        3940 max           0 min
Histogram: 8 4 4 0 4 12 8 2 26 36
Nghost:        3879.09 ave        5424 max         232 min
Histogram: 8 0 8 0 16 0 8 8 16 40
Neighs:        79213.5 ave      114767 max           0 min
Histogram: 8 4 4 0 10 6 8 8 22 34

Total # of neighbors = 8238205
Ave neighs/atom = 28.530481
Neighbor list builds = 0
Dangerous builds = 0
The dot product: 5.43954922967995e-10
Setting atom values ...
  1 settings made for x
  1 settings made for y
  1 settings made for z
Setting up cg style minimization ...
  Unit style    : metal
  Current step  : 7284
Per MPI rank memory allocation (min/avg/max) = 5.441 | 5.816 | 6.074 Mbytes
Step PotEng KinEng TotEng v_fx v_fy v_fz 
    7284   -1152448.6            0   -1152448.6 -0.011443674  -0.01899909 -0.026338376 
    7525   -1152448.6            0   -1152448.6 -2.2735029e-06 -4.7089318e-06 -6.1544688e-06 
Loop time of 2.85788 on 104 procs for 241 steps with 288751 atoms

99.9% CPU use with 104 MPI tasks x 1 OpenMP threads

Minimization stats:
  Stopping criterion = energy tolerance
  Energy initial, next-to-last, final = 
     -1152448.56072582  -1152448.57174622  -1152448.57174622
  Force two-norm initial, final = 0.18338363 0.00010239747
  Force max component initial, final = 0.14681612 6.1544688e-06
  Final line search alpha, max atom move = 1.0000000 6.1544688e-06
  Iterations, force evaluations = 241 482

MPI task timing breakdown:
Section |  min time  |  avg time  |  max time  |%varavg| %total
---------------------------------------------------------------
Pair    | 0.73631    | 2.0303     | 2.6771     |  38.3 | 71.04
Neigh   | 1.0191e-05 | 0.0029369  | 0.0042636  |   2.2 |  0.10
Comm    | 0.042577   | 0.46629    | 1.3631     |  55.0 | 16.32
Output  | 0          | 0          | 0          |   0.0 |  0.00
Modify  | 2.7892e-05 | 0.0039729  | 0.0084601  |   3.0 |  0.14
Other   |            | 0.3544     |            |       | 12.40

Nlocal:        2776.45 ave        3940 max           0 min
Histogram: 8 4 4 0 4 12 8 2 26 36
Nghost:        3879.05 ave        5424 max         232 min
Histogram: 8 0 8 0 16 0 8 8 16 40
Neighs:        79213.4 ave      114763 max           0 min
Histogram: 8 4 4 0 10 6 8 8 22 34

Total # of neighbors = 8238194
Ave neighs/atom = 28.530443
Neighbor list builds = 1
Dangerous builds = 0
The dot product: -1.13404900889582e-07
Setting atom values ...
  1 settings made for x
  1 settings made for y
  1 settings made for z
Setting up cg style minimization ...
  Unit style    : metal
  Current step  : 7525
Per MPI rank memory allocation (min/avg/max) = 5.441 | 5.816 | 6.074 Mbytes
Step PotEng KinEng TotEng v_fx v_fy v_fz 
    7525   -1152448.5            0   -1152448.5 -0.0056592148 -0.013071606 -0.016045698 
    7711   -1152448.5            0   -1152448.5  -1.2782e-05 -3.1410331e-05 -3.8029735e-05 
[...]
Histogram: 8 0 8 0 16 0 8 8 16 40
Neighs:        79213.5 ave      115117 max           0 min
Histogram: 8 4 4 0 10 6 8 8 24 32

Total # of neighbors = 8238200
Ave neighs/atom = 28.530464
Neighbor list builds = 0
Dangerous builds = 0
The dot product: 1.01930379501008e-07
Setting atom values ...
  1 settings made for x
  1 settings made for y
  1 settings made for z
Setting up cg style minimization ...
  Unit style    : metal
  Current step  : 26991
Per MPI rank memory allocation (min/avg/max) = 5.441 | 5.816 | 6.074 Mbytes
Step PotEng KinEng TotEng v_fx v_fy v_fz 
   26991   -1152449.4            0   -1152449.4 -0.023928641  0.019407174  0.040962123 
   27000   -1152449.4            0   -1152449.4 0.00048936386 0.00019857355 -0.0001025839 
   27168   -1152449.4            0   -1152449.4 7.1418782e-07 -5.0508931e-06 -6.7430224e-06 
Loop time of 2.08056 on 104 procs for 177 steps with 288751 atoms

99.9% CPU use with 104 MPI tasks x 1 OpenMP threads

Minimization stats:
  Stopping criterion = energy tolerance
  Energy initial, next-to-last, final = 
     -1152449.42934364  -1152449.43075712  -1152449.43075712
  Force two-norm initial, final = 0.17166134 0.00017373068
  Force max component initial, final = 0.07375096 1.6121202e-05
  Final line search alpha, max atom move = 1.0000000 1.6121202e-05
  Iterations, force evaluations = 177 354

MPI task timing breakdown:
Section |  min time  |  avg time  |  max time  |%varavg| %total
---------------------------------------------------------------
Pair    | 0.53803    | 1.4887     | 1.954      |  32.9 | 71.55
Neigh   | 0          | 0          | 0          |   0.0 |  0.00
Comm    | 0.032799   | 0.33915    | 0.99986    |  47.8 | 16.30
Output  | 0.00015127 | 0.00015313 | 0.00024055 |   0.0 |  0.01
Modify  | 2.1791e-05 | 0.0029244  | 0.0062369  |   2.5 |  0.14
Other   |            | 0.2496     |            |       | 12.00

Nlocal:        2776.45 ave        3949 max           0 min
Histogram: 8 4 4 0 4 12 8 0 28 36
Nghost:        3878.76 ave        5422 max         232 min
Histogram: 8 0 8 0 16 0 8 8 16 40
Neighs:        79213.5 ave      115146 max           0 min
Histogram: 8 4 4 0 10 6 8 8 24 32

Total # of neighbors = 8238204
Ave neighs/atom = 28.530478
Neighbor list builds = 0
Dangerous builds = 0
The dot product: -2.86698411552252e-08
Setting atom values ...
  1 settings made for x
  1 settings made for y
  1 settings made for z
Setting up cg style minimization ...
  Unit style    : metal
  Current step  : 27168
Per MPI rank memory allocation (min/avg/max) = 5.441 | 5.816 | 6.074 Mbytes
Step PotEng KinEng TotEng v_fx v_fy v_fz 
   27168   -1152449.4            0   -1152449.4 -0.027057364   0.01581554  0.038838842 
   27341   -1152449.4            0   -1152449.4 1.6605148e-05 -2.7885298e-05 -4.6336435e-05 
Loop time of 2.0482 on 104 procs for 173 steps with 288751 atoms

99.9% CPU use with 104 MPI tasks x 1 OpenMP threads

Minimization stats:
  Stopping criterion = energy tolerance
  Energy initial, next-to-last, final = 
     -1152449.42261433  -1152449.42397478  -1152449.42397478
  Force two-norm initial, final = 0.16891354 0.00021889719
  Force max component initial, final = 0.07293239 5.1866155e-05
  Final line search alpha, max atom move = 1.0000000 5.1866155e-05
  Iterations, force evaluations = 173 346

MPI task timing breakdown:
Section |  min time  |  avg time  |  max time  |%varavg| %total
---------------------------------------------------------------
Pair    | 0.52582    | 1.4551     | 1.9092     |  32.5 | 71.04
Neigh   | 0          | 0          | 0          |   0.0 |  0.00
Comm    | 0.03068    | 0.33582    | 0.97756    |  46.6 | 16.40
Output  | 0          | 0          | 0          |   0.0 |  0.00
Modify  | 2.1133e-05 | 0.0028555  | 0.0060926  |   2.5 |  0.14
Other   |            | 0.2545     |            |       | 12.42

Nlocal:        2776.45 ave        3949 max           0 min
Histogram: 8 4 4 0 4 12 8 0 28 36
Nghost:        3878.77 ave        5423 max         232 min
Histogram: 8 0 8 0 16 0 8 8 16 40
Neighs:        79213.5 ave      115145 max           0 min
Histogram: 8 4 4 0 10 6 8 8 24 32

Total # of neighbors = 8238205
Ave neighs/atom = 28.530481
Neighbor list builds = 0
Dangerous builds = 0
The dot product: -1.75676765594036e-07
Setting atom values ...
  1 settings made for x
  1 settings made for y
  1 settings made for z
Setting up cg style minimization ...
  Unit style    : metal
  Current step  : 27341
Per MPI rank memory allocation (min/avg/max) = 5.441 | 5.816 | 6.074 Mbytes
Step PotEng KinEng TotEng v_fx v_fy v_fz 
   27341   -1152449.4            0   -1152449.4 -0.030909582  0.011445333  0.036251471 
   27522   -1152449.4            0   -1152449.4 -1.1513686e-07 -1.3156238e-05 -1.6238914e-05 
Loop time of 2.13822 on 104 procs for 181 steps with 288751 atoms

99.9% CPU use with 104 MPI tasks x 1 OpenMP threads

Minimization stats:
  Stopping criterion = energy tolerance
  Energy initial, next-to-last, final = 
     -1152449.41433079  -1152449.41563631  -1152449.41563631
  Force two-norm initial, final = 0.1664217 0.0001430196
  Force max component initial, final = 0.072080086 1.7737046e-05
  Final line search alpha, max atom move = 1.0000000 1.7737046e-05
  Iterations, force evaluations = 181 362

MPI task timing breakdown:
Section |  min time  |  avg time  |  max time  |%varavg| %total
---------------------------------------------------------------
Pair    | 0.54966    | 1.5238     | 2.0137     |  33.3 | 71.27
Neigh   | 0          | 0          | 0          |   0.0 |  0.00
Comm    | 0.033254   | 0.34923    | 1.025      |  48.0 | 16.33
Output  | 0          | 0          | 0          |   0.0 |  0.00
Modify  | 2.235e-05  | 0.0029838  | 0.0063426  |   2.6 |  0.14
Other   |            | 0.2622     |            |       | 12.26

Nlocal:        2776.45 ave        3950 max           0 min
Histogram: 8 4 4 0 4 12 8 0 28 36
Nghost:        3878.78 ave        5423 max         232 min
Histogram: 8 0 8 0 16 0 8 8 16 40
Neighs:        79213.5 ave      115174 max           0 min
Histogram: 8 4 4 0 10 6 8 8 24 32

Total # of neighbors = 8238207
Ave neighs/atom = 28.530488
Neighbor list builds = 0
Dangerous builds = 0
The dot product: -5.28885886596088e-08
Setting atom values ...
  1 settings made for x
  1 settings made for y
  1 settings made for z
Setting up cg style minimization ...
  Unit style    : metal
  Current step  : 27522
Per MPI rank memory allocation (min/avg/max) = 5.441 | 5.816 | 6.074 Mbytes
Step PotEng KinEng TotEng v_fx v_fy v_fz 
   27522   -1152449.4            0   -1152449.4    -0.036807 0.0048529398  0.032356783 
   27693   -1152449.4            0   -1152449.4 2.9936935e-05 1.0176587e-05 -8.7624172e-06 
Loop time of 2.00664 on 104 procs for 171 steps with 288751 atoms

99.9% CPU use with 104 MPI tasks x 1 OpenMP threads

Minimization stats:
  Stopping criterion = energy tolerance
  Energy initial, next-to-last, final = 
     -1152449.40463513  -1152449.40589305  -1152449.40589305
  Force two-norm initial, final = 0.16484142 0.0001848091
  Force max component initial, final = 0.07161809 3.4441077e-05
  Final line search alpha, max atom move = 1.0000000 3.4441077e-05
  Iterations, force evaluations = 171 342

MPI task timing breakdown:
Section |  min time  |  avg time  |  max time  |%varavg| %total
---------------------------------------------------------------
Pair    | 0.51648    | 1.4347     | 1.8867     |  32.3 | 71.50
Neigh   | 0          | 0          | 0          |   0.0 |  0.00
Comm    | 0.030487   | 0.32754    | 0.96236    |  46.7 | 16.32
Output  | 0          | 0          | 0          |   0.0 |  0.00
Modify  | 2.1389e-05 | 0.0028286  | 0.0060417  |   2.5 |  0.14
Other   |            | 0.2415     |            |       | 12.04

Nlocal:        2776.45 ave        3948 max           0 min
Histogram: 8 4 4 0 4 12 8 0 28 36
Nghost:        3878.82 ave        5424 max         232 min
Histogram: 8 0 8 0 16 0 8 8 16 40
Neighs:        79213.5 ave      115115 max           0 min
Histogram: 8 4 4 0 10 6 8 8 24 32

Total # of neighbors = 8238204
Ave neighs/atom = 28.530478
Neighbor list builds = 0
Dangerous builds = 0
The dot product: -9.63307059518136e-08
Setting atom values ...
  1 settings made for x
  1 settings made for y
  1 settings made for z
Setting up cg style minimization ...
  Unit style    : metal
  Current step  : 27693
Per MPI rank memory allocation (min/avg/max) = 5.441 | 5.816 | 6.074 Mbytes
Step PotEng KinEng TotEng v_fx v_fy v_fz 
   27693   -1152449.4            0   -1152449.4 -0.044306667 -0.003542964  0.027385831 
   27786   -1152449.4            0   -1152449.4 3.4893792e-05 4.6217462e-05 3.2474763e-05 
Loop time of 1.10844 on 104 procs for 93 steps with 288751 atoms

99.9% CPU use with 104 MPI tasks x 1 OpenMP threads

Minimization stats:
  Stopping criterion = energy tolerance
  Energy initial, next-to-last, final = 
     -1152449.39386888  -1152449.39525777  -1152449.39525777
  Force two-norm initial, final = 0.16647985 0.00021734098
  Force max component initial, final = 0.071480602 4.6217462e-05
  Final line search alpha, max atom move = 1.0000000 4.6217462e-05
  Iterations, force evaluations = 93 186

MPI task timing breakdown:
Section |  min time  |  avg time  |  max time  |%varavg| %total
---------------------------------------------------------------
Pair    | 0.28304    | 0.78529    | 1.0381     |  24.0 | 70.85
Neigh   | 0          | 0          | 0          |   0.0 |  0.00
Comm    | 0.016975   | 0.18169    | 0.52801    |  34.1 | 16.39
Output  | 0          | 0          | 0          |   0.0 |  0.00
Modify  | 1.1493e-05 | 0.0015403  | 0.0032801  |   1.8 |  0.14
Other   |            | 0.1399     |            |       | 12.62

Nlocal:        2776.45 ave        3947 max           0 min
Histogram: 8 4 4 0 4 12 8 0 28 36
Nghost:        3878.82 ave        5424 max         232 min
Histogram: 8 0 8 0 16 0 8 8 16 40
Neighs:        79213.5 ave      115086 max           0 min
Histogram: 8 4 4 0 10 6 8 8 24 32

Total # of neighbors = 8238203
Ave neighs/atom = 28.530474
Neighbor list builds = 0
Dangerous builds = 0
The dot product: -3.52604050970368e-07
Setting atom values ...
  1 settings made for x
  1 settings made for y
  1 settings made for z
Setting up cg style minimization ...
  Unit style    : metal
  Current step  : 27786
Per MPI rank memory allocation (min/avg/max) = 5.441 | 5.816 | 6.074 Mbytes
Step PotEng KinEng TotEng v_fx v_fy v_fz 
   27786   -1152449.4            0   -1152449.4 -0.052190191 -0.012042979  0.022713795 
   27951   -1152449.4            0   -1152449.4 1.1547075e-05 -2.5930915e-05 -4.0581322e-05 
Loop time of 1.92879 on 104 procs for 165 steps with 288751 atoms

99.9% CPU use with 104 MPI tasks x 1 OpenMP threads

Minimization stats:
  Stopping criterion = energy tolerance
  Energy initial, next-to-last, final = 
      -1152449.3830643  -1152449.38502174  -1152449.38502174
  Force two-norm initial, final = 0.17090339 0.0001737453
  Force max component initial, final = 0.070470242 4.0581322e-05
  Final line search alpha, max atom move = 1.0000000 4.0581322e-05
  Iterations, force evaluations = 165 330

MPI task timing breakdown:
Section |  min time  |  avg time  |  max time  |%varavg| %total
---------------------------------------------------------------
Pair    | 0.5002     | 1.3851     | 1.817      |  31.7 | 71.81
Neigh   | 0          | 0          | 0          |   0.0 |  0.00
Comm    | 0.030506   | 0.31485    | 0.93224    |  45.9 | 16.32
Output  | 0          | 0          | 0          |   0.0 |  0.00
Modify  | 2.0731e-05 | 0.0027292  | 0.0057833  |   2.4 |  0.14
Other   |            | 0.2261     |            |       | 11.72

Nlocal:        2776.45 ave        3946 max           0 min
Histogram: 8 4 4 0 4 12 8 0 28 36
Nghost:        3878.82 ave        5424 max         232 min
Histogram: 8 0 8 0 16 0 8 8 16 40
Neighs:        79213.5 ave      115057 max           0 min
Histogram: 8 4 4 0 10 6 8 8 24 32

Total # of neighbors = 8238205
Ave neighs/atom = 28.530481
Neighbor list builds = 0
Dangerous builds = 0
The dot product: 5.94595927659787e-08
Setting atom values ...
  1 settings made for x
  1 settings made for y
  1 settings made for z
Setting up cg style minimization ...
  Unit style    : metal
  Current step  : 27951
Per MPI rank memory allocation (min/avg/max) = 5.441 | 5.816 | 6.074 Mbytes
Step PotEng KinEng TotEng v_fx v_fy v_fz 
   27951   -1152449.4            0   -1152449.4 -0.053374145 -0.013784746  0.021932943 
   28000   -1152449.4            0   -1152449.4 3.2529275e-05 -8.2345375e-05 -0.00012573486 
   28080   -1152449.4            0   -1152449.4 9.2923623e-06 -1.8616498e-05 -2.9842216e-05 
Loop time of 1.5198 on 104 procs for 129 steps with 288751 atoms

99.9% CPU use with 104 MPI tasks x 1 OpenMP threads

Minimization stats:
  Stopping criterion = energy tolerance
  Energy initial, next-to-last, final = 
     -1152449.37376156  -1152449.37546646  -1152449.37546646
  Force two-norm initial, final = 0.1682864 0.00013723486
  Force max component initial, final = 0.070107516 2.9842216e-05
  Final line search alpha, max atom move = 1.0000000 2.9842216e-05
  Iterations, force evaluations = 129 258

MPI task timing breakdown:
Section |  min time  |  avg time  |  max time  |%varavg| %total
---------------------------------------------------------------
Pair    | 0.39133    | 1.0865     | 1.4295     |  28.1 | 71.49
Neigh   | 0          | 0          | 0          |   0.0 |  0.00
Comm    | 0.023744   | 0.24755    | 0.73251    |  40.9 | 16.29
Output  | 0.00015404 | 0.00015758 | 0.00028292 |   0.0 |  0.01
Modify  | 1.5801e-05 | 0.0021326  | 0.0045426  |   2.2 |  0.14
Other   |            | 0.1835     |            |       | 12.07

Nlocal:        2776.45 ave        3947 max           0 min
Histogram: 8 4 4 0 4 12 8 0 28 36
Nghost:        3878.82 ave        5424 max         232 min
Histogram: 8 0 8 0 16 0 8 8 16 40
Neighs:        79213.5 ave      115086 max           0 min
Histogram: 8 4 4 0 10 6 8 8 24 32

Total # of neighbors = 8238205
Ave neighs/atom = 28.530481
Neighbor list builds = 0
Dangerous builds = 0
The dot product: 6.42224651520448e-09
Setting atom values ...
  1 settings made for x
  1 settings made for y
  1 settings made for z
Setting up cg style minimization ...
  Unit style    : metal
  Current step  : 28080
Per MPI rank memory allocation (min/avg/max) = 5.441 | 5.816 | 6.074 Mbytes
Step PotEng KinEng TotEng v_fx v_fy v_fz 
   28080   -1152449.4            0   -1152449.4 -0.050589069 -0.012205161  0.022235206 
   28139   -1152449.4            0   -1152449.4 -3.8645204e-06 -2.8041804e-05 -3.1774059e-05 
Loop time of 0.694655 on 104 procs for 59 steps with 288751 atoms

99.9% CPU use with 104 MPI tasks x 1 OpenMP threads

Minimization stats:
  Stopping criterion = energy tolerance
  Energy initial, next-to-last, final = 
     -1152449.36443836  -1152449.36590936  -1152449.36590936
  Force two-norm initial, final = 0.16374407 0.0002563832
  Force max component initial, final = 0.069863466 3.1774059e-05
  Final line search alpha, max atom move = 1.0000000 3.1774059e-05
  Iterations, force evaluations = 59 118

MPI task timing breakdown:
Section |  min time  |  avg time  |  max time  |%varavg| %total
---------------------------------------------------------------
Pair    | 0.17914    | 0.49722    | 0.65544    |  19.1 | 71.58
Neigh   | 0          | 0          | 0          |   0.0 |  0.00
Comm    | 0.010732   | 0.11345    | 0.33578    |  27.5 | 16.33
Output  | 0          | 0          | 0          |   0.0 |  0.00
Modify  | 7.5389e-06 | 0.00098076 | 0.0020838  |   0.0 |  0.14
Other   |            | 0.083      |            |       | 11.95

Nlocal:        2776.45 ave        3947 max           0 min
Histogram: 8 4 4 0 4 12 8 0 28 36
Nghost:        3878.82 ave        5424 max         232 min
Histogram: 8 0 8 0 16 0 8 8 16 40
Neighs:        79213.5 ave      115086 max           0 min
Histogram: 8 4 4 0 10 6 8 8 24 32

Total # of neighbors = 8238206
Ave neighs/atom = 28.530485
Neighbor list builds = 0
Dangerous builds = 0
The dot product: 1.38505456337082e-07
Setting atom values ...
  1 settings made for x
  1 settings made for y
  1 settings made for z
Setting up cg style minimization ...
  Unit style    : metal
  Current step  : 28139
Per MPI rank memory allocation (min/avg/max) = 5.441 | 5.816 | 6.074 Mbytes
Step PotEng KinEng TotEng v_fx v_fy v_fz 
   28139   -1152449.4            0   -1152449.4 -0.048794465 -0.011554431  0.021985596 
   28318   -1152449.4            0   -1152449.4 -8.6974301e-06 -6.7924808e-06 -1.9149538e-06 
Loop time of 2.10608 on 104 procs for 179 steps with 288751 atoms

99.9% CPU use with 104 MPI tasks x 1 OpenMP threads

Minimization stats:
  Stopping criterion = energy tolerance
  Energy initial, next-to-last, final = 
     -1152449.35461431   -1152449.3559932   -1152449.3559932
  Force two-norm initial, final = 0.16048049 6.1291439e-05
  Force max component initial, final = 0.069329761 8.6974301e-06
  Final line search alpha, max atom move = 1.0000000 8.6974301e-06
  Iterations, force evaluations = 179 358

MPI task timing breakdown:
Section |  min time  |  avg time  |  max time  |%varavg| %total
---------------------------------------------------------------
Pair    | 0.54258    | 1.5049     | 1.9767     |  33.1 | 71.46
Neigh   | 0          | 0          | 0          |   0.0 |  0.00
Comm    | 0.032948   | 0.34189    | 1.0118     |  48.2 | 16.23
Output  | 0          | 0          | 0          |   0.0 |  0.00
Modify  | 2.2458e-05 | 0.0029581  | 0.006324   |   2.6 |  0.14
Other   |            | 0.2563     |            |       | 12.17

Nlocal:        2776.45 ave        3947 max           0 min
Histogram: 8 4 4 0 4 12 8 0 28 36
Nghost:        3878.82 ave        5424 max         232 min
Histogram: 8 0 8 0 16 0 8 8 16 40
Neighs:        79213.5 ave      115086 max           0 min
Histogram: 8 4 4 0 10 6 8 8 24 32

Total # of neighbors = 8238204
Ave neighs/atom = 28.530478
Neighbor list builds = 0
Dangerous builds = 0
The dot product: 8.47939880092282e-08
Setting atom values ...
  1 settings made for x
  1 settings made for y
  1 settings made for z
Setting up cg style minimization ...
  Unit style    : metal
  Current step  : 28318
Per MPI rank memory allocation (min/avg/max) = 5.441 | 5.816 | 6.074 Mbytes
Step PotEng KinEng TotEng v_fx v_fy v_fz 
   28318   -1152449.3            0   -1152449.3 -0.048776403 -0.012908083  0.020533348 
   28489   -1152449.3            0   -1152449.3 -9.9951685e-06 -4.8074785e-06 1.5457782e-06 
Loop time of 2.01224 on 104 procs for 171 steps with 288751 atoms

99.9% CPU use with 104 MPI tasks x 1 OpenMP threads

Minimization stats:
  Stopping criterion = energy tolerance
  Energy initial, next-to-last, final = 
      -1152449.3442734  -1152449.34564867  -1152449.34564867
  Force two-norm initial, final = 0.15873076 6.5918302e-05
  Force max component initial, final = 0.068683961 1.2468679e-05
  Final line search alpha, max atom move = 1.0000000 1.2468679e-05
  Iterations, force evaluations = 171 342

MPI task timing breakdown:
Section |  min time  |  avg time  |  max time  |%varavg| %total
---------------------------------------------------------------
Pair    | 0.5177     | 1.437      | 1.8913     |  32.3 | 71.42
Neigh   | 0          | 0          | 0          |   0.0 |  0.00
Comm    | 0.031781   | 0.32853    | 0.96706    |  46.5 | 16.33
Output  | 0          | 0          | 0          |   0.0 |  0.00
Modify  | 2.0914e-05 | 0.0028257  | 0.0060036  |   2.5 |  0.14
Other   |            | 0.2438     |            |       | 12.12

Nlocal:        2776.45 ave        3947 max           0 min
Histogram: 8 4 4 0 4 12 8 0 28 36
Nghost:        3878.82 ave        5424 max         232 min
Histogram: 8 0 8 0 16 0 8 8 16 40
Neighs:        79213.5 ave      115086 max           0 min
Histogram: 8 4 4 0 10 6 8 8 24 32

Total # of neighbors = 8238205
Ave neighs/atom = 28.530481
Neighbor list builds = 0
Dangerous builds = 0
The dot product: 8.8635895611087e-08
