LAMMPS (29 Oct 2020)
OMP_NUM_THREADS environment is not set. Defaulting to 1 thread. (../comm.cpp:94)
  using 1 OpenMP thread(s) per MPI task
OMP_NUM_THREADS environment is not set. Defaulting to 1 thread. (../comm.cpp:94)
  using 1 OpenMP thread(s) per MPI task
Reading data file ...
  orthogonal box = (-122.39241 -121.13707 -37.090501) to (122.39241 121.13707 37.090501)
  13 by 4 by 2 MPI processor grid
  reading atoms ...
  288751 atoms
  read_data CPU = 0.400 seconds
199981 atoms in group inner
88770 atoms in group outer
1 atoms in group carbon
Neighbor list info ...
  update every 1 steps, delay 0 steps, check yes
  max neighbors/atom: 2000, page size: 100000
  master list distance cutoff = 5.6
  ghost atom cutoff = 5.6
  binsize = 2.8, bins = 88 87 27
  1 neighbor lists, perpetual/occasional/extra = 1 0 0
  (1) pair eam/alloy, perpetual
      attributes: half, newton on
      pair build: half/bin/atomonly/newton
      stencil: half/bin/3d/newton
      bin: standard
Setting up cg style minimization ...
  Unit style    : metal
  Current step  : 0
Per MPI rank memory allocation (min/avg/max) = 5.441 | 5.816 | 6.074 Mbytes
Step v_fx v_fy v_fz PotEng KinEng TotEng 
       0   -12.719468    23.355105    -7.935707   -1152441.8            0   -1152441.8 
     234 -3.2019429e-06 1.0839229e-05 -1.0257559e-05     -1152449            0     -1152449 
Loop time of 2.76585 on 104 procs for 234 steps with 288751 atoms

99.9% CPU use with 104 MPI tasks x 1 OpenMP threads

Minimization stats:
  Stopping criterion = energy tolerance
  Energy initial, next-to-last, final = 
     -1152441.77623849  -1152448.97218785  -1152448.97218785
  Force two-norm initial, final = 45.427388 0.00013642793
  Force max component initial, final = 29.686538 1.0839229e-05
  Final line search alpha, max atom move = 1.0000000 1.0839229e-05
  Iterations, force evaluations = 234 464

MPI task timing breakdown:
Section |  min time  |  avg time  |  max time  |%varavg| %total
---------------------------------------------------------------
Pair    | 0.74375    | 1.9611     | 2.5425     |  36.8 | 70.90
Neigh   | 9.2545e-05 | 0.026368   | 0.038342   |   6.7 |  0.95
Comm    | 0.043917   | 0.44437    | 1.3222     |  54.8 | 16.07
Output  | 0          | 0          | 0          |   0.0 |  0.00
Modify  | 2.6798e-05 | 0.0025104  | 0.0064086  |   3.1 |  0.09
Other   |            | 0.3315     |            |       | 11.99

Nlocal:        2776.45 ave        3960 max           0 min
Histogram: 8 4 4 0 4 12 8 2 28 34
Nghost:        3879.00 ave        5424 max         232 min
Histogram: 8 0 8 0 16 0 8 8 16 40
Neighs:        79213.5 ave      115439 max           0 min
Histogram: 8 4 4 0 10 6 8 8 24 32

Total # of neighbors = 8238204
Ave neighs/atom = 28.530478
Neighbor list builds = 9
Dangerous builds = 0
Setting atom values ...
  1 settings made for x
  1 settings made for y
  1 settings made for z
Setting up cg style minimization ...
  Unit style    : metal
  Current step  : 234
Per MPI rank memory allocation (min/avg/max) = 5.441 | 5.816 | 6.074 Mbytes
Step PotEng KinEng TotEng v_fx v_fy v_fz 
     234     -1152449            0     -1152449 -0.018270942 0.0040525288 -0.032616586 
     369     -1152449            0     -1152449 2.3646088e-05 -1.1415399e-05 2.2510696e-05 
Loop time of 1.60102 on 104 procs for 135 steps with 288751 atoms

99.9% CPU use with 104 MPI tasks x 1 OpenMP threads

Minimization stats:
  Stopping criterion = energy tolerance
  Energy initial, next-to-last, final = 
     -1152448.97141178  -1152448.97193223  -1152448.97193223
  Force two-norm initial, final = 0.10536074 0.0001365969
  Force max component initial, final = 0.050085447 3.0454801e-05
  Final line search alpha, max atom move = 1.0000000 3.0454801e-05
  Iterations, force evaluations = 135 270

MPI task timing breakdown:
Section |  min time  |  avg time  |  max time  |%varavg| %total
---------------------------------------------------------------
Pair    | 0.41127    | 1.1435     | 1.4895     |  28.9 | 71.42
Neigh   | 0          | 0          | 0          |   0.0 |  0.00
Comm    | 0.026917   | 0.2599     | 0.77711    |  42.0 | 16.23
Output  | 0          | 0          | 0          |   0.0 |  0.00
Modify  | 1.7664e-05 | 0.0022408  | 0.0047457  |   2.2 |  0.14
Other   |            | 0.1954     |            |       | 12.20

Nlocal:        2776.45 ave        3960 max           0 min
Histogram: 8 4 4 0 4 12 8 2 28 34
Nghost:        3879.12 ave        5425 max         232 min
Histogram: 8 0 8 0 16 0 8 8 16 40
Neighs:        79213.5 ave      115443 max           0 min
Histogram: 8 4 4 0 10 6 8 8 24 32

Total # of neighbors = 8238206
Ave neighs/atom = 28.530485
Neighbor list builds = 0
Dangerous builds = 0
Setting atom values ...
  1 settings made for x
  1 settings made for y
  1 settings made for z
Setting up cg style minimization ...
  Unit style    : metal
  Current step  : 369
Per MPI rank memory allocation (min/avg/max) = 5.441 | 5.816 | 6.074 Mbytes
Step PotEng KinEng TotEng v_fx v_fy v_fz 
     369     -1152449            0     -1152449 -0.031591063 0.0065333498 -0.053085297 
     550     -1152449            0     -1152449 -2.2113734e-05 9.0919988e-06 -2.3796163e-05 
Loop time of 2.11873 on 104 procs for 181 steps with 288751 atoms

99.9% CPU use with 104 MPI tasks x 1 OpenMP threads

Minimization stats:
  Stopping criterion = energy tolerance
  Energy initial, next-to-last, final = 
      -1152448.9689168  -1152448.97036457  -1152448.97036457
  Force two-norm initial, final = 0.17523215 0.00016901699
  Force max component initial, final = 0.085357512 5.2972115e-05
  Final line search alpha, max atom move = 1.0000000 5.2972115e-05
  Iterations, force evaluations = 181 362

MPI task timing breakdown:
Section |  min time  |  avg time  |  max time  |%varavg| %total
---------------------------------------------------------------
Pair    | 0.54852    | 1.521      | 1.9817     |  33.3 | 71.79
Neigh   | 0          | 0          | 0          |   0.0 |  0.00
Comm    | 0.032855   | 0.34314    | 1.0271     |  48.9 | 16.20
Output  | 0          | 0          | 0          |   0.0 |  0.00
Modify  | 2.1276e-05 | 0.0029944  | 0.006346   |   2.6 |  0.14
Other   |            | 0.2516     |            |       | 11.87

Nlocal:        2776.45 ave        3960 max           0 min
Histogram: 8 4 4 0 4 12 8 2 28 34
Nghost:        3879.12 ave        5425 max         232 min
Histogram: 8 0 8 0 16 0 8 8 16 40
Neighs:        79213.5 ave      115443 max           0 min
Histogram: 8 4 4 0 10 6 8 8 24 32

Total # of neighbors = 8238203
Ave neighs/atom = 28.530474
Neighbor list builds = 0
Dangerous builds = 0
The dot product: -2.91667280575486e-08
Setting atom values ...
  1 settings made for x
  1 settings made for y
  1 settings made for z
Setting up cg style minimization ...
  Unit style    : metal
  Current step  : 550
Per MPI rank memory allocation (min/avg/max) = 5.441 | 5.816 | 6.074 Mbytes
Step PotEng KinEng TotEng v_fx v_fy v_fz 
     550     -1152449            0     -1152449 -0.035401003 0.0092817022 -0.045782289 
     733     -1152449            0     -1152449 -1.4517221e-05 5.9057853e-06 -1.3877793e-05 
Loop time of 2.16038 on 104 procs for 183 steps with 288751 atoms

99.9% CPU use with 104 MPI tasks x 1 OpenMP threads

Minimization stats:
  Stopping criterion = energy tolerance
  Energy initial, next-to-last, final = 
     -1152448.96585401  -1152448.96738342  -1152448.96738342
  Force two-norm initial, final = 0.17555864 0.00020878952
  Force max component initial, final = 0.087781465 4.3587471e-05
  Final line search alpha, max atom move = 1.0000000 4.3587471e-05
  Iterations, force evaluations = 183 366

MPI task timing breakdown:
Section |  min time  |  avg time  |  max time  |%varavg| %total
---------------------------------------------------------------
Pair    | 0.55888    | 1.5501     | 2.0286     |  33.6 | 71.75
Neigh   | 0          | 0          | 0          |   0.0 |  0.00
Comm    | 0.038176   | 0.35248    | 1.05       |  48.7 | 16.32
Output  | 0          | 0          | 0          |   0.0 |  0.00
Modify  | 2.4429e-05 | 0.0030279  | 0.0064482  |   2.6 |  0.14
Other   |            | 0.2548     |            |       | 11.79

Nlocal:        2776.45 ave        3960 max           0 min
Histogram: 8 4 4 0 4 12 8 2 28 34
Nghost:        3879.12 ave        5425 max         232 min
Histogram: 8 0 8 0 16 0 8 8 16 40
Neighs:        79213.4 ave      115443 max           0 min
Histogram: 8 4 4 0 10 6 8 8 24 32

Total # of neighbors = 8238197
Ave neighs/atom = 28.530454
Neighbor list builds = 0
Dangerous builds = 0
The dot product: -4.82520959169988e-08
Setting atom values ...
  1 settings made for x
  1 settings made for y
  1 settings made for z
Setting up cg style minimization ...
  Unit style    : metal
  Current step  : 733
Per MPI rank memory allocation (min/avg/max) = 5.441 | 5.816 | 6.074 Mbytes
Step PotEng KinEng TotEng v_fx v_fy v_fz 
     733     -1152449            0     -1152449  -0.04043941  0.020521632 -0.026463726 
    1000   -1152449.2            0   -1152449.2 -0.0020888869 0.0011297765 -0.0012598652 
    1246   -1152449.4            0   -1152449.4 -1.5952429e-06 -7.2501769e-06 -1.3423101e-05 
Loop time of 6.04977 on 104 procs for 513 steps with 288751 atoms

99.9% CPU use with 104 MPI tasks x 1 OpenMP threads

Minimization stats:
  Stopping criterion = energy tolerance
  Energy initial, next-to-last, final = 
     -1152448.96137411  -1152449.44074007  -1152449.44074007
  Force two-norm initial, final = 0.17689344 0.00019989069
  Force max component initial, final = 0.089303249 3.6376454e-05
  Final line search alpha, max atom move = 1.0000000 3.6376454e-05
  Iterations, force evaluations = 513 1026

MPI task timing breakdown:
Section |  min time  |  avg time  |  max time  |%varavg| %total
---------------------------------------------------------------
Pair    | 1.6122     | 4.3216     | 5.6136     |  55.1 | 71.43
Neigh   | 0.00015939 | 0.044088   | 0.064594   |   8.7 |  0.73
Comm    | 0.10658    | 0.97399    | 2.9095     |  81.9 | 16.10
Output  | 0.0001411  | 0.00014741 | 0.00031619 |   0.0 |  0.00
Modify  | 6.3415e-05 | 0.0084674  | 0.018092   |   4.3 |  0.14
Other   |            | 0.7015     |            |       | 11.60

Nlocal:        2776.45 ave        3945 max           0 min
Histogram: 8 4 4 0 4 12 8 0 28 36
Nghost:        3878.65 ave        5426 max         232 min
Histogram: 8 0 8 0 16 0 8 8 16 40
Neighs:        79213.3 ave      114996 max           0 min
Histogram: 8 4 4 0 10 6 8 8 24 32

Total # of neighbors = 8238179
Ave neighs/atom = 28.530391
Neighbor list builds = 15
Dangerous builds = 0
The dot product: -4.31702113728876e-06
Setting atom values ...
  1 settings made for x
  1 settings made for y
  1 settings made for z
Setting up cg style minimization ...
  Unit style    : metal
  Current step  : 1246
Per MPI rank memory allocation (min/avg/max) = 5.441 | 5.816 | 6.074 Mbytes
Step PotEng KinEng TotEng v_fx v_fy v_fz 
    1246   -1152449.4            0   -1152449.4 -0.059664742 -0.028377971 0.0015338629 
    1498   -1152449.4            0   -1152449.4 -4.3489878e-07 5.060238e-07 -2.6930823e-07 
Loop time of 2.95354 on 104 procs for 252 steps with 288751 atoms

99.9% CPU use with 104 MPI tasks x 1 OpenMP threads

Minimization stats:
  Stopping criterion = energy tolerance
  Energy initial, next-to-last, final = 
     -1152449.43821775  -1152449.44090905  -1152449.44090905
  Force two-norm initial, final = 0.20922452 9.4702688e-06
  Force max component initial, final = 0.098558674 1.0645267e-06
  Final line search alpha, max atom move = 1.0000000 1.0645267e-06
  Iterations, force evaluations = 252 504

MPI task timing breakdown:
Section |  min time  |  avg time  |  max time  |%varavg| %total
---------------------------------------------------------------
Pair    | 0.76864    | 2.125      | 2.789      |  39.2 | 71.95
Neigh   | 0          | 0          | 0          |   0.0 |  0.00
Comm    | 0.054739   | 0.47942    | 1.4362     |  57.6 | 16.23
Output  | 0          | 0          | 0          |   0.0 |  0.00
Modify  | 3.04e-05   | 0.0041547  | 0.0088453  |   3.0 |  0.14
Other   |            | 0.345      |            |       | 11.68

Nlocal:        2776.45 ave        3946 max           0 min
Histogram: 8 4 4 0 4 12 8 0 28 36
Nghost:        3878.75 ave        5428 max         232 min
Histogram: 8 0 8 0 16 0 8 8 16 40
Neighs:        79213.5 ave      115035 max           0 min
Histogram: 8 4 4 0 10 6 8 8 24 32

Total # of neighbors = 8238199
Ave neighs/atom = 28.530461
Neighbor list builds = 0
Dangerous builds = 0
The dot product: -2.96485817129407e-09
Setting atom values ...
  1 settings made for x
  1 settings made for y
  1 settings made for z
Setting up cg style minimization ...
  Unit style    : metal
  Current step  : 1498
Per MPI rank memory allocation (min/avg/max) = 5.441 | 5.816 | 6.074 Mbytes
Step PotEng KinEng TotEng v_fx v_fy v_fz 
    1498   -1152449.4            0   -1152449.4  -0.02060657  0.026068316 -0.012982556 
    1688   -1152449.4            0   -1152449.4 -1.0067775e-05 1.2377637e-05 -6.2222787e-06 
Loop time of 2.25438 on 104 procs for 190 steps with 288751 atoms

99.9% CPU use with 104 MPI tasks x 1 OpenMP threads

Minimization stats:
  Stopping criterion = energy tolerance
  Energy initial, next-to-last, final = 
     -1152449.43623029   -1152449.4381835   -1152449.4381835
  Force two-norm initial, final = 0.20250727 0.0001081733
  Force max component initial, final = 0.096401929 1.2377637e-05
  Final line search alpha, max atom move = 1.0000000 1.2377637e-05
  Iterations, force evaluations = 190 380

MPI task timing breakdown:
Section |  min time  |  avg time  |  max time  |%varavg| %total
---------------------------------------------------------------
Pair    | 0.57464    | 1.5963     | 2.0804     |  34.1 | 70.81
Neigh   | 0          | 0          | 0          |   0.0 |  0.00
Comm    | 0.034944   | 0.36188    | 1.0759     |  49.7 | 16.05
Output  | 0          | 0          | 0          |   0.0 |  0.00
Modify  | 2.2619e-05 | 0.0031386  | 0.0067031  |   2.6 |  0.14
Other   |            | 0.293      |            |       | 13.00

Nlocal:        2776.45 ave        3947 max           0 min
Histogram: 8 4 4 0 4 12 8 0 28 36
Nghost:        3878.67 ave        5427 max         232 min
Histogram: 8 0 8 0 16 0 8 8 16 40
Neighs:        79213.5 ave      115059 max           0 min
Histogram: 8 4 4 0 10 6 8 8 24 32

Total # of neighbors = 8238200
Ave neighs/atom = 28.530464
Neighbor list builds = 0
Dangerous builds = 0
The dot product: 3.4942846675328e-08
Setting atom values ...
  1 settings made for x
  1 settings made for y
  1 settings made for z
Setting up cg style minimization ...
  Unit style    : metal
  Current step  : 1688
Per MPI rank memory allocation (min/avg/max) = 5.441 | 5.816 | 6.074 Mbytes
Step PotEng KinEng TotEng v_fx v_fy v_fz 
    1688   -1152449.4            0   -1152449.4 -0.017631101  0.030395771 -0.014060375 
    1875   -1152449.4            0   -1152449.4 1.7549672e-05 -2.877795e-05 1.3492871e-05 
Loop time of 2.19189 on 104 procs for 187 steps with 288751 atoms

99.9% CPU use with 104 MPI tasks x 1 OpenMP threads

Minimization stats:
  Stopping criterion = energy tolerance
  Energy initial, next-to-last, final = 
     -1152449.43149416  -1152449.43344102  -1152449.43344102
  Force two-norm initial, final = 0.20253658 0.00012351755
  Force max component initial, final = 0.098676109 2.8777950e-05
  Final line search alpha, max atom move = 1.0000000 2.8777950e-05
  Iterations, force evaluations = 187 374

MPI task timing breakdown:
Section |  min time  |  avg time  |  max time  |%varavg| %total
---------------------------------------------------------------
Pair    | 0.56803    | 1.5764     | 2.0523     |  33.8 | 71.92
Neigh   | 0          | 0          | 0          |   0.0 |  0.00
Comm    | 0.037779   | 0.35561    | 1.0712     |  49.7 | 16.22
Output  | 0          | 0          | 0          |   0.0 |  0.00
Modify  | 2.4778e-05 | 0.0030899  | 0.0066038  |   2.6 |  0.14
Other   |            | 0.2568     |            |       | 11.71

Nlocal:        2776.45 ave        3946 max           0 min
Histogram: 8 4 4 0 4 12 8 0 28 36
Nghost:        3878.68 ave        5427 max         232 min
Histogram: 8 0 8 0 16 0 8 8 16 40
Neighs:        79213.4 ave      115038 max           0 min
Histogram: 8 4 4 0 10 6 8 8 24 32

Total # of neighbors = 8238198
Ave neighs/atom = 28.530457
Neighbor list builds = 0
Dangerous builds = 0
The dot product: -9.66201794590212e-08
Setting atom values ...
  1 settings made for x
  1 settings made for y
  1 settings made for z
Setting up cg style minimization ...
  Unit style    : metal
  Current step  : 1875
Per MPI rank memory allocation (min/avg/max) = 5.441 | 5.816 | 6.074 Mbytes
Step PotEng KinEng TotEng v_fx v_fy v_fz 
    1875   -1152449.4            0   -1152449.4 -0.016220878  0.031358167 -0.014399334 
    2000   -1152449.4            0   -1152449.4 0.00016815991 -0.00025996646 0.00012662827 
    2060   -1152449.4            0   -1152449.4 2.0359557e-06 -6.5489305e-06 2.7161032e-06 
Loop time of 2.18656 on 104 procs for 185 steps with 288751 atoms

99.9% CPU use with 104 MPI tasks x 1 OpenMP threads

Minimization stats:
  Stopping criterion = energy tolerance
  Energy initial, next-to-last, final = 
     -1152449.42475104  -1152449.42668892  -1152449.42668892
  Force two-norm initial, final = 0.20211983 0.00012527712
  Force max component initial, final = 0.10108948 8.8383891e-06
  Final line search alpha, max atom move = 1.0000000 8.8383891e-06
  Iterations, force evaluations = 185 370

MPI task timing breakdown:
Section |  min time  |  avg time  |  max time  |%varavg| %total
---------------------------------------------------------------
Pair    | 0.55937    | 1.5597     | 2.0258     |  33.7 | 71.33
Neigh   | 0          | 0          | 0          |   0.0 |  0.00
Comm    | 0.034418   | 0.35118    | 1.0475     |  49.4 | 16.06
Output  | 0.00014122 | 0.00014377 | 0.00029184 |   0.0 |  0.01
Modify  | 2.1923e-05 | 0.0030573  | 0.0065658  |   2.6 |  0.14
Other   |            | 0.2725     |            |       | 12.46

Nlocal:        2776.45 ave        3945 max           0 min
Histogram: 8 4 4 0 4 12 8 0 28 36
Nghost:        3878.70 ave        5427 max         232 min
Histogram: 8 0 8 0 16 0 8 8 16 40
Neighs:        79213.5 ave      115007 max           0 min
Histogram: 8 4 4 0 10 6 8 8 24 32

Total # of neighbors = 8238201
Ave neighs/atom = 28.530467
Neighbor list builds = 0
Dangerous builds = 0
The dot product: -2.07084589134058e-08
Setting atom values ...
  1 settings made for x
  1 settings made for y
  1 settings made for z
Setting up cg style minimization ...
  Unit style    : metal
  Current step  : 2060
Per MPI rank memory allocation (min/avg/max) = 5.441 | 5.816 | 6.074 Mbytes
Step PotEng KinEng TotEng v_fx v_fy v_fz 
    2060   -1152449.4            0   -1152449.4 -0.014623738  0.031903913 -0.014556164 
    2236   -1152449.4            0   -1152449.4 -1.5419044e-05 2.5464488e-05 -1.2439692e-05 
Loop time of 2.05886 on 104 procs for 176 steps with 288751 atoms

99.9% CPU use with 104 MPI tasks x 1 OpenMP threads

Minimization stats:
  Stopping criterion = energy tolerance
  Energy initial, next-to-last, final = 
     -1152449.41600799   -1152449.4179352   -1152449.4179352
  Force two-norm initial, final = 0.20163345 0.00015558043
  Force max component initial, final = 0.10347263 3.1140485e-05
  Final line search alpha, max atom move = 1.0000000 3.1140485e-05
  Iterations, force evaluations = 176 352

MPI task timing breakdown:
Section |  min time  |  avg time  |  max time  |%varavg| %total
---------------------------------------------------------------
Pair    | 0.53274    | 1.4858     | 1.9425     |  32.9 | 72.17
Neigh   | 0          | 0          | 0          |   0.0 |  0.00
Comm    | 0.039175   | 0.33527    | 1.0077     |  48.0 | 16.28
Output  | 0          | 0          | 0          |   0.0 |  0.00
Modify  | 2.2155e-05 | 0.0029117  | 0.006232   |   2.6 |  0.14
Other   |            | 0.2349     |            |       | 11.41

Nlocal:        2776.45 ave        3945 max           0 min
Histogram: 8 4 4 0 4 12 8 0 28 36
Nghost:        3878.76 ave        5428 max         232 min
Histogram: 8 0 8 0 16 0 8 8 16 40
Neighs:        79213.5 ave      115015 max           0 min
Histogram: 8 4 4 0 10 6 8 8 24 32

Total # of neighbors = 8238209
Ave neighs/atom = 28.530495
Neighbor list builds = 0
Dangerous builds = 0
The dot product: 9.24732765044052e-08
Setting atom values ...
  1 settings made for x
  1 settings made for y
  1 settings made for z
Setting up cg style minimization ...
  Unit style    : metal
  Current step  : 2236
Per MPI rank memory allocation (min/avg/max) = 5.441 | 5.816 | 6.074 Mbytes
Step PotEng KinEng TotEng v_fx v_fy v_fz 
    2236   -1152449.4            0   -1152449.4 -0.012595572  0.032327461 -0.014561247 
    2403   -1152449.4            0   -1152449.4 -1.901432e-05  2.87749e-05 -1.4700027e-05 
Loop time of 1.93706 on 104 procs for 167 steps with 288751 atoms

99.9% CPU use with 104 MPI tasks x 1 OpenMP threads

Minimization stats:
  Stopping criterion = energy tolerance
  Energy initial, next-to-last, final = 
     -1152449.40527724  -1152449.40719253  -1152449.40719253
  Force two-norm initial, final = 0.20112788 0.00020161922
  Force max component initial, final = 0.10581418 5.2065678e-05
  Final line search alpha, max atom move = 1.0000000 5.2065678e-05
  Iterations, force evaluations = 167 334

MPI task timing breakdown:
Section |  min time  |  avg time  |  max time  |%varavg| %total
---------------------------------------------------------------
Pair    | 0.50567    | 1.405      | 1.8284     |  32.0 | 72.53
Neigh   | 0          | 0          | 0          |   0.0 |  0.00
Comm    | 0.030555   | 0.31416    | 0.95288    |  47.7 | 16.22
Output  | 0          | 0          | 0          |   0.0 |  0.00
Modify  | 1.9934e-05 | 0.0027585  | 0.0059162  |   2.5 |  0.14
Other   |            | 0.2151     |            |       | 11.10

Nlocal:        2776.45 ave        3945 max           0 min
Histogram: 8 4 4 0 4 12 8 0 28 36
Nghost:        3878.84 ave        5428 max         232 min
Histogram: 8 0 8 0 16 0 8 8 16 40
Neighs:        79213.6 ave      115015 max           0 min
Histogram: 8 4 4 0 10 6 8 8 24 32

Total # of neighbors = 8238211
Ave neighs/atom = 28.530502
Neighbor list builds = 0
Dangerous builds = 0
The dot product: 1.06837063393593e-07
Setting atom values ...
  1 settings made for x
  1 settings made for y
  1 settings made for z
Setting up cg style minimization ...
  Unit style    : metal
  Current step  : 2403
Per MPI rank memory allocation (min/avg/max) = 5.441 | 5.816 | 6.074 Mbytes
Step PotEng KinEng TotEng v_fx v_fy v_fz 
    2403   -1152449.4            0   -1152449.4 -0.010055183  0.032663317 -0.014399517 
    2610   -1152449.4            0   -1152449.4 3.3678102e-06 -4.8413228e-06 2.5587834e-06 
Loop time of 2.41155 on 104 procs for 207 steps with 288751 atoms

99.9% CPU use with 104 MPI tasks x 1 OpenMP threads

Minimization stats:
  Stopping criterion = energy tolerance
  Energy initial, next-to-last, final = 
      -1152449.3925756  -1152449.39447856  -1152449.39447856
  Force two-norm initial, final = 0.20063108 5.4064975e-05
  Force max component initial, final = 0.10818238 7.1834359e-06
  Final line search alpha, max atom move = 1.0000000 7.1834359e-06
  Iterations, force evaluations = 207 414

MPI task timing breakdown:
Section |  min time  |  avg time  |  max time  |%varavg| %total
---------------------------------------------------------------
Pair    | 0.62389    | 1.742      | 2.27       |  35.6 | 72.24
Neigh   | 0          | 0          | 0          |   0.0 |  0.00
Comm    | 0.03586    | 0.39157    | 1.176      |  52.3 | 16.24
Output  | 0          | 0          | 0          |   0.0 |  0.00
Modify  | 2.4656e-05 | 0.0034153  | 0.0073322  |   2.8 |  0.14
Other   |            | 0.2746     |            |       | 11.39

Nlocal:        2776.45 ave        3945 max           0 min
Histogram: 8 4 4 0 4 12 8 0 28 36
Nghost:        3878.80 ave        5428 max         232 min
Histogram: 8 0 8 0 16 0 8 8 16 40
Neighs:        79213.6 ave      115006 max           0 min
Histogram: 8 4 4 0 10 6 8 8 24 32

Total # of neighbors = 8238211
Ave neighs/atom = 28.530502
Neighbor list builds = 0
Dangerous builds = 0
The dot product: -1.78407129667432e-08
Setting atom values ...
  1 settings made for x
  1 settings made for y
  1 settings made for z
Setting up cg style minimization ...
  Unit style    : metal
  Current step  : 2610
Per MPI rank memory allocation (min/avg/max) = 5.441 | 5.816 | 6.074 Mbytes
Step PotEng KinEng TotEng v_fx v_fy v_fz 
    2610   -1152449.4            0   -1152449.4 -0.006928021  0.032911997  -0.01404738 
    2786   -1152449.4            0   -1152449.4 2.919867e-06 -4.4297456e-06 2.3454364e-06 
Loop time of 2.06766 on 104 procs for 176 steps with 288751 atoms

99.9% CPU use with 104 MPI tasks x 1 OpenMP threads

Minimization stats:
  Stopping criterion = energy tolerance
  Energy initial, next-to-last, final = 
     -1152449.37792676  -1152449.37981748  -1152449.37981748
  Force two-norm initial, final = 0.20018447 0.00016702833
  Force max component initial, final = 0.11044216 3.2060534e-05
  Final line search alpha, max atom move = 1.0000000 3.2060534e-05
  Iterations, force evaluations = 176 352

MPI task timing breakdown:
Section |  min time  |  avg time  |  max time  |%varavg| %total
---------------------------------------------------------------
Pair    | 0.5318     | 1.4789     | 1.9258     |  32.7 | 71.53
Neigh   | 0          | 0          | 0          |   0.0 |  0.00
Comm    | 0.038487   | 0.33264    | 0.99909    |  48.4 | 16.09
Output  | 0          | 0          | 0          |   0.0 |  0.00
Modify  | 2.1281e-05 | 0.0029087  | 0.0061953  |   2.5 |  0.14
Other   |            | 0.2532     |            |       | 12.24

Nlocal:        2776.45 ave        3945 max           0 min
Histogram: 8 4 4 0 4 12 8 0 28 36
Nghost:        3878.82 ave        5428 max         232 min
Histogram: 8 0 8 0 16 0 8 8 16 40
Neighs:        79213.6 ave      115001 max           0 min
Histogram: 8 4 4 0 10 6 8 8 24 32

Total # of neighbors = 8238211
Ave neighs/atom = 28.530502
Neighbor list builds = 0
Dangerous builds = 0
The dot product: -1.56992402976661e-08
Setting atom values ...
  1 settings made for x
  1 settings made for y
  1 settings made for z
Setting up cg style minimization ...
  Unit style    : metal
  Current step  : 2786
Per MPI rank memory allocation (min/avg/max) = 5.441 | 5.816 | 6.074 Mbytes
Step PotEng KinEng TotEng v_fx v_fy v_fz 
    2786   -1152449.4            0   -1152449.4 -0.0035362829  0.033237762 -0.013643035 
    2975   -1152449.4            0   -1152449.4 9.1952538e-06 -1.4500316e-05 7.718071e-06 
Loop time of 2.23784 on 104 procs for 189 steps with 288751 atoms

99.9% CPU use with 104 MPI tasks x 1 OpenMP threads

Minimization stats:
  Stopping criterion = energy tolerance
  Energy initial, next-to-last, final = 
     -1152449.36135997  -1152449.36323635  -1152449.36323635
  Force two-norm initial, final = 0.19988196 0.00011142463
  Force max component initial, final = 0.11262429 1.4500316e-05
  Final line search alpha, max atom move = 1.0000000 1.4500316e-05
  Iterations, force evaluations = 189 378

MPI task timing breakdown:
Section |  min time  |  avg time  |  max time  |%varavg| %total
---------------------------------------------------------------
Pair    | 0.57793    | 1.5949     | 2.0937     |  34.0 | 71.27
Neigh   | 0          | 0          | 0          |   0.0 |  0.00
Comm    | 0.04136    | 0.36284    | 1.0852     |  49.4 | 16.21
Output  | 0          | 0          | 0          |   0.0 |  0.00
Modify  | 2.3156e-05 | 0.0031279  | 0.0066445  |   2.6 |  0.14
Other   |            | 0.277      |            |       | 12.38

Nlocal:        2776.45 ave        3945 max           0 min
Histogram: 8 4 4 0 4 12 8 0 28 36
Nghost:        3878.82 ave        5428 max         232 min
Histogram: 8 0 8 0 16 0 8 8 16 40
Neighs:        79213.6 ave      114998 max           0 min
Histogram: 8 4 4 0 10 6 8 8 24 32

Total # of neighbors = 8238212
Ave neighs/atom = 28.530506
Neighbor list builds = 0
Dangerous builds = 0
The dot product: -4.81178911788754e-08
Setting atom values ...
  1 settings made for x
  1 settings made for y
  1 settings made for z
Setting up cg style minimization ...
  Unit style    : metal
  Current step  : 2975
Per MPI rank memory allocation (min/avg/max) = 5.441 | 5.816 | 6.074 Mbytes
Step PotEng KinEng TotEng v_fx v_fy v_fz 
    2975   -1152449.3            0   -1152449.3 -0.00075338285  0.034042087 -0.013553505 
    3000   -1152449.3            0   -1152449.3 0.00028544598 -0.00046061977 0.00024717951 
    3149   -1152449.3            0   -1152449.3 -2.1377708e-05 3.703307e-05 -1.9508595e-05 
Loop time of 2.04652 on 104 procs for 174 steps with 288751 atoms

99.9% CPU use with 104 MPI tasks x 1 OpenMP threads

Minimization stats:
  Stopping criterion = energy tolerance
  Energy initial, next-to-last, final = 
     -1152449.34291795  -1152449.34477159  -1152449.34477159
  Force two-norm initial, final = 0.19976718 0.00017060004
  Force max component initial, final = 0.11480914 4.8331940e-05
  Final line search alpha, max atom move = 1.0000000 4.8331940e-05
  Iterations, force evaluations = 174 348

MPI task timing breakdown:
Section |  min time  |  avg time  |  max time  |%varavg| %total
---------------------------------------------------------------
Pair    | 0.52931    | 1.4639     | 1.911      |  32.7 | 71.53
Neigh   | 0          | 0          | 0          |   0.0 |  0.00
Comm    | 0.035767   | 0.33085    | 0.98679    |  47.6 | 16.17
Output  | 0.00010493 | 0.0001121  | 0.00019426 |   0.0 |  0.01
Modify  | 2.2417e-05 | 0.0028769  | 0.0061437  |   2.5 |  0.14
Other   |            | 0.2487     |            |       | 12.15

Nlocal:        2776.45 ave        3945 max           0 min
Histogram: 8 4 4 0 4 12 8 0 28 36
Nghost:        3878.74 ave        5427 max         232 min
Histogram: 8 0 8 0 16 0 8 8 16 40
Neighs:        79213.6 ave      115004 max           0 min
Histogram: 8 4 4 0 10 6 8 8 24 32

Total # of neighbors = 8238214
Ave neighs/atom = 28.530512
Neighbor list builds = 0
Dangerous builds = 0
The dot product: 1.27860485296929e-07
Setting atom values ...
  1 settings made for x
  1 settings made for y
  1 settings made for z
Setting up cg style minimization ...
  Unit style    : metal
  Current step  : 3149
Per MPI rank memory allocation (min/avg/max) = 5.441 | 5.816 | 6.074 Mbytes
Step PotEng KinEng TotEng v_fx v_fy v_fz 
    3149   -1152449.3            0   -1152449.3 0.0033205023  0.035588921 -0.013480279 
    3322   -1152449.3            0   -1152449.3 7.2227116e-06 -1.3091662e-05 6.9197442e-06 
Loop time of 2.02613 on 104 procs for 173 steps with 288751 atoms

99.9% CPU use with 104 MPI tasks x 1 OpenMP threads

Minimization stats:
  Stopping criterion = energy tolerance
  Energy initial, next-to-last, final = 
     -1152449.32266467  -1152449.32449692  -1152449.32449692
  Force two-norm initial, final = 0.20011142 0.00015767884
  Force max component initial, final = 0.11696716 3.2207974e-05
  Final line search alpha, max atom move = 1.0000000 3.2207974e-05
  Iterations, force evaluations = 173 346

MPI task timing breakdown:
Section |  min time  |  avg time  |  max time  |%varavg| %total
---------------------------------------------------------------
Pair    | 0.52179    | 1.4573     | 1.9127     |  32.6 | 71.93
Neigh   | 0          | 0          | 0          |   0.0 |  0.00
Comm    | 0.03529    | 0.33027    | 0.98901    |  47.7 | 16.30
Output  | 0          | 0          | 0          |   0.0 |  0.00
Modify  | 2.0965e-05 | 0.0028624  | 0.0060758  |   2.5 |  0.14
Other   |            | 0.2357     |            |       | 11.63

Nlocal:        2776.45 ave        3945 max           0 min
Histogram: 8 4 4 0 4 12 8 0 28 36
Nghost:        3878.74 ave        5427 max         232 min
Histogram: 8 0 8 0 16 0 8 8 16 40
Neighs:        79213.6 ave      115005 max           0 min
Histogram: 8 4 4 0 10 6 8 8 24 32

Total # of neighbors = 8238215
Ave neighs/atom = 28.530516
Neighbor list builds = 0
Dangerous builds = 0
The dot product: -4.63458167144639e-08
Setting atom values ...
  1 settings made for x
  1 settings made for y
  1 settings made for z
Setting up cg style minimization ...
  Unit style    : metal
  Current step  : 3322
Per MPI rank memory allocation (min/avg/max) = 5.441 | 5.816 | 6.074 Mbytes
Step PotEng KinEng TotEng v_fx v_fy v_fz 
    3322   -1152449.3            0   -1152449.3  0.011789616  0.038254829 -0.012945164 
    3543   -1152449.3            0   -1152449.3 -3.0067917e-06 6.6111751e-06 -3.397401e-06 
Loop time of 2.56656 on 104 procs for 221 steps with 288751 atoms

99.9% CPU use with 104 MPI tasks x 1 OpenMP threads

Minimization stats:
  Stopping criterion = energy tolerance
  Energy initial, next-to-last, final = 
     -1152449.30071026  -1152449.30445336  -1152449.30445336
  Force two-norm initial, final = 0.20146427 9.1370606e-05
  Force max component initial, final = 0.11922317 1.8857678e-05
  Final line search alpha, max atom move = 1.0000000 1.8857678e-05
  Iterations, force evaluations = 221 442

MPI task timing breakdown:
Section |  min time  |  avg time  |  max time  |%varavg| %total
---------------------------------------------------------------
Pair    | 0.66846    | 1.854      | 2.4211     |  36.8 | 72.24
Neigh   | 0          | 0          | 0          |   0.0 |  0.00
Comm    | 0.040268   | 0.41549    | 1.2511     |  54.2 | 16.19
Output  | 0          | 0          | 0          |   0.0 |  0.00
Modify  | 2.6106e-05 | 0.0036452  | 0.0077683  |   2.9 |  0.14
Other   |            | 0.2934     |            |       | 11.43

Nlocal:        2776.45 ave        3945 max           0 min
Histogram: 8 4 4 0 4 12 8 0 28 36
Nghost:        3878.74 ave        5427 max         232 min
Histogram: 8 0 8 0 16 0 8 8 16 40
Neighs:        79213.6 ave      115033 max           0 min
Histogram: 8 4 4 0 10 6 8 8 24 32

Total # of neighbors = 8238218
Ave neighs/atom = 28.530526
Neighbor list builds = 0
Dangerous builds = 0
The dot product: -4.99268707389325e-08
Setting atom values ...
  1 settings made for x
  1 settings made for y
  1 settings made for z
Setting up cg style minimization ...
  Unit style    : metal
  Current step  : 3543
Per MPI rank memory allocation (min/avg/max) = 5.441 | 5.816 | 6.074 Mbytes
Step PotEng KinEng TotEng v_fx v_fy v_fz 
    3543   -1152449.3            0   -1152449.3   0.19296171  0.079220448 -0.024076572 
    3858   -1152449.3            0   -1152449.3 1.1354154e-06 -3.0819928e-06 1.5182276e-06 
Loop time of 3.68657 on 104 procs for 315 steps with 288751 atoms

99.9% CPU use with 104 MPI tasks x 1 OpenMP threads

Minimization stats:
  Stopping criterion = energy tolerance
  Energy initial, next-to-last, final = 
     -1152449.28289809  -1152449.33935496  -1152449.33935496
  Force two-norm initial, final = 0.28460327 1.7973984e-05
  Force max component initial, final = 0.19296171 4.3526934e-06
  Final line search alpha, max atom move = 1.0000000 4.3526934e-06
  Iterations, force evaluations = 315 630

MPI task timing breakdown:
Section |  min time  |  avg time  |  max time  |%varavg| %total
---------------------------------------------------------------
Pair    | 0.96158    | 2.6595     | 3.4674     |  43.8 | 72.14
Neigh   | 2.046e-05  | 0.0059079  | 0.008579   |   3.2 |  0.16
Comm    | 0.061465   | 0.60058    | 1.8033     |  64.3 | 16.29
Output  | 0          | 0          | 0          |   0.0 |  0.00
Modify  | 3.7095e-05 | 0.0052037  | 0.011078   |   3.4 |  0.14
Other   |            | 0.4154     |            |       | 11.27

Nlocal:        2776.45 ave        3945 max           0 min
Histogram: 8 4 4 0 4 12 8 0 28 36
Nghost:        3878.74 ave        5427 max         232 min
Histogram: 8 0 8 0 16 0 8 8 16 40
Neighs:        79213.5 ave      115012 max           0 min
Histogram: 8 4 4 0 10 6 8 8 24 32

Total # of neighbors = 8238208
Ave neighs/atom = 28.530492
Neighbor list builds = 2
Dangerous builds = 0
The dot product: 1.28611749863313e-07
Setting atom values ...
  1 settings made for x
  1 settings made for y
  1 settings made for z
Setting up cg style minimization ...
  Unit style    : metal
  Current step  : 3858
Per MPI rank memory allocation (min/avg/max) = 5.441 | 5.816 | 6.074 Mbytes
Step PotEng KinEng TotEng v_fx v_fy v_fz 
    3858   -1152449.3            0   -1152449.3   0.11511156  0.020359093 -0.062504289 
    4000   -1152449.3            0   -1152449.3 2.9263945e-05 -5.1385003e-05 1.6463803e-05 
    4053   -1152449.3            0   -1152449.3 6.7257042e-06 1.8073289e-06 -4.0053716e-06 
Loop time of 2.2615 on 104 procs for 195 steps with 288751 atoms

99.9% CPU use with 104 MPI tasks x 1 OpenMP threads

Minimization stats:
  Stopping criterion = energy tolerance
  Energy initial, next-to-last, final = 
     -1152449.33425259  -1152449.33628849  -1152449.33628849
  Force two-norm initial, final = 0.19617978 7.0611832e-05
  Force max component initial, final = 0.11511156 6.7257042e-06
  Final line search alpha, max atom move = 1.0000000 6.7257042e-06
  Iterations, force evaluations = 195 390

MPI task timing breakdown:
Section |  min time  |  avg time  |  max time  |%varavg| %total
---------------------------------------------------------------
Pair    | 0.58765    | 1.6382     | 2.1334     |  34.6 | 72.44
Neigh   | 0          | 0          | 0          |   0.0 |  0.00
Comm    | 0.035348   | 0.3666     | 1.1109     |  51.4 | 16.21
Output  | 9.552e-05  | 9.8004e-05 | 0.00023528 |   0.0 |  0.00
Modify  | 2.3019e-05 | 0.0032225  | 0.0068973  |   2.7 |  0.14
Other   |            | 0.2534     |            |       | 11.20

Nlocal:        2776.45 ave        3945 max           0 min
Histogram: 8 4 4 0 4 12 8 0 28 36
Nghost:        3878.68 ave        5427 max         232 min
Histogram: 8 0 8 0 16 0 8 8 16 40
Neighs:        79213.4 ave      115005 max           0 min
Histogram: 8 4 4 0 10 6 8 8 24 32

Total # of neighbors = 8238189
Ave neighs/atom = 28.530426
Neighbor list builds = 0
Dangerous builds = 0
The dot product: 1.49659857903724e-07
Setting atom values ...
  1 settings made for x
  1 settings made for y
  1 settings made for z
Setting up cg style minimization ...
  Unit style    : metal
  Current step  : 4053
Per MPI rank memory allocation (min/avg/max) = 5.441 | 5.816 | 6.074 Mbytes
Step PotEng KinEng TotEng v_fx v_fy v_fz 
    4053   -1152449.3            0   -1152449.3  0.051982342  0.018957725 -0.036127914 
    4226   -1152449.3            0   -1152449.3 1.8904758e-05 -1.3187753e-05 -1.4726969e-06 
Loop time of 2.0156 on 104 procs for 173 steps with 288751 atoms

99.9% CPU use with 104 MPI tasks x 1 OpenMP threads

Minimization stats:
  Stopping criterion = energy tolerance
  Energy initial, next-to-last, final = 
     -1152449.33000709   -1152449.3311786   -1152449.3311786
  Force two-norm initial, final = 0.15579618 0.00016248012
  Force max component initial, final = 0.061720134 1.8904758e-05
  Final line search alpha, max atom move = 1.0000000 1.8904758e-05
  Iterations, force evaluations = 173 346

MPI task timing breakdown:
Section |  min time  |  avg time  |  max time  |%varavg| %total
---------------------------------------------------------------
Pair    | 0.52188    | 1.4584     | 1.9021     |  32.6 | 72.35
Neigh   | 0          | 0          | 0          |   0.0 |  0.00
Comm    | 0.031297   | 0.32698    | 0.973      |  47.7 | 16.22
Output  | 0          | 0          | 0          |   0.0 |  0.00
Modify  | 2.0638e-05 | 0.0028606  | 0.0060991  |   2.5 |  0.14
Other   |            | 0.2274     |            |       | 11.28

Nlocal:        2776.45 ave        3945 max           0 min
Histogram: 8 4 4 0 4 12 8 0 28 36
Nghost:        3878.68 ave        5427 max         232 min
Histogram: 8 0 8 0 16 0 8 8 16 40
Neighs:        79213.3 ave      115012 max           0 min
Histogram: 8 4 4 0 10 6 8 8 24 32

Total # of neighbors = 8238186
Ave neighs/atom = 28.530415
Neighbor list builds = 0
Dangerous builds = 0
The dot product: 7.51316742674911e-08
Setting atom values ...
  1 settings made for x
  1 settings made for y
  1 settings made for z
Setting up cg style minimization ...
  Unit style    : metal
  Current step  : 4226
Per MPI rank memory allocation (min/avg/max) = 5.441 | 5.816 | 6.074 Mbytes
Step PotEng KinEng TotEng v_fx v_fy v_fz 
    4226   -1152449.3            0   -1152449.3  0.046997689  0.018339553 -0.033900125 
    4462   -1152449.3            0   -1152449.3 -2.819779e-07 -7.3912563e-07 5.710895e-07 
Loop time of 2.75317 on 104 procs for 236 steps with 288751 atoms

99.9% CPU use with 104 MPI tasks x 1 OpenMP threads

Minimization stats:
  Stopping criterion = energy tolerance
  Energy initial, next-to-last, final = 
     -1152449.32345274  -1152449.32457797  -1152449.32457797
  Force two-norm initial, final = 0.15208956 1.1374068e-05
  Force max component initial, final = 0.05980247 1.7192613e-06
  Final line search alpha, max atom move = 1.0000000 1.7192613e-06
  Iterations, force evaluations = 236 472

MPI task timing breakdown:
Section |  min time  |  avg time  |  max time  |%varavg| %total
---------------------------------------------------------------
Pair    | 0.71368    | 1.9891     | 2.5973     |  38.2 | 72.25
Neigh   | 0          | 0          | 0          |   0.0 |  0.00
Comm    | 0.042452   | 0.44469    | 1.3411     |  56.4 | 16.15
Output  | 0          | 0          | 0          |   0.0 |  0.00
Modify  | 2.8161e-05 | 0.0038859  | 0.0083085  |   2.9 |  0.14
Other   |            | 0.3155     |            |       | 11.46

Nlocal:        2776.45 ave        3945 max           0 min
Histogram: 8 4 4 0 4 12 8 0 28 36
Nghost:        3878.68 ave        5427 max         232 min
Histogram: 8 0 8 0 16 0 8 8 16 40
Neighs:        79213.3 ave      115012 max           0 min
Histogram: 8 4 4 0 10 6 8 8 24 32

Total # of neighbors = 8238188
Ave neighs/atom = 28.530422
Neighbor list builds = 0
Dangerous builds = 0
The dot product: -2.3891483274345e-09
Setting atom values ...
  1 settings made for x
  1 settings made for y
  1 settings made for z
Setting up cg style minimization ...
  Unit style    : metal
  Current step  : 4462
Per MPI rank memory allocation (min/avg/max) = 5.441 | 5.816 | 6.074 Mbytes
Step PotEng KinEng TotEng v_fx v_fy v_fz 
    4462   -1152449.3            0   -1152449.3  0.045713904  0.017936585 -0.033435678 
    4666   -1152449.3            0   -1152449.3 1.8302969e-06 2.8409487e-07 -1.0836512e-06 
Loop time of 2.37508 on 104 procs for 204 steps with 288751 atoms

99.9% CPU use with 104 MPI tasks x 1 OpenMP threads

Minimization stats:
  Stopping criterion = energy tolerance
  Energy initial, next-to-last, final = 
     -1152449.31537522  -1152449.31647855  -1152449.31647855
  Force two-norm initial, final = 0.15036124 6.0595593e-05
  Force max component initial, final = 0.057854339 1.1423933e-05
  Final line search alpha, max atom move = 1.0000000 1.1423933e-05
  Iterations, force evaluations = 204 408

MPI task timing breakdown:
Section |  min time  |  avg time  |  max time  |%varavg| %total
---------------------------------------------------------------
Pair    | 0.61723    | 1.7129     | 2.2392     |  35.2 | 72.12
Neigh   | 0          | 0          | 0          |   0.0 |  0.00
Comm    | 0.039746   | 0.38452    | 1.1626     |  52.0 | 16.19
Output  | 0          | 0          | 0          |   0.0 |  0.00
Modify  | 2.436e-05  | 0.0033651  | 0.0071891  |   2.7 |  0.14
Other   |            | 0.2743     |            |       | 11.55

Nlocal:        2776.45 ave        3945 max           0 min
Histogram: 8 4 4 0 4 12 8 0 28 36
Nghost:        3878.72 ave        5427 max         232 min
Histogram: 8 0 8 0 16 0 8 8 16 40
Neighs:        79213.4 ave      115021 max           0 min
Histogram: 8 4 4 0 10 6 8 8 24 32

Total # of neighbors = 8238189
Ave neighs/atom = 28.530426
Neighbor list builds = 0
Dangerous builds = 0
The dot product: 7.64113140709013e-09
Setting atom values ...
  1 settings made for x
  1 settings made for y
  1 settings made for z
Setting up cg style minimization ...
  Unit style    : metal
  Current step  : 4666
Per MPI rank memory allocation (min/avg/max) = 5.441 | 5.816 | 6.074 Mbytes
Step PotEng KinEng TotEng v_fx v_fy v_fz 
    4666   -1152449.3            0   -1152449.3  0.044419164  0.017900695 -0.033136442 
    4830   -1152449.3            0   -1152449.3 1.7851916e-05 -1.6807691e-05 8.5928648e-07 
Loop time of 1.90376 on 104 procs for 164 steps with 288751 atoms

99.9% CPU use with 104 MPI tasks x 1 OpenMP threads

Minimization stats:
  Stopping criterion = energy tolerance
  Energy initial, next-to-last, final = 
     -1152449.30577195  -1152449.30685988  -1152449.30685988
  Force two-norm initial, final = 0.14898703 0.00023825043
  Force max component initial, final = 0.055892297 4.4767247e-05
  Final line search alpha, max atom move = 1.0000000 4.4767247e-05
  Iterations, force evaluations = 164 328

MPI task timing breakdown:
Section |  min time  |  avg time  |  max time  |%varavg| %total
---------------------------------------------------------------
Pair    | 0.4979     | 1.3766     | 1.7939     |  31.6 | 72.31
Neigh   | 0          | 0          | 0          |   0.0 |  0.00
Comm    | 0.030109   | 0.30725    | 0.92727    |  46.9 | 16.14
Output  | 0          | 0          | 0          |   0.0 |  0.00
Modify  | 1.9175e-05 | 0.0027133  | 0.0057967  |   2.5 |  0.14
Other   |            | 0.2172     |            |       | 11.41

Nlocal:        2776.45 ave        3945 max           0 min
Histogram: 8 4 4 0 4 12 8 0 28 36
Nghost:        3878.72 ave        5427 max         232 min
Histogram: 8 0 8 0 16 0 8 8 16 40
Neighs:        79213.4 ave      115011 max           0 min
Histogram: 8 4 4 0 10 6 8 8 24 32

Total # of neighbors = 8238189
Ave neighs/atom = 28.530426
Neighbor list builds = 0
Dangerous builds = 0
The dot product: 3.86060544082668e-08
Setting atom values ...
  1 settings made for x
  1 settings made for y
  1 settings made for z
Setting up cg style minimization ...
  Unit style    : metal
  Current step  : 4830
Per MPI rank memory allocation (min/avg/max) = 5.441 | 5.816 | 6.074 Mbytes
Step PotEng KinEng TotEng v_fx v_fy v_fz 
    4830   -1152449.3            0   -1152449.3   0.04289969  0.018215444 -0.032894094 
    5000   -1152449.3            0   -1152449.3 -2.0708006e-05 -1.8916438e-05 2.1888752e-05 
    5068   -1152449.3            0   -1152449.3 2.4817999e-06 -6.2988914e-07 -9.033528e-07 
Loop time of 2.79875 on 104 procs for 238 steps with 288751 atoms

99.9% CPU use with 104 MPI tasks x 1 OpenMP threads

Minimization stats:
  Stopping criterion = energy tolerance
  Energy initial, next-to-last, final = 
     -1152449.29462214   -1152449.2956974   -1152449.2956974
  Force two-norm initial, final = 0.14783879 1.3533295e-05
  Force max component initial, final = 0.053955496 2.4817999e-06
  Final line search alpha, max atom move = 1.0000000 2.4817999e-06
  Iterations, force evaluations = 238 476

MPI task timing breakdown:
Section |  min time  |  avg time  |  max time  |%varavg| %total
---------------------------------------------------------------
Pair    | 0.71744    | 2.0059     | 2.6328     |  38.3 | 71.67
Neigh   | 0          | 0          | 0          |   0.0 |  0.00
Comm    | 0.049333   | 0.45376    | 1.3526     |  55.9 | 16.21
Output  | 0.00015286 | 0.000156   | 0.00029326 |   0.0 |  0.01
Modify  | 2.8587e-05 | 0.0039356  | 0.008386   |   3.0 |  0.14
Other   |            | 0.335      |            |       | 11.97

Nlocal:        2776.45 ave        3945 max           0 min
Histogram: 8 4 4 0 4 12 8 0 28 36
Nghost:        3878.72 ave        5427 max         232 min
Histogram: 8 0 8 0 16 0 8 8 16 40
Neighs:        79213.4 ave      115010 max           0 min
Histogram: 8 4 4 0 10 6 8 8 24 32

Total # of neighbors = 8238189
Ave neighs/atom = 28.530426
Neighbor list builds = 0
Dangerous builds = 0
The dot product: 7.85149017734717e-09
Setting atom values ...
  1 settings made for x
  1 settings made for y
  1 settings made for z
Setting up cg style minimization ...
  Unit style    : metal
  Current step  : 5068
Per MPI rank memory allocation (min/avg/max) = 5.441 | 5.816 | 6.074 Mbytes
Step PotEng KinEng TotEng v_fx v_fy v_fz 
    5068   -1152449.3            0   -1152449.3  0.041164936  0.018933095 -0.032741365 
    5256   -1152449.3            0   -1152449.3 7.4534003e-06 -1.6347256e-05 5.872395e-06 
Loop time of 2.2035 on 104 procs for 188 steps with 288751 atoms

99.9% CPU use with 104 MPI tasks x 1 OpenMP threads

Minimization stats:
  Stopping criterion = energy tolerance
  Energy initial, next-to-last, final = 
     -1152449.28190352  -1152449.28296706  -1152449.28296706
  Force two-norm initial, final = 0.14689325 0.00011975186
  Force max component initial, final = 0.051957985 2.3769448e-05
  Final line search alpha, max atom move = 1.0000000 2.3769448e-05
  Iterations, force evaluations = 188 376

MPI task timing breakdown:
Section |  min time  |  avg time  |  max time  |%varavg| %total
---------------------------------------------------------------
Pair    | 0.56794    | 1.5782     | 2.068      |  33.9 | 71.62
Neigh   | 0          | 0          | 0          |   0.0 |  0.00
Comm    | 0.038485   | 0.35693    | 1.0686     |  49.6 | 16.20
Output  | 0          | 0          | 0          |   0.0 |  0.00
Modify  | 2.4179e-05 | 0.003109   | 0.0066087  |   2.6 |  0.14
Other   |            | 0.2653     |            |       | 12.04

Nlocal:        2776.45 ave        3945 max           0 min
Histogram: 8 4 4 0 4 12 8 0 28 36
Nghost:        3878.84 ave        5428 max         232 min
Histogram: 8 0 8 0 16 0 8 8 16 40
Neighs:        79213.3 ave      115006 max           0 min
Histogram: 8 4 4 0 10 6 8 8 24 32

Total # of neighbors = 8238188
Ave neighs/atom = 28.530422
Neighbor list builds = 0
Dangerous builds = 0
The dot product: -4.50199252362322e-09
Setting atom values ...
  1 settings made for x
  1 settings made for y
  1 settings made for z
Setting up cg style minimization ...
  Unit style    : metal
  Current step  : 5256
Per MPI rank memory allocation (min/avg/max) = 5.441 | 5.816 | 6.074 Mbytes
Step PotEng KinEng TotEng v_fx v_fy v_fz 
    5256   -1152449.3            0   -1152449.3  0.039427358  0.020063504 -0.032804608 
    5425   -1152449.3            0   -1152449.3 4.7436078e-05 1.6081406e-05 -3.4634617e-05 
Loop time of 1.9971 on 104 procs for 169 steps with 288751 atoms

99.9% CPU use with 104 MPI tasks x 1 OpenMP threads

Minimization stats:
  Stopping criterion = energy tolerance
  Energy initial, next-to-last, final = 
     -1152449.26759699  -1152449.26865009  -1152449.26865009
  Force two-norm initial, final = 0.146199 0.00022970779
  Force max component initial, final = 0.049972799 4.7436078e-05
  Final line search alpha, max atom move = 1.0000000 4.7436078e-05
  Iterations, force evaluations = 169 338

MPI task timing breakdown:
Section |  min time  |  avg time  |  max time  |%varavg| %total
---------------------------------------------------------------
Pair    | 0.51336    | 1.4306     | 1.8738     |  32.3 | 71.63
Neigh   | 0          | 0          | 0          |   0.0 |  0.00
Comm    | 0.033838   | 0.32415    | 0.97732    |  47.3 | 16.23
Output  | 0          | 0          | 0          |   0.0 |  0.00
Modify  | 2.0703e-05 | 0.0027848  | 0.0059657  |   2.5 |  0.14
Other   |            | 0.2396     |            |       | 12.00

Nlocal:        2776.45 ave        3945 max           0 min
Histogram: 8 4 4 0 4 12 8 0 28 36
Nghost:        3878.84 ave        5428 max         232 min
Histogram: 8 0 8 0 16 0 8 8 16 40
Neighs:        79213.4 ave      115006 max           0 min
Histogram: 8 4 4 0 10 6 8 8 24 32

Total # of neighbors = 8238189
Ave neighs/atom = 28.530426
Neighbor list builds = 0
Dangerous builds = 0
The dot product: 1.9023198414963e-07
Setting atom values ...
  1 settings made for x
  1 settings made for y
  1 settings made for z
Setting up cg style minimization ...
  Unit style    : metal
  Current step  : 5425
Per MPI rank memory allocation (min/avg/max) = 5.441 | 5.816 | 6.074 Mbytes
Step PotEng KinEng TotEng v_fx v_fy v_fz 
    5425   -1152449.3            0   -1152449.3  0.037853995  0.021593738  -0.03317297 
    5603   -1152449.3            0   -1152449.3 1.0352606e-05 8.1015952e-06 -1.039692e-05 
Loop time of 2.1009 on 104 procs for 178 steps with 288751 atoms

99.9% CPU use with 104 MPI tasks x 1 OpenMP threads

Minimization stats:
  Stopping criterion = energy tolerance
  Energy initial, next-to-last, final = 
     -1152449.25169099  -1152449.25273268  -1152449.25273268
  Force two-norm initial, final = 0.14583011 0.00016442667
  Force max component initial, final = 0.048805862 1.0396920e-05
  Final line search alpha, max atom move = 1.0000000 1.0396920e-05
  Iterations, force evaluations = 178 356

MPI task timing breakdown:
Section |  min time  |  avg time  |  max time  |%varavg| %total
---------------------------------------------------------------
Pair    | 0.53755    | 1.5051     | 1.9661     |  33.2 | 71.64
Neigh   | 0          | 0          | 0          |   0.0 |  0.00
Comm    | 0.033126   | 0.33949    | 1.0186     |  48.4 | 16.16
Output  | 0          | 0          | 0          |   0.0 |  0.00
Modify  | 2.1897e-05 | 0.0029371  | 0.0062667  |   2.6 |  0.14
Other   |            | 0.2534     |            |       | 12.06

Nlocal:        2776.45 ave        3945 max           0 min
Histogram: 8 4 4 0 4 12 8 0 27 37
Nghost:        3878.86 ave        5428 max         232 min
Histogram: 8 0 8 0 16 0 8 8 16 40
Neighs:        79213.4 ave      115006 max           0 min
Histogram: 8 4 4 0 10 6 8 8 24 32

Total # of neighbors = 8238189
Ave neighs/atom = 28.530426
Neighbor list builds = 0
Dangerous builds = 0
The dot product: 5.07737546813269e-08
Setting atom values ...
  1 settings made for x
  1 settings made for y
  1 settings made for z
Setting up cg style minimization ...
  Unit style    : metal
  Current step  : 5603
Per MPI rank memory allocation (min/avg/max) = 5.441 | 5.816 | 6.074 Mbytes
Step PotEng KinEng TotEng v_fx v_fy v_fz 
    5603   -1152449.2            0   -1152449.2  0.036564716   0.02356142 -0.033945549 
    5794   -1152449.2            0   -1152449.2 -8.6478934e-06 3.513901e-05 -1.666602e-05 
Loop time of 2.23683 on 104 procs for 191 steps with 288751 atoms

99.9% CPU use with 104 MPI tasks x 1 OpenMP threads

Minimization stats:
  Stopping criterion = energy tolerance
  Energy initial, next-to-last, final = 
     -1152449.23417832  -1152449.23520541  -1152449.23520541
  Force two-norm initial, final = 0.14569619 0.00012418669
  Force max component initial, final = 0.04908189 3.9541711e-05
  Final line search alpha, max atom move = 1.0000000 3.9541711e-05
  Iterations, force evaluations = 191 382

MPI task timing breakdown:
Section |  min time  |  avg time  |  max time  |%varavg| %total
---------------------------------------------------------------
Pair    | 0.57814    | 1.611      | 2.111      |  34.2 | 72.02
Neigh   | 0          | 0          | 0          |   0.0 |  0.00
Comm    | 0.035909   | 0.36352    | 1.0746     |  49.8 | 16.25
Output  | 0          | 0          | 0          |   0.0 |  0.00
Modify  | 2.294e-05  | 0.0031597  | 0.0067408  |   2.7 |  0.14
Other   |            | 0.2592     |            |       | 11.59

Nlocal:        2776.45 ave        3945 max           0 min
Histogram: 8 4 4 0 4 12 8 0 27 37
Nghost:        3878.82 ave        5428 max         232 min
Histogram: 8 0 8 0 16 0 8 8 16 40
Neighs:        79213.3 ave      115007 max           0 min
Histogram: 8 4 4 0 10 6 8 8 24 32

Total # of neighbors = 8238188
Ave neighs/atom = 28.530422
Neighbor list builds = 0
Dangerous builds = 0
The dot product: 5.31980623658493e-08
Setting atom values ...
  1 settings made for x
  1 settings made for y
  1 settings made for z
Setting up cg style minimization ...
  Unit style    : metal
  Current step  : 5794
Per MPI rank memory allocation (min/avg/max) = 5.441 | 5.816 | 6.074 Mbytes
Step PotEng KinEng TotEng v_fx v_fy v_fz 
    5794   -1152449.2            0   -1152449.2  0.035923992  0.026264937 -0.035521999 
    5957   -1152449.2            0   -1152449.2 3.4709488e-05 2.8878708e-05 -3.6457937e-05 
Loop time of 1.90966 on 104 procs for 163 steps with 288751 atoms

99.9% CPU use with 104 MPI tasks x 1 OpenMP threads

Minimization stats:
  Stopping criterion = energy tolerance
  Energy initial, next-to-last, final = 
     -1152449.21506328  -1152449.21607514  -1152449.21607514
  Force two-norm initial, final = 0.14612362 0.00028023546
  Force max component initial, final = 0.050119616 6.2418354e-05
  Final line search alpha, max atom move = 1.0000000 6.2418354e-05
  Iterations, force evaluations = 163 326

MPI task timing breakdown:
Section |  min time  |  avg time  |  max time  |%varavg| %total
---------------------------------------------------------------
Pair    | 0.49359    | 1.3718     | 1.7904     |  31.7 | 71.83
Neigh   | 0          | 0          | 0          |   0.0 |  0.00
Comm    | 0.032656   | 0.30794    | 0.92432    |  46.8 | 16.13
Output  | 0          | 0          | 0          |   0.0 |  0.00
Modify  | 2.0646e-05 | 0.0026904  | 0.0057634  |   2.5 |  0.14
Other   |            | 0.2272     |            |       | 11.90

Nlocal:        2776.45 ave        3945 max           0 min
Histogram: 8 4 4 0 4 12 8 0 27 37
Nghost:        3878.78 ave        5428 max         232 min
Histogram: 8 0 8 0 16 0 8 8 16 40
Neighs:        79213.4 ave      115008 max           0 min
Histogram: 8 4 4 0 10 6 8 8 24 32

Total # of neighbors = 8238189
Ave neighs/atom = 28.530426
Neighbor list builds = 0
Dangerous builds = 0
The dot product: 1.98185265984148e-07
Setting atom values ...
  1 settings made for x
  1 settings made for y
  1 settings made for z
Setting up cg style minimization ...
  Unit style    : metal
  Current step  : 5957
Per MPI rank memory allocation (min/avg/max) = 5.441 | 5.816 | 6.074 Mbytes
Step PotEng KinEng TotEng v_fx v_fy v_fz 
    5957   -1152449.2            0   -1152449.2  0.036371432  0.029865223 -0.038281126 
    6000   -1152449.2            0   -1152449.2 -0.00026512868 -0.00031726873 0.00034022645 
    6215   -1152449.2            0   -1152449.2 7.306388e-07 -1.4997221e-06 5.2109865e-07 
Loop time of 3.01611 on 104 procs for 258 steps with 288751 atoms

99.9% CPU use with 104 MPI tasks x 1 OpenMP threads

Minimization stats:
  Stopping criterion = energy tolerance
  Energy initial, next-to-last, final = 
     -1152449.19437925  -1152449.19537882  -1152449.19537882
  Force two-norm initial, final = 0.14741041 7.7505118e-06
  Force max component initial, final = 0.053315913 1.8004584e-06
  Final line search alpha, max atom move = 1.0000000 1.8004584e-06
  Iterations, force evaluations = 258 516

MPI task timing breakdown:
Section |  min time  |  avg time  |  max time  |%varavg| %total
---------------------------------------------------------------
Pair    | 0.78048    | 2.1732     | 2.8432     |  39.8 | 72.05
Neigh   | 0          | 0          | 0          |   0.0 |  0.00
Comm    | 0.047529   | 0.49162    | 1.4721     |  58.3 | 16.30
Output  | 9.3679e-05 | 0.00010231 | 0.00020725 |   0.0 |  0.00
Modify  | 3.0323e-05 | 0.0042529  | 0.0091174  |   3.1 |  0.14
Other   |            | 0.3469     |            |       | 11.50

Nlocal:        2776.45 ave        3945 max           0 min
Histogram: 8 4 4 0 4 12 8 0 27 37
Nghost:        3878.78 ave        5428 max         232 min
Histogram: 8 0 8 0 16 0 8 8 16 40
Neighs:        79213.4 ave      115012 max           0 min
Histogram: 8 4 4 0 10 6 8 8 24 32

Total # of neighbors = 8238190
Ave neighs/atom = 28.530429
Neighbor list builds = 0
Dangerous builds = 0
The dot product: -2.26358035222948e-09
Setting atom values ...
  1 settings made for x
  1 settings made for y
  1 settings made for z
Setting up cg style minimization ...
  Unit style    : metal
  Current step  : 6215
Per MPI rank memory allocation (min/avg/max) = 5.441 | 5.816 | 6.074 Mbytes
Step PotEng KinEng TotEng v_fx v_fy v_fz 
    6215   -1152449.2            0   -1152449.2  0.038420226  0.034660656 -0.042757188 
    6386   -1152449.2            0   -1152449.2 -4.4404722e-05 -3.6200583e-05 4.7026195e-05 
Loop time of 1.98523 on 104 procs for 171 steps with 288751 atoms

99.9% CPU use with 104 MPI tasks x 1 OpenMP threads

Minimization stats:
  Stopping criterion = energy tolerance
  Energy initial, next-to-last, final = 
     -1152449.17221264  -1152449.17321742  -1152449.17321742
  Force two-norm initial, final = 0.15015278 0.0002379356
  Force max component initial, final = 0.056539545 5.0622957e-05
  Final line search alpha, max atom move = 1.0000000 5.0622957e-05
  Iterations, force evaluations = 171 342

MPI task timing breakdown:
Section |  min time  |  avg time  |  max time  |%varavg| %total
---------------------------------------------------------------
Pair    | 0.51676    | 1.4379     | 1.8765     |  32.4 | 72.43
Neigh   | 0          | 0          | 0          |   0.0 |  0.00
Comm    | 0.032341   | 0.32173    | 0.96879    |  48.0 | 16.21
Output  | 0          | 0          | 0          |   0.0 |  0.00
Modify  | 2.0626e-05 | 0.0028237  | 0.0060447  |   2.5 |  0.14
Other   |            | 0.2228     |            |       | 11.22

Nlocal:        2776.45 ave        3945 max           0 min
Histogram: 8 4 4 0 4 12 8 0 27 37
Nghost:        3878.74 ave        5427 max         232 min
Histogram: 8 0 8 0 16 0 8 8 16 40
Neighs:        79213.4 ave      115016 max           0 min
Histogram: 8 4 4 0 10 6 8 8 24 32

Total # of neighbors = 8238193
Ave neighs/atom = 28.530440
Neighbor list builds = 0
Dangerous builds = 0
The dot product: -4.19717463935495e-07
Setting atom values ...
  1 settings made for x
  1 settings made for y
  1 settings made for z
Setting up cg style minimization ...
  Unit style    : metal
  Current step  : 6386
Per MPI rank memory allocation (min/avg/max) = 5.441 | 5.816 | 6.074 Mbytes
Step PotEng KinEng TotEng v_fx v_fy v_fz 
    6386   -1152449.1            0   -1152449.1   0.04367013  0.042858588  -0.05141342 
    6650   -1152449.3            0   -1152449.3 -2.1541869e-05 -2.0449559e-05 2.4927595e-05 
Loop time of 3.098 on 104 procs for 264 steps with 288751 atoms

99.9% CPU use with 104 MPI tasks x 1 OpenMP threads

Minimization stats:
  Stopping criterion = energy tolerance
  Energy initial, next-to-last, final = 
     -1152449.14878914  -1152449.31841769  -1152449.31841769
  Force two-norm initial, final = 0.15699313 0.000129392
  Force max component initial, final = 0.059814157 3.1444340e-05
  Final line search alpha, max atom move = 1.0000000 3.1444340e-05
  Iterations, force evaluations = 264 527

MPI task timing breakdown:
Section |  min time  |  avg time  |  max time  |%varavg| %total
---------------------------------------------------------------
Pair    | 0.8122     | 2.2214     | 2.8908     |  39.8 | 71.70
Neigh   | 4.0585e-05 | 0.011842   | 0.017226   |   4.5 |  0.38
Comm    | 0.049934   | 0.50112    | 1.5        |  59.1 | 16.18
Output  | 0          | 0          | 0          |   0.0 |  0.00
Modify  | 3.3835e-05 | 0.0043447  | 0.0092722  |   3.1 |  0.14
Other   |            | 0.3593     |            |       | 11.60

Nlocal:        2776.45 ave        3945 max           0 min
Histogram: 8 4 4 0 4 12 8 0 26 38
Nghost:        3878.74 ave        5427 max         232 min
Histogram: 8 0 8 0 16 0 8 8 16 40
Neighs:        79213.3 ave      115031 max           0 min
Histogram: 8 4 4 0 10 6 8 8 24 32

Total # of neighbors = 8238181
Ave neighs/atom = 28.530398
Neighbor list builds = 4
Dangerous builds = 0
The dot product: -1.1798288822568e-05
Setting atom values ...
  1 settings made for x
  1 settings made for y
  1 settings made for z
Setting up cg style minimization ...
  Unit style    : metal
  Current step  : 6650
Per MPI rank memory allocation (min/avg/max) = 5.441 | 5.816 | 6.074 Mbytes
Step PotEng KinEng TotEng v_fx v_fy v_fz 
    6650   -1152449.3            0   -1152449.3 -0.055146966 -0.054517042   0.12899651 
    6841   -1152449.3            0   -1152449.3 -9.541077e-06 -2.607664e-07 9.4104478e-06 
Loop time of 2.2246 on 104 procs for 191 steps with 288751 atoms

99.9% CPU use with 104 MPI tasks x 1 OpenMP threads

Minimization stats:
  Stopping criterion = energy tolerance
  Energy initial, next-to-last, final = 
     -1152449.32478206  -1152449.32782688  -1152449.32782688
  Force two-norm initial, final = 0.20065 0.00017587145
  Force max component initial, final = 0.12899651 1.6419288e-05
  Final line search alpha, max atom move = 1.0000000 1.6419288e-05
  Iterations, force evaluations = 191 382

MPI task timing breakdown:
Section |  min time  |  avg time  |  max time  |%varavg| %total
---------------------------------------------------------------
Pair    | 0.5804     | 1.6008     | 2.0929     |  34.1 | 71.96
Neigh   | 0          | 0          | 0          |   0.0 |  0.00
Comm    | 0.035645   | 0.35924    | 1.0771     |  50.0 | 16.15
Output  | 0          | 0          | 0          |   0.0 |  0.00
Modify  | 2.3397e-05 | 0.0031524  | 0.0067645  |   2.7 |  0.14
Other   |            | 0.2614     |            |       | 11.75

Nlocal:        2776.45 ave        3946 max           0 min
Histogram: 8 4 4 0 4 12 8 0 28 36
Nghost:        3878.55 ave        5429 max         232 min
Histogram: 8 0 8 0 16 0 8 8 16 40
Neighs:        79213.3 ave      115085 max           0 min
Histogram: 8 4 4 0 10 6 8 8 24 32

Total # of neighbors = 8238188
Ave neighs/atom = 28.530422
Neighbor list builds = 0
Dangerous builds = 0
The dot product: 2.40548925477742e-07
Setting atom values ...
  1 settings made for x
  1 settings made for y
  1 settings made for z
Setting up cg style minimization ...
  Unit style    : metal
  Current step  : 6841
Per MPI rank memory allocation (min/avg/max) = 5.441 | 5.816 | 6.074 Mbytes
Step PotEng KinEng TotEng v_fx v_fy v_fz 
    6841   -1152449.3            0   -1152449.3 -0.042293609  0.034624087 -0.0075301185 
    7000   -1152449.3            0   -1152449.3 -4.3946465e-05 1.4724807e-06 3.7682921e-05 
    7012   -1152449.3            0   -1152449.3 -1.0191444e-05 4.1726808e-07 8.6389325e-06 
Loop time of 2.01069 on 104 procs for 171 steps with 288751 atoms

99.9% CPU use with 104 MPI tasks x 1 OpenMP threads

Minimization stats:
  Stopping criterion = energy tolerance
  Energy initial, next-to-last, final = 
     -1152449.33260101  -1152449.33369331  -1152449.33369331
  Force two-norm initial, final = 0.14526847 0.00016269237
  Force max component initial, final = 0.062747428 1.1479317e-05
  Final line search alpha, max atom move = 1.0000000 1.1479317e-05
  Iterations, force evaluations = 171 342

MPI task timing breakdown:
Section |  min time  |  avg time  |  max time  |%varavg| %total
---------------------------------------------------------------
Pair    | 0.51907    | 1.444      | 1.9023     |  32.5 | 71.82
Neigh   | 0          | 0          | 0          |   0.0 |  0.00
Comm    | 0.031276   | 0.32696    | 0.97466    |  47.4 | 16.26
Output  | 9.5528e-05 | 9.8257e-05 | 0.00024141 |   0.0 |  0.00
Modify  | 2.0486e-05 | 0.0028227  | 0.0060342  |   2.5 |  0.14
Other   |            | 0.2368     |            |       | 11.78

Nlocal:        2776.45 ave        3946 max           0 min
Histogram: 8 4 4 0 4 12 8 0 28 36
Nghost:        3878.61 ave        5428 max         232 min
Histogram: 8 0 8 0 16 0 8 8 16 40
Neighs:        79213.4 ave      115066 max           0 min
Histogram: 8 4 4 0 10 6 8 8 24 32

Total # of neighbors = 8238190
Ave neighs/atom = 28.530429
Neighbor list builds = 0
Dangerous builds = 0
The dot product: 1.93688768278624e-08
Setting atom values ...
  1 settings made for x
  1 settings made for y
  1 settings made for z
Setting up cg style minimization ...
  Unit style    : metal
  Current step  : 7012
Per MPI rank memory allocation (min/avg/max) = 5.441 | 5.816 | 6.074 Mbytes
Step PotEng KinEng TotEng v_fx v_fy v_fz 
    7012   -1152449.3            0   -1152449.3 -0.041965065  0.029139254 -0.00096112857 
    7210   -1152449.3            0   -1152449.3 -3.8871718e-06 -1.7626224e-06 5.8308601e-06 
Loop time of 2.33853 on 104 procs for 198 steps with 288751 atoms

99.9% CPU use with 104 MPI tasks x 1 OpenMP threads

Minimization stats:
  Stopping criterion = energy tolerance
  Energy initial, next-to-last, final = 
     -1152449.33696924  -1152449.33805631  -1152449.33805631
  Force two-norm initial, final = 0.1441461 7.4368080e-05
  Force max component initial, final = 0.06426887 5.8308601e-06
  Final line search alpha, max atom move = 1.0000000 5.8308601e-06
  Iterations, force evaluations = 198 396

MPI task timing breakdown:
Section |  min time  |  avg time  |  max time  |%varavg| %total
---------------------------------------------------------------
Pair    | 0.59966    | 1.6639     | 2.176      |  34.9 | 71.15
Neigh   | 0          | 0          | 0          |   0.0 |  0.00
Comm    | 0.036363   | 0.37849    | 1.122      |  50.6 | 16.19
Output  | 0          | 0          | 0          |   0.0 |  0.00
Modify  | 2.377e-05  | 0.0032698  | 0.0070075  |   2.7 |  0.14
Other   |            | 0.2928     |            |       | 12.52

Nlocal:        2776.45 ave        3947 max           0 min
Histogram: 8 4 4 0 4 12 8 0 28 36
Nghost:        3878.61 ave        5428 max         232 min
Histogram: 8 0 8 0 16 0 8 8 16 40
Neighs:        79213.3 ave      115102 max           0 min
Histogram: 8 4 4 0 10 6 8 8 24 32

Total # of neighbors = 8238188
Ave neighs/atom = 28.530422
Neighbor list builds = 0
Dangerous builds = 0
The dot product: 8.93763483154746e-09
Setting atom values ...
  1 settings made for x
  1 settings made for y
  1 settings made for z
Setting up cg style minimization ...
  Unit style    : metal
  Current step  : 7210
Per MPI rank memory allocation (min/avg/max) = 5.441 | 5.816 | 6.074 Mbytes
Step PotEng KinEng TotEng v_fx v_fy v_fz 
    7210   -1152449.3            0   -1152449.3 -0.040806697  0.029647668 -0.0029647879 
    7398   -1152449.3            0   -1152449.3 6.8370511e-06 -6.8326786e-06 2.9760564e-06 
Loop time of 2.20579 on 104 procs for 188 steps with 288751 atoms

99.9% CPU use with 104 MPI tasks x 1 OpenMP threads

Minimization stats:
  Stopping criterion = energy tolerance
  Energy initial, next-to-last, final = 
     -1152449.33983279  -1152449.34092984  -1152449.34092984
  Force two-norm initial, final = 0.14439136 9.6819714e-05
  Force max component initial, final = 0.065928898 8.5465042e-06
  Final line search alpha, max atom move = 1.0000000 8.5465042e-06
  Iterations, force evaluations = 188 376

MPI task timing breakdown:
Section |  min time  |  avg time  |  max time  |%varavg| %total
---------------------------------------------------------------
Pair    | 0.57131    | 1.5892     | 2.0834     |  34.0 | 72.05
Neigh   | 0          | 0          | 0          |   0.0 |  0.00
Comm    | 0.035039   | 0.35826    | 1.07       |  49.8 | 16.24
Output  | 0          | 0          | 0          |   0.0 |  0.00
Modify  | 2.2412e-05 | 0.0031026  | 0.0066325  |   2.6 |  0.14
Other   |            | 0.2552     |            |       | 11.57

Nlocal:        2776.45 ave        3947 max           0 min
Histogram: 8 4 4 0 4 12 8 0 28 36
Nghost:        3878.69 ave        5428 max         232 min
Histogram: 8 0 8 0 16 0 8 8 16 40
Neighs:        79213.4 ave      115100 max           0 min
Histogram: 8 4 4 0 10 6 8 8 24 32

Total # of neighbors = 8238189
Ave neighs/atom = 28.530426
Neighbor list builds = 0
Dangerous builds = 0
The dot product: -2.92738426130448e-08
Setting atom values ...
  1 settings made for x
  1 settings made for y
  1 settings made for z
Setting up cg style minimization ...
  Unit style    : metal
  Current step  : 7398
Per MPI rank memory allocation (min/avg/max) = 5.441 | 5.816 | 6.074 Mbytes
Step PotEng KinEng TotEng v_fx v_fy v_fz 
    7398   -1152449.3            0   -1152449.3 -0.039378586  0.029792929 -0.0047134445 
    7576   -1152449.3            0   -1152449.3 3.5061065e-05 1.8954695e-06 -3.3659812e-05 
Loop time of 2.07109 on 104 procs for 178 steps with 288751 atoms

99.9% CPU use with 104 MPI tasks x 1 OpenMP threads

Minimization stats:
  Stopping criterion = energy tolerance
  Energy initial, next-to-last, final = 
     -1152449.34121773  -1152449.34232179  -1152449.34232179
  Force two-norm initial, final = 0.14445638 0.00013855183
  Force max component initial, final = 0.067513762 3.5061065e-05
  Final line search alpha, max atom move = 1.0000000 3.5061065e-05
  Iterations, force evaluations = 178 356

MPI task timing breakdown:
Section |  min time  |  avg time  |  max time  |%varavg| %total
---------------------------------------------------------------
Pair    | 0.53907    | 1.4956     | 1.9541     |  33.0 | 72.21
Neigh   | 0          | 0          | 0          |   0.0 |  0.00
Comm    | 0.032619   | 0.33456    | 1.0069     |  48.8 | 16.15
Output  | 0          | 0          | 0          |   0.0 |  0.00
Modify  | 2.129e-05  | 0.0029394  | 0.0063023  |   2.6 |  0.14
Other   |            | 0.238      |            |       | 11.49

Nlocal:        2776.45 ave        3947 max           0 min
Histogram: 8 4 4 0 4 12 8 0 28 36
Nghost:        3878.69 ave        5428 max         232 min
Histogram: 8 0 8 0 16 0 8 8 16 40
Neighs:        79213.4 ave      115101 max           0 min
Histogram: 8 4 4 0 10 6 8 8 24 32

Total # of neighbors = 8238190
Ave neighs/atom = 28.530429
Neighbor list builds = 0
Dangerous builds = 0
The dot product: -8.93496460995848e-08
Setting atom values ...
  1 settings made for x
  1 settings made for y
  1 settings made for z
Setting up cg style minimization ...
  Unit style    : metal
  Current step  : 7576
Per MPI rank memory allocation (min/avg/max) = 5.441 | 5.816 | 6.074 Mbytes
Step PotEng KinEng TotEng v_fx v_fy v_fz 
    7576   -1152449.3            0   -1152449.3 -0.038257004  0.030024989 -0.0062848639 
    7768   -1152449.3            0   -1152449.3 2.3700039e-05 5.9671167e-06 -2.8899877e-05 
Loop time of 2.2736 on 104 procs for 192 steps with 288751 atoms

99.9% CPU use with 104 MPI tasks x 1 OpenMP threads

Minimization stats:
  Stopping criterion = energy tolerance
  Energy initial, next-to-last, final = 
     -1152449.34114344  -1152449.34225179  -1152449.34225179
  Force two-norm initial, final = 0.14450415 9.8618751e-05
  Force max component initial, final = 0.069045579 2.8899877e-05
  Final line search alpha, max atom move = 1.0000000 2.8899877e-05
  Iterations, force evaluations = 192 384

MPI task timing breakdown:
Section |  min time  |  avg time  |  max time  |%varavg| %total
---------------------------------------------------------------
Pair    | 0.58218    | 1.6227     | 2.1189     |  34.2 | 71.37
Neigh   | 0          | 0          | 0          |   0.0 |  0.00
Comm    | 0.03668    | 0.37017    | 1.1066     |  50.1 | 16.28
Output  | 0          | 0          | 0          |   0.0 |  0.00
Modify  | 2.5744e-05 | 0.0031717  | 0.0067622  |   2.7 |  0.14
Other   |            | 0.2775     |            |       | 12.21

Nlocal:        2776.45 ave        3945 max           0 min
Histogram: 8 4 4 0 4 12 8 0 28 36
Nghost:        3878.76 ave        5428 max         232 min
Histogram: 8 0 8 0 16 0 8 8 16 40
Neighs:        79213.4 ave      115044 max           0 min
Histogram: 8 4 4 0 10 6 8 8 24 32

Total # of neighbors = 8238192
Ave neighs/atom = 28.530436
Neighbor list builds = 0
Dangerous builds = 0
The dot product: -5.04229618919555e-08
Setting atom values ...
  1 settings made for x
  1 settings made for y
  1 settings made for z
Setting up cg style minimization ...
  Unit style    : metal
  Current step  : 7768
Per MPI rank memory allocation (min/avg/max) = 5.441 | 5.816 | 6.074 Mbytes
Step PotEng KinEng TotEng v_fx v_fy v_fz 
    7768   -1152449.3            0   -1152449.3 -0.038237817  0.030478246 -0.0071703612 
    7957   -1152449.3            0   -1152449.3 -1.4796726e-05 6.2370892e-06 4.6596588e-06 
Loop time of 2.20618 on 104 procs for 189 steps with 288751 atoms

99.9% CPU use with 104 MPI tasks x 1 OpenMP threads

Minimization stats:
  Stopping criterion = energy tolerance
  Energy initial, next-to-last, final = 
     -1152449.33966258  -1152449.34077426  -1152449.34077426
  Force two-norm initial, final = 0.14464865 9.4377091e-05
  Force max component initial, final = 0.070524987 1.4796726e-05
  Final line search alpha, max atom move = 1.0000000 1.4796726e-05
  Iterations, force evaluations = 189 378

MPI task timing breakdown:
Section |  min time  |  avg time  |  max time  |%varavg| %total
---------------------------------------------------------------
Pair    | 0.57071    | 1.5876     | 2.0778     |  34.1 | 71.96
Neigh   | 0          | 0          | 0          |   0.0 |  0.00
Comm    | 0.036814   | 0.35622    | 1.0702     |  50.3 | 16.15
Output  | 0          | 0          | 0          |   0.0 |  0.00
Modify  | 2.3001e-05 | 0.0031228  | 0.0066705  |   2.6 |  0.14
Other   |            | 0.2592     |            |       | 11.75

Nlocal:        2776.45 ave        3945 max           0 min
Histogram: 8 4 4 0 4 12 8 0 28 36
Nghost:        3878.75 ave        5428 max         232 min
Histogram: 8 0 8 0 16 0 8 8 16 40
Neighs:        79213.4 ave      115046 max           0 min
Histogram: 8 4 4 0 10 6 8 8 24 32

Total # of neighbors = 8238194
Ave neighs/atom = 28.530443
Neighbor list builds = 0
Dangerous builds = 0
The dot product: 5.13236157406757e-08
Setting atom values ...
  1 settings made for x
  1 settings made for y
  1 settings made for z
Setting up cg style minimization ...
  Unit style    : metal
  Current step  : 7957
Per MPI rank memory allocation (min/avg/max) = 5.441 | 5.816 | 6.074 Mbytes
Step PotEng KinEng TotEng v_fx v_fy v_fz 
    7957   -1152449.3            0   -1152449.3 -0.040218405  0.031329063 -0.0068541573 
    8000   -1152449.3            0   -1152449.3 -9.6287361e-06 -2.0371414e-05 3.5737173e-05 
    8120   -1152449.3            0   -1152449.3 -7.095113e-06 -2.8116121e-05 4.3908369e-05 
Loop time of 1.89634 on 104 procs for 163 steps with 288751 atoms

99.9% CPU use with 104 MPI tasks x 1 OpenMP threads

Minimization stats:
  Stopping criterion = energy tolerance
  Energy initial, next-to-last, final = 
     -1152449.33689875  -1152449.33802552  -1152449.33802552
  Force two-norm initial, final = 0.14534025 0.00021338098
  Force max component initial, final = 0.071938627 5.8270489e-05
  Final line search alpha, max atom move = 1.0000000 5.8270489e-05
  Iterations, force evaluations = 163 326

MPI task timing breakdown:
Section |  min time  |  avg time  |  max time  |%varavg| %total
---------------------------------------------------------------
Pair    | 0.49384    | 1.3748     | 1.7902     |  31.6 | 72.50
Neigh   | 0          | 0          | 0          |   0.0 |  0.00
Comm    | 0.02905    | 0.30931    | 0.93081    |  46.7 | 16.31
Output  | 9.5291e-05 | 0.00010243 | 0.00019438 |   0.0 |  0.01
Modify  | 1.9762e-05 | 0.0026951  | 0.0057783  |   2.5 |  0.14
Other   |            | 0.2095     |            |       | 11.05

Nlocal:        2776.45 ave        3945 max           0 min
Histogram: 8 4 4 0 4 12 8 0 28 36
Nghost:        3878.73 ave        5428 max         232 min
Histogram: 8 0 8 0 16 0 8 8 16 40
Neighs:        79213.4 ave      115047 max           0 min
Histogram: 8 4 4 0 10 6 8 8 24 32

Total # of neighbors = 8238192
Ave neighs/atom = 28.530436
Neighbor list builds = 0
Dangerous builds = 0
The dot product: -3.32070324008237e-08
Setting atom values ...
  1 settings made for x
  1 settings made for y
  1 settings made for z
Setting up cg style minimization ...
  Unit style    : metal
  Current step  : 8120
Per MPI rank memory allocation (min/avg/max) = 5.441 | 5.816 | 6.074 Mbytes
Step PotEng KinEng TotEng v_fx v_fy v_fz 
    8120   -1152449.3            0   -1152449.3 -0.045428706  0.032786543 -0.0046254557 
[...]
Histogram: 8 0 8 0 16 0 8 8 16 40
Neighs:        79213.4 ave      114551 max           0 min
Histogram: 8 4 4 0 8 8 8 6 22 36

Total # of neighbors = 8238196
Ave neighs/atom = 28.530450
Neighbor list builds = 0
Dangerous builds = 0
The dot product: -3.90672328364119e-08
Setting atom values ...
  1 settings made for x
  1 settings made for y
  1 settings made for z
Setting up cg style minimization ...
  Unit style    : metal
  Current step  : 28884
Per MPI rank memory allocation (min/avg/max) = 5.441 | 5.816 | 6.074 Mbytes
Step PotEng KinEng TotEng v_fx v_fy v_fz 
   28884   -1152449.4            0   -1152449.4  0.026385114  0.017206471 -0.033917759 
   29000   -1152449.4            0   -1152449.4 -0.0001013828 1.2928547e-05 4.404114e-05 
   29056   -1152449.4            0   -1152449.4 1.6963575e-05 2.7406673e-05 -3.9648239e-05 
Loop time of 1.99108 on 104 procs for 172 steps with 288751 atoms

99.9% CPU use with 104 MPI tasks x 1 OpenMP threads

Minimization stats:
  Stopping criterion = energy tolerance
  Energy initial, next-to-last, final = 
     -1152449.40850272  -1152449.40997808  -1152449.40997808
  Force two-norm initial, final = 0.17741374 0.00018133536
  Force max component initial, final = 0.082342395 3.9648239e-05
  Final line search alpha, max atom move = 1.0000000 3.9648239e-05
  Iterations, force evaluations = 172 344

MPI task timing breakdown:
Section |  min time  |  avg time  |  max time  |%varavg| %total
---------------------------------------------------------------
Pair    | 0.5208     | 1.4476     | 1.8746     |  32.5 | 72.71
Neigh   | 0          | 0          | 0          |   0.0 |  0.00
Comm    | 0.031421   | 0.32783    | 0.99187    |  48.1 | 16.46
Output  | 9.6384e-05 | 0.00010286 | 0.00026028 |   0.0 |  0.01
Modify  | 2.0189e-05 | 0.0028414  | 0.0060476  |   2.5 |  0.14
Other   |            | 0.2127     |            |       | 10.68

Nlocal:        2776.45 ave        3930 max           0 min
Histogram: 8 4 4 0 4 12 8 0 26 38
Nghost:        3878.09 ave        5431 max         232 min
Histogram: 8 0 8 0 16 0 8 8 16 40
Neighs:        79213.4 ave      114551 max           0 min
Histogram: 8 4 4 0 8 8 8 6 22 36

Total # of neighbors = 8238194
Ave neighs/atom = 28.530443
Neighbor list builds = 0
Dangerous builds = 0
The dot product: 9.64529476953085e-08
Setting atom values ...
  1 settings made for x
  1 settings made for y
  1 settings made for z
Setting up cg style minimization ...
  Unit style    : metal
  Current step  : 29056
Per MPI rank memory allocation (min/avg/max) = 5.441 | 5.816 | 6.074 Mbytes
Step PotEng KinEng TotEng v_fx v_fy v_fz 
   29056   -1152449.4            0   -1152449.4  0.027218474   0.01381411 -0.030734275 
   29236   -1152449.4            0   -1152449.4 2.2007761e-05 4.1710095e-06 -1.7201499e-05 
Loop time of 2.08926 on 104 procs for 180 steps with 288751 atoms

99.9% CPU use with 104 MPI tasks x 1 OpenMP threads

Minimization stats:
  Stopping criterion = energy tolerance
  Energy initial, next-to-last, final = 
     -1152449.41178726   -1152449.4132899   -1152449.4132899
  Force two-norm initial, final = 0.17762693 0.00014859244
  Force max component initial, final = 0.081766835 2.6725492e-05
  Final line search alpha, max atom move = 1.0000000 2.6725492e-05
  Iterations, force evaluations = 180 360

MPI task timing breakdown:
Section |  min time  |  avg time  |  max time  |%varavg| %total
---------------------------------------------------------------
Pair    | 0.54653    | 1.5147     | 1.9682     |  33.2 | 72.50
Neigh   | 0          | 0          | 0          |   0.0 |  0.00
Comm    | 0.030819   | 0.34303    | 1.0332     |  49.0 | 16.42
Output  | 0          | 0          | 0          |   0.0 |  0.00
Modify  | 2.1374e-05 | 0.002973   | 0.0064008  |   2.6 |  0.14
Other   |            | 0.2285     |            |       | 10.94

Nlocal:        2776.45 ave        3930 max           0 min
Histogram: 8 4 4 0 4 12 8 0 26 38
Nghost:        3878.09 ave        5431 max         232 min
Histogram: 8 0 8 0 16 0 8 8 16 40
Neighs:        79213.4 ave      114542 max           0 min
Histogram: 8 4 4 0 8 8 8 6 22 36

Total # of neighbors = 8238197
Ave neighs/atom = 28.530454
Neighbor list builds = 0
Dangerous builds = 0
The dot product: 4.21976100368246e-08
Setting atom values ...
  1 settings made for x
  1 settings made for y
  1 settings made for z
Setting up cg style minimization ...
  Unit style    : metal
  Current step  : 29236
Per MPI rank memory allocation (min/avg/max) = 5.441 | 5.816 | 6.074 Mbytes
Step PotEng KinEng TotEng v_fx v_fy v_fz 
   29236   -1152449.4            0   -1152449.4  0.023440075  0.020039093 -0.035399594 
   29410   -1152449.4            0   -1152449.4 3.5752478e-06 3.6679112e-05 -4.2166029e-05 
Loop time of 2.02845 on 104 procs for 174 steps with 288751 atoms

99.9% CPU use with 104 MPI tasks x 1 OpenMP threads

Minimization stats:
  Stopping criterion = energy tolerance
  Energy initial, next-to-last, final = 
     -1152449.41332202  -1152449.41484887  -1152449.41484887
  Force two-norm initial, final = 0.17865015 0.00022580488
  Force max component initial, final = 0.081178497 5.3631449e-05
  Final line search alpha, max atom move = 1.0000000 5.3631449e-05
  Iterations, force evaluations = 174 348

MPI task timing breakdown:
Section |  min time  |  avg time  |  max time  |%varavg| %total
---------------------------------------------------------------
Pair    | 0.52463    | 1.4647     | 1.9143     |  32.8 | 72.21
Neigh   | 0          | 0          | 0          |   0.0 |  0.00
Comm    | 0.029767   | 0.33349    | 1.0036     |  48.0 | 16.44
Output  | 0          | 0          | 0          |   0.0 |  0.00
Modify  | 2.0458e-05 | 0.0028731  | 0.0061849  |   2.5 |  0.14
Other   |            | 0.2274     |            |       | 11.21

Nlocal:        2776.45 ave        3930 max           0 min
Histogram: 8 4 4 0 4 12 8 0 26 38
Nghost:        3878.16 ave        5431 max         232 min
Histogram: 8 0 8 0 16 0 8 8 16 40
Neighs:        79213.4 ave      114542 max           0 min
Histogram: 8 4 4 0 8 8 8 6 22 36

Total # of neighbors = 8238197
Ave neighs/atom = 28.530454
Neighbor list builds = 0
Dangerous builds = 0
The dot product: 9.86976745708776e-08
Setting atom values ...
  1 settings made for x
  1 settings made for y
  1 settings made for z
Setting up cg style minimization ...
  Unit style    : metal
  Current step  : 29410
Per MPI rank memory allocation (min/avg/max) = 5.441 | 5.816 | 6.074 Mbytes
Step PotEng KinEng TotEng v_fx v_fy v_fz 
   29410   -1152449.4            0   -1152449.4  0.020418138  0.027521551 -0.041894688 
   29652   -1152449.4            0   -1152449.4 1.1444964e-06 -1.3434068e-06 8.1145838e-07 
Loop time of 2.82401 on 104 procs for 242 steps with 288751 atoms

99.9% CPU use with 104 MPI tasks x 1 OpenMP threads

Minimization stats:
  Stopping criterion = energy tolerance
  Energy initial, next-to-last, final = 
     -1152449.41305412  -1152449.41461112  -1152449.41461112
  Force two-norm initial, final = 0.1808813 1.3349304e-05
  Force max component initial, final = 0.080432049 3.3338765e-06
  Final line search alpha, max atom move = 1.0000000 3.3338765e-06
  Iterations, force evaluations = 242 484

MPI task timing breakdown:
Section |  min time  |  avg time  |  max time  |%varavg| %total
---------------------------------------------------------------
Pair    | 0.73133    | 2.0363     | 2.657      |  38.6 | 72.10
Neigh   | 0          | 0          | 0          |   0.0 |  0.00
Comm    | 0.044083   | 0.46238    | 1.3901     |  56.7 | 16.37
Output  | 0          | 0          | 0          |   0.0 |  0.00
Modify  | 2.7903e-05 | 0.0039951  | 0.0086258  |   3.0 |  0.14
Other   |            | 0.3214     |            |       | 11.38

Nlocal:        2776.45 ave        3931 max           0 min
Histogram: 8 4 4 0 4 12 8 0 26 38
Nghost:        3878.16 ave        5431 max         232 min
Histogram: 8 0 8 0 16 0 8 8 16 40
Neighs:        79213.5 ave      114588 max           0 min
Histogram: 8 4 4 0 8 8 8 6 22 36

Total # of neighbors = 8238199
Ave neighs/atom = 28.530461
Neighbor list builds = 0
Dangerous builds = 0
The dot product: -5.22691074450296e-09
Setting atom values ...
  1 settings made for x
  1 settings made for y
  1 settings made for z
Setting up cg style minimization ...
  Unit style    : metal
  Current step  : 29652
Per MPI rank memory allocation (min/avg/max) = 5.441 | 5.816 | 6.074 Mbytes
Step PotEng KinEng TotEng v_fx v_fy v_fz 
   29652   -1152449.4            0   -1152449.4  0.020732206  0.028892592 -0.043671953 
   29876   -1152449.4            0   -1152449.4 3.7714539e-06 2.6639337e-06 -5.0996436e-06 
Loop time of 2.60665 on 104 procs for 224 steps with 288751 atoms

99.9% CPU use with 104 MPI tasks x 1 OpenMP threads

Minimization stats:
  Stopping criterion = energy tolerance
  Energy initial, next-to-last, final = 
     -1152449.41113638  -1152449.41268881  -1152449.41268881
  Force two-norm initial, final = 0.18078732 2.8524745e-05
  Force max component initial, final = 0.079478639 5.0996436e-06
  Final line search alpha, max atom move = 1.0000000 5.0996436e-06
  Iterations, force evaluations = 224 448

MPI task timing breakdown:
Section |  min time  |  avg time  |  max time  |%varavg| %total
---------------------------------------------------------------
Pair    | 0.67905    | 1.8833     | 2.4505     |  37.0 | 72.25
Neigh   | 0          | 0          | 0          |   0.0 |  0.00
Comm    | 0.038331   | 0.42369    | 1.2755     |  54.7 | 16.25
Output  | 0          | 0          | 0          |   0.0 |  0.00
Modify  | 2.6109e-05 | 0.0036949  | 0.0078869  |   2.9 |  0.14
Other   |            | 0.296      |            |       | 11.36

Nlocal:        2776.45 ave        3931 max           0 min
Histogram: 8 4 4 0 4 12 8 0 26 38
Nghost:        3878.16 ave        5431 max         232 min
Histogram: 8 0 8 0 16 0 8 8 16 40
Neighs:        79213.5 ave      114586 max           0 min
Histogram: 8 4 4 0 8 8 8 6 22 36

Total # of neighbors = 8238203
Ave neighs/atom = 28.530474
Neighbor list builds = 0
Dangerous builds = 0
The dot product: 2.31938945060091e-08
Setting atom values ...
  1 settings made for x
  1 settings made for y
  1 settings made for z
Setting up cg style minimization ...
  Unit style    : metal
  Current step  : 29876
Per MPI rank memory allocation (min/avg/max) = 5.441 | 5.816 | 6.074 Mbytes
Step PotEng KinEng TotEng v_fx v_fy v_fz 
   29876   -1152449.4            0   -1152449.4  0.022630248  0.026848926 -0.042629976 
   30000   -1152449.4            0   -1152449.4 5.3584744e-05 -4.0124293e-05 1.3200343e-05 
   30076   -1152449.4            0   -1152449.4 -1.481279e-05 2.3090063e-05 -1.6855587e-05 
Loop time of 2.3185 on 104 procs for 200 steps with 288751 atoms

99.9% CPU use with 104 MPI tasks x 1 OpenMP threads

Minimization stats:
  Stopping criterion = energy tolerance
  Energy initial, next-to-last, final = 
     -1152449.40757295  -1152449.40908972  -1152449.40908972
  Force two-norm initial, final = 0.17873571 9.5698353e-05
  Force max component initial, final = 0.078503302 2.4916808e-05
  Final line search alpha, max atom move = 1.0000000 2.4916808e-05
  Iterations, force evaluations = 200 400

MPI task timing breakdown:
Section |  min time  |  avg time  |  max time  |%varavg| %total
---------------------------------------------------------------
Pair    | 0.60756    | 1.6852     | 2.1865     |  35.0 | 72.69
Neigh   | 0          | 0          | 0          |   0.0 |  0.00
Comm    | 0.040694   | 0.37863    | 1.1455     |  51.9 | 16.33
Output  | 9.5004e-05 | 0.00010807 | 0.00027452 |   0.0 |  0.00
Modify  | 2.354e-05  | 0.0033056  | 0.0071261  |   2.7 |  0.14
Other   |            | 0.2512     |            |       | 10.84

Nlocal:        2776.45 ave        3931 max           0 min
Histogram: 8 4 4 0 4 12 8 0 26 38
Nghost:        3878.20 ave        5431 max         232 min
Histogram: 8 0 8 0 16 0 8 8 16 40
Neighs:        79213.5 ave      114583 max           0 min
Histogram: 8 4 4 0 8 8 8 6 22 36

Total # of neighbors = 8238200
Ave neighs/atom = 28.530464
Neighbor list builds = 0
Dangerous builds = 0
The dot product: 1.03142209395317e-07
Setting atom values ...
  1 settings made for x
  1 settings made for y
  1 settings made for z
Setting up cg style minimization ...
  Unit style    : metal
  Current step  : 30076
Per MPI rank memory allocation (min/avg/max) = 5.441 | 5.816 | 6.074 Mbytes
Step PotEng KinEng TotEng v_fx v_fy v_fz 
   30076   -1152449.4            0   -1152449.4   0.02523707  0.024195469 -0.041311558 
   30272   -1152449.4            0   -1152449.4 -3.3300204e-06 1.6234369e-05 -1.5989179e-05 
Loop time of 2.27355 on 104 procs for 196 steps with 288751 atoms

99.9% CPU use with 104 MPI tasks x 1 OpenMP threads

Minimization stats:
  Stopping criterion = energy tolerance
  Energy initial, next-to-last, final = 
     -1152449.40234136  -1152449.40381196  -1152449.40381196
  Force two-norm initial, final = 0.17627856 0.00011068962
  Force max component initial, final = 0.077490829 2.8145448e-05
  Final line search alpha, max atom move = 1.0000000 2.8145448e-05
  Iterations, force evaluations = 196 392

MPI task timing breakdown:
Section |  min time  |  avg time  |  max time  |%varavg| %total
---------------------------------------------------------------
Pair    | 0.59339    | 1.6473     | 2.1423     |  34.6 | 72.45
Neigh   | 0          | 0          | 0          |   0.0 |  0.00
Comm    | 0.034935   | 0.37164    | 1.1091     |  51.0 | 16.35
Output  | 0          | 0          | 0          |   0.0 |  0.00
Modify  | 2.2862e-05 | 0.0032244  | 0.0068961  |   2.7 |  0.14
Other   |            | 0.2514     |            |       | 11.06

Nlocal:        2776.45 ave        3932 max           0 min
Histogram: 8 4 4 0 4 12 8 0 26 38
Nghost:        3878.32 ave        5432 max         232 min
Histogram: 8 0 8 0 16 0 8 8 16 40
Neighs:        79213.5 ave      114612 max           0 min
Histogram: 8 4 4 0 8 8 8 6 22 36

Total # of neighbors = 8238203
Ave neighs/atom = 28.530474
Neighbor list builds = 0
Dangerous builds = 0
The dot product: 7.8522082194237e-08
Setting atom values ...
  1 settings made for x
  1 settings made for y
  1 settings made for z
Setting up cg style minimization ...
  Unit style    : metal
  Current step  : 30272
Per MPI rank memory allocation (min/avg/max) = 5.441 | 5.816 | 6.074 Mbytes
Step PotEng KinEng TotEng v_fx v_fy v_fz 
   30272   -1152449.4            0   -1152449.4  0.028602503  0.020893663 -0.039702779 
   30480   -1152449.4            0   -1152449.4 1.1611017e-05 1.4758502e-06 -8.3664268e-06 
Loop time of 2.45332 on 104 procs for 208 steps with 288751 atoms

99.9% CPU use with 104 MPI tasks x 1 OpenMP threads

Minimization stats:
  Stopping criterion = energy tolerance
  Energy initial, next-to-last, final = 
     -1152449.39546628  -1152449.39688403  -1152449.39688403
  Force two-norm initial, final = 0.17375375 6.4141861e-05
  Force max component initial, final = 0.076506787 1.1611017e-05
  Final line search alpha, max atom move = 1.0000000 1.1611017e-05
  Iterations, force evaluations = 208 416

MPI task timing breakdown:
Section |  min time  |  avg time  |  max time  |%varavg| %total
---------------------------------------------------------------
Pair    | 0.63037    | 1.7562     | 2.2813     |  35.8 | 71.59
Neigh   | 0          | 0          | 0          |   0.0 |  0.00
Comm    | 0.035922   | 0.40101    | 1.1941     |  52.1 | 16.35
Output  | 0          | 0          | 0          |   0.0 |  0.00
Modify  | 2.4737e-05 | 0.0034349  | 0.0074019  |   2.8 |  0.14
Other   |            | 0.2927     |            |       | 11.93

Nlocal:        2776.45 ave        3932 max           0 min
Histogram: 8 4 4 0 4 12 8 0 26 38
Nghost:        3878.28 ave        5432 max         232 min
Histogram: 8 0 8 0 16 0 8 8 16 40
Neighs:        79213.5 ave      114612 max           0 min
Histogram: 8 4 4 0 8 8 8 6 22 36

Total # of neighbors = 8238201
Ave neighs/atom = 28.530467
Neighbor list builds = 0
Dangerous builds = 0
The dot product: 3.5098208982073e-08
Setting atom values ...
  1 settings made for x
  1 settings made for y
  1 settings made for z
Setting up cg style minimization ...
  Unit style    : metal
  Current step  : 30480
Per MPI rank memory allocation (min/avg/max) = 5.441 | 5.816 | 6.074 Mbytes
Step PotEng KinEng TotEng v_fx v_fy v_fz 
   30480   -1152449.4            0   -1152449.4  0.032856499   0.01683137 -0.037756739 
   30671   -1152449.4            0   -1152449.4 -7.9670335e-06 -1.4462383e-05 2.0665285e-05 
Loop time of 2.21911 on 104 procs for 191 steps with 288751 atoms

99.9% CPU use with 104 MPI tasks x 1 OpenMP threads

Minimization stats:
  Stopping criterion = energy tolerance
  Energy initial, next-to-last, final = 
     -1152449.38700649  -1152449.38836957  -1152449.38836957
  Force two-norm initial, final = 0.17152406 0.00010898698
  Force max component initial, final = 0.076848985 2.0665285e-05
  Final line search alpha, max atom move = 1.0000000 2.0665285e-05
  Iterations, force evaluations = 191 382

MPI task timing breakdown:
Section |  min time  |  avg time  |  max time  |%varavg| %total
---------------------------------------------------------------
Pair    | 0.58067    | 1.6075     | 2.084      |  34.1 | 72.44
Neigh   | 0          | 0          | 0          |   0.0 |  0.00
Comm    | 0.033491   | 0.36457    | 1.1001     |  50.6 | 16.43
Output  | 0          | 0          | 0          |   0.0 |  0.00
Modify  | 2.2487e-05 | 0.0031553  | 0.0067475  |   2.7 |  0.14
Other   |            | 0.2439     |            |       | 10.99

Nlocal:        2776.45 ave        3933 max           0 min
Histogram: 8 4 4 0 4 12 8 0 26 38
Nghost:        3878.30 ave        5432 max         232 min
Histogram: 8 0 8 0 16 0 8 8 16 40
Neighs:        79213.5 ave      114643 max           0 min
Histogram: 8 4 4 0 8 8 8 6 24 34

Total # of neighbors = 8238201
Ave neighs/atom = 28.530467
Neighbor list builds = 0
Dangerous builds = 0
The dot product: -8.39119992800699e-08
Setting atom values ...
  1 settings made for x
  1 settings made for y
  1 settings made for z
Setting up cg style minimization ...
  Unit style    : metal
  Current step  : 30671
Per MPI rank memory allocation (min/avg/max) = 5.441 | 5.816 | 6.074 Mbytes
Step PotEng KinEng TotEng v_fx v_fy v_fz 
   30671   -1152449.4            0   -1152449.4  0.039471186  0.010591599 -0.034763179 
   30836   -1152449.4            0   -1152449.4 3.5894851e-05 -5.8660437e-05 4.4250337e-05 
Loop time of 1.95673 on 104 procs for 165 steps with 288751 atoms

99.9% CPU use with 104 MPI tasks x 1 OpenMP threads

Minimization stats:
  Stopping criterion = energy tolerance
  Energy initial, next-to-last, final = 
     -1152449.37710684  -1152449.37842275  -1152449.37842275
  Force two-norm initial, final = 0.17018394 0.00022807943
  Force max component initial, final = 0.077207131 5.8660437e-05
  Final line search alpha, max atom move = 1.0000000 5.8660437e-05
  Iterations, force evaluations = 165 330

MPI task timing breakdown:
Section |  min time  |  avg time  |  max time  |%varavg| %total
---------------------------------------------------------------
Pair    | 0.50074    | 1.3912     | 1.8107     |  31.8 | 71.10
Neigh   | 0          | 0          | 0          |   0.0 |  0.00
Comm    | 0.029179   | 0.32027    | 0.95245    |  46.0 | 16.37
Output  | 0          | 0          | 0          |   0.0 |  0.00
Modify  | 1.9567e-05 | 0.0027274  | 0.0059608  |   2.5 |  0.14
Other   |            | 0.2425     |            |       | 12.39

Nlocal:        2776.45 ave        3933 max           0 min
Histogram: 8 4 4 0 4 12 8 0 26 38
Nghost:        3878.26 ave        5432 max         232 min
Histogram: 8 0 8 0 16 0 8 8 16 40
Neighs:        79213.5 ave      114644 max           0 min
Histogram: 8 4 4 0 8 8 8 6 24 34

Total # of neighbors = 8238199
Ave neighs/atom = 28.530461
Neighbor list builds = 0
Dangerous builds = 0
The dot product: -2.20222057961016e-08
