LAMMPS (29 Oct 2020)
OMP_NUM_THREADS environment is not set. Defaulting to 1 thread. (../comm.cpp:94)
  using 1 OpenMP thread(s) per MPI task
OMP_NUM_THREADS environment is not set. Defaulting to 1 thread. (../comm.cpp:94)
  using 1 OpenMP thread(s) per MPI task
Reading data file ...
  orthogonal box = (-122.39241 -121.13707 -37.090501) to (122.39241 121.13707 37.090501)
  13 by 4 by 1 MPI processor grid
  reading atoms ...
  288751 atoms
  read_data CPU = 0.459 seconds
199981 atoms in group inner
88770 atoms in group outer
1 atoms in group carbon
Neighbor list info ...
  update every 1 steps, delay 0 steps, check yes
  max neighbors/atom: 2000, page size: 100000
  master list distance cutoff = 5.6
  ghost atom cutoff = 5.6
  binsize = 2.8, bins = 88 87 27
  1 neighbor lists, perpetual/occasional/extra = 1 0 0
  (1) pair eam/alloy, perpetual
      attributes: half, newton on
      pair build: half/bin/atomonly/newton
      stencil: half/bin/3d/newton
      bin: standard
Setting up cg style minimization ...
  Unit style    : metal
  Current step  : 0
Per MPI rank memory allocation (min/avg/max) = 5.465 | 6.344 | 6.728 Mbytes
Step v_fx v_fy v_fz PotEng KinEng TotEng 
       0   0.10937674 -0.062199325  0.040991836   -1152444.6            0   -1152444.6 
     225 -1.0253987e-05 -1.9114782e-05 -2.445691e-05     -1152449            0     -1152449 
Loop time of 5.01297 on 52 procs for 225 steps with 288751 atoms

99.8% CPU use with 52 MPI tasks x 1 OpenMP threads

Minimization stats:
  Stopping criterion = energy tolerance
  Energy initial, next-to-last, final = 
     -1152444.63021969   -1152448.9721878   -1152448.9721878
  Force two-norm initial, final = 23.793688 0.00016776909
  Force max component initial, final = 12.007177 3.5027867e-05
  Final line search alpha, max atom move = 1.0000000 3.5027867e-05
  Iterations, force evaluations = 225 447

MPI task timing breakdown:
Section |  min time  |  avg time  |  max time  |%varavg| %total
---------------------------------------------------------------
Pair    | 1.3297     | 3.588      | 4.7275     |  51.4 | 71.57
Neigh   | 0.00016537 | 0.042614   | 0.063321   |   8.7 |  0.85
Comm    | 0.070004   | 0.80113    | 2.5066     |  79.4 | 15.98
Output  | 0          | 0          | 0          |   0.0 |  0.00
Modify  | 5.2597e-05 | 0.0049383  | 0.012356   |   4.3 |  0.10
Other   |            | 0.5763     |            |       | 11.50

Nlocal:        5552.90 ave        7906 max           0 min
Histogram: 4 2 2 0 2 6 4 0 15 17
Nghost:        6213.58 ave        8769 max         412 min
Histogram: 4 0 4 0 8 0 4 5 7 20
Neighs:       158427.0 ave      230505 max           0 min
Histogram: 4 2 2 0 5 3 4 4 12 16

Total # of neighbors = 8238215
Ave neighs/atom = 28.530516
Neighbor list builds = 7
Dangerous builds = 0
Setting atom values ...
  1 settings made for x
  1 settings made for y
  1 settings made for z
Setting up cg style minimization ...
  Unit style    : metal
  Current step  : 225
Per MPI rank memory allocation (min/avg/max) = 5.465 | 6.344 | 6.728 Mbytes
Step PotEng KinEng TotEng v_fx v_fy v_fz 
     225     -1152449            0     -1152449 -0.005734826 -3.9579436e-05 0.0099805005 
     624     -1152449            0     -1152449 -2.8778802e-05 -6.6646795e-05 -7.6070814e-05 
Loop time of 8.87434 on 52 procs for 399 steps with 288751 atoms

99.9% CPU use with 52 MPI tasks x 1 OpenMP threads

Minimization stats:
  Stopping criterion = linesearch alpha is zero
  Energy initial, next-to-last, final = 
     -1152448.96871959  -1152448.97097139  -1152448.97097139
  Force two-norm initial, final = 0.20131807 0.0002832438
  Force max component initial, final = 0.11388355 7.6070814e-05
  Final line search alpha, max atom move = 0.125 9.5088517e-06
  Iterations, force evaluations = 399 803

MPI task timing breakdown:
Section |  min time  |  avg time  |  max time  |%varavg| %total
---------------------------------------------------------------
Pair    | 2.254      | 6.3915     | 8.5111     |  70.5 | 72.02
Neigh   | 0          | 0          | 0          |   0.0 |  0.00
Comm    | 0.11363    | 1.4232     | 4.4162     | 105.8 | 16.04
Output  | 0          | 0          | 0          |   0.0 |  0.00
Modify  | 0.00018584 | 0.013455   | 0.029268   |   5.5 |  0.15
Other   |            | 1.046      |            |       | 11.79

Nlocal:        5552.90 ave        7906 max           0 min
Histogram: 4 2 2 0 2 6 4 0 15 17
Nghost:        6213.62 ave        8769 max         412 min
Histogram: 4 0 4 0 8 0 4 5 7 20
Neighs:       158427.0 ave      230483 max           0 min
Histogram: 4 2 2 0 5 3 4 4 12 16

Total # of neighbors = 8238206
Ave neighs/atom = 28.530485
Neighbor list builds = 0
Dangerous builds = 0
Setting atom values ...
  1 settings made for x
  1 settings made for y
  1 settings made for z
Setting up cg style minimization ...
  Unit style    : metal
  Current step  : 624
Per MPI rank memory allocation (min/avg/max) = 5.465 | 6.344 | 6.728 Mbytes
Step PotEng KinEng TotEng v_fx v_fy v_fz 
     624     -1152449            0     -1152449 -0.016204155 -0.012531176 0.00027164969 
     860     -1152449            0     -1152449 2.1462093e-06 1.0793764e-05 7.4847745e-06 
Loop time of 5.15773 on 52 procs for 236 steps with 288751 atoms

99.9% CPU use with 52 MPI tasks x 1 OpenMP threads

Minimization stats:
  Stopping criterion = linesearch alpha is zero
  Energy initial, next-to-last, final = 
     -1152448.96772697  -1152448.96931228  -1152448.96931228
  Force two-norm initial, final = 0.14660939 4.7005266e-05
  Force max component initial, final = 0.071089001 1.0793764e-05
  Final line search alpha, max atom move = 0.5 5.3968820e-06
  Iterations, force evaluations = 236 473

MPI task timing breakdown:
Section |  min time  |  avg time  |  max time  |%varavg| %total
---------------------------------------------------------------
Pair    | 1.3329     | 3.7553     | 4.9597     |  53.8 | 72.81
Neigh   | 0          | 0          | 0          |   0.0 |  0.00
Comm    | 0.061853   | 0.8263     | 2.6114     |  82.7 | 16.02
Output  | 0          | 0          | 0          |   0.0 |  0.00
Modify  | 9.7075e-05 | 0.0078748  | 0.016614   |   4.1 |  0.15
Other   |            | 0.5683     |            |       | 11.02

Nlocal:        5552.90 ave        7907 max           0 min
Histogram: 4 2 2 0 2 6 4 0 15 17
Nghost:        6213.69 ave        8770 max         412 min
Histogram: 4 0 4 0 8 0 4 5 7 20
Neighs:       158427.0 ave      230507 max           0 min
Histogram: 4 2 2 0 5 3 4 4 12 16

Total # of neighbors = 8238200
Ave neighs/atom = 28.530464
Neighbor list builds = 0
Dangerous builds = 0
The dot product: 1.49036666033141e-07
Setting atom values ...
  1 settings made for x
  1 settings made for y
  1 settings made for z
Setting up cg style minimization ...
  Unit style    : metal
  Current step  : 860
Per MPI rank memory allocation (min/avg/max) = 5.465 | 6.344 | 6.728 Mbytes
Step PotEng KinEng TotEng v_fx v_fy v_fz 
     860     -1152449            0     -1152449 -0.014280095 -0.030093543 -0.0093465666 
    1000     -1152449            0     -1152449 -3.074456e-05 -0.00014003431 -5.4873711e-05 
    1019     -1152449            0     -1152449 -5.8518612e-06 -3.322125e-05 -1.3477659e-05 
Loop time of 3.57242 on 52 procs for 159 steps with 288751 atoms

99.9% CPU use with 52 MPI tasks x 1 OpenMP threads

Minimization stats:
  Stopping criterion = linesearch alpha is zero
  Energy initial, next-to-last, final = 
     -1152448.96515841  -1152448.96739808  -1152448.96739808
  Force two-norm initial, final = 0.16175911 0.00021663778
  Force max component initial, final = 0.083962962 4.1438764e-05
  Final line search alpha, max atom move = 0.25 1.0359691e-05
  Iterations, force evaluations = 159 321

MPI task timing breakdown:
Section |  min time  |  avg time  |  max time  |%varavg| %total
---------------------------------------------------------------
Pair    | 0.89705    | 2.5676     | 3.4208     |  44.7 | 71.87
Neigh   | 0          | 0          | 0          |   0.0 |  0.00
Comm    | 0.042051   | 0.57461    | 1.7967     |  67.3 | 16.08
Output  | 0.00021531 | 0.00021984 | 0.00039978 |   0.0 |  0.01
Modify  | 7.3026e-05 | 0.0053074  | 0.011205   |   3.4 |  0.15
Other   |            | 0.4247     |            |       | 11.89

Nlocal:        5552.90 ave        7907 max           0 min
Histogram: 4 2 2 0 2 6 4 0 15 17
Nghost:        6213.62 ave        8769 max         412 min
Histogram: 4 0 4 0 8 0 4 5 7 20
Neighs:       158427.0 ave      230525 max           0 min
Histogram: 4 2 2 0 5 3 4 4 12 16

Total # of neighbors = 8238205
Ave neighs/atom = 28.530481
Neighbor list builds = 0
Dangerous builds = 0
The dot product: -9.33570412322784e-07
Setting atom values ...
  1 settings made for x
  1 settings made for y
  1 settings made for z
Setting up cg style minimization ...
  Unit style    : metal
  Current step  : 1019
Per MPI rank memory allocation (min/avg/max) = 5.465 | 6.344 | 6.728 Mbytes
Step PotEng KinEng TotEng v_fx v_fy v_fz 
    1019     -1152449            0     -1152449 -0.0083049897 -0.041146752 -0.0016312968 
    1205     -1152449            0     -1152449 1.8899244e-06 6.1561436e-06 1.3532449e-07 
Loop time of 4.07959 on 52 procs for 186 steps with 288751 atoms

99.9% CPU use with 52 MPI tasks x 1 OpenMP threads

Minimization stats:
  Stopping criterion = linesearch alpha is zero
  Energy initial, next-to-last, final = 
     -1152448.96315743  -1152448.96579132  -1152448.96579132
  Force two-norm initial, final = 0.18826759 3.0102250e-05
  Force max component initial, final = 0.079789318 9.3907598e-06
  Final line search alpha, max atom move = 0.5 4.6953799e-06
  Iterations, force evaluations = 186 373

MPI task timing breakdown:
Section |  min time  |  avg time  |  max time  |%varavg| %total
---------------------------------------------------------------
Pair    | 1.0535     | 2.9632     | 3.9155     |  47.7 | 72.63
Neigh   | 0          | 0          | 0          |   0.0 |  0.00
Comm    | 0.051316   | 0.65362    | 2.0537     |  73.1 | 16.02
Output  | 0          | 0          | 0          |   0.0 |  0.00
Modify  | 9.0195e-05 | 0.0062357  | 0.013161   |   3.7 |  0.15
Other   |            | 0.4565     |            |       | 11.19

Nlocal:        5552.90 ave        7910 max           0 min
Histogram: 4 2 2 0 2 6 4 0 15 17
Nghost:        6213.62 ave        8769 max         412 min
Histogram: 4 0 4 0 8 0 4 5 7 20
Neighs:       158427.0 ave      230647 max           0 min
Histogram: 4 2 2 0 5 3 4 4 12 16

Total # of neighbors = 8238212
Ave neighs/atom = 28.530506
Neighbor list builds = 0
Dangerous builds = 0
The dot product: 1.00922836796044e-07
Setting atom values ...
  1 settings made for x
  1 settings made for y
  1 settings made for z
Setting up cg style minimization ...
  Unit style    : metal
  Current step  : 1205
Per MPI rank memory allocation (min/avg/max) = 5.465 | 6.344 | 6.728 Mbytes
Step PotEng KinEng TotEng v_fx v_fy v_fz 
    1205     -1152449            0     -1152449 -0.0033040244  -0.05515204 0.0060034989 
    1379     -1152449            0     -1152449 1.5745999e-05 3.7557829e-05 -5.9844215e-06 
Loop time of 3.80878 on 52 procs for 174 steps with 288751 atoms

99.9% CPU use with 52 MPI tasks x 1 OpenMP threads

Minimization stats:
  Stopping criterion = energy tolerance
  Energy initial, next-to-last, final = 
      -1152448.9612575  -1152448.96437147  -1152448.96437147
  Force two-norm initial, final = 0.20434394 0.00031550453
  Force max component initial, final = 0.087547506 6.0082897e-05
  Final line search alpha, max atom move = 1.0000000 6.0082897e-05
  Iterations, force evaluations = 174 348

MPI task timing breakdown:
Section |  min time  |  avg time  |  max time  |%varavg| %total
---------------------------------------------------------------
Pair    | 0.98042    | 2.767      | 3.6558     |  46.2 | 72.65
Neigh   | 0          | 0          | 0          |   0.0 |  0.00
Comm    | 0.046174   | 0.60831    | 1.9162     |  70.7 | 15.97
Output  | 0          | 0          | 0          |   0.0 |  0.00
Modify  | 7.8071e-05 | 0.0058052  | 0.01222    |   3.6 |  0.15
Other   |            | 0.4277     |            |       | 11.23

Nlocal:        5552.90 ave        7908 max           0 min
Histogram: 4 2 2 0 2 6 4 0 15 17
Nghost:        6213.62 ave        8769 max         412 min
Histogram: 4 0 4 0 8 0 4 5 7 20
Neighs:       158427.0 ave      230565 max           0 min
Histogram: 4 2 2 0 5 3 4 4 12 16

Total # of neighbors = 8238216
Ave neighs/atom = 28.530519
Neighbor list builds = 0
Dangerous builds = 0
The dot product: 4.80109979813227e-07
Setting atom values ...
  1 settings made for x
  1 settings made for y
  1 settings made for z
Setting up cg style minimization ...
  Unit style    : metal
  Current step  : 1379
Per MPI rank memory allocation (min/avg/max) = 5.465 | 6.344 | 6.728 Mbytes
Step PotEng KinEng TotEng v_fx v_fy v_fz 
    1379     -1152449            0     -1152449 -0.0019225318 -0.060693082   0.01266911 
    1515     -1152449            0     -1152449 -6.283476e-06 -1.7379854e-05 4.5085892e-06 
Loop time of 2.98841 on 52 procs for 136 steps with 288751 atoms

99.9% CPU use with 52 MPI tasks x 1 OpenMP threads

Minimization stats:
  Stopping criterion = energy tolerance
  Energy initial, next-to-last, final = 
     -1152448.96023571    -1152448.962828    -1152448.962828
  Force two-norm initial, final = 0.21444151 0.00022690403
  Force max component initial, final = 0.095677195 3.7255887e-05
  Final line search alpha, max atom move = 1.0000000 3.7255887e-05
  Iterations, force evaluations = 136 272

MPI task timing breakdown:
Section |  min time  |  avg time  |  max time  |%varavg| %total
---------------------------------------------------------------
Pair    | 0.76791    | 2.1647     | 2.8747     |  41.0 | 72.44
Neigh   | 0          | 0          | 0          |   0.0 |  0.00
Comm    | 0.035564   | 0.48041    | 1.5043     |  62.3 | 16.08
Output  | 0          | 0          | 0          |   0.0 |  0.00
Modify  | 6.4322e-05 | 0.0045413  | 0.0096088  |   3.2 |  0.15
Other   |            | 0.3388     |            |       | 11.34

Nlocal:        5552.90 ave        7909 max           0 min
Histogram: 4 2 2 0 2 6 4 0 15 17
Nghost:        6213.62 ave        8769 max         412 min
Histogram: 4 0 4 0 8 0 4 5 7 20
Neighs:       158427.0 ave      230601 max           0 min
Histogram: 4 2 2 0 5 3 4 4 12 16

Total # of neighbors = 8238213
Ave neighs/atom = 28.530509
Neighbor list builds = 0
Dangerous builds = 0
The dot product: 2.20626781860258e-08
Setting atom values ...
  1 settings made for x
  1 settings made for y
  1 settings made for z
Setting up cg style minimization ...
  Unit style    : metal
  Current step  : 1515
Per MPI rank memory allocation (min/avg/max) = 5.465 | 6.344 | 6.728 Mbytes
Step PotEng KinEng TotEng v_fx v_fy v_fz 
    1515     -1152449            0     -1152449 -0.0033065842 -0.070471707    0.0142417 
    1700     -1152449            0     -1152449 -2.9731231e-06 -3.488349e-06 1.1340887e-06 
Loop time of 4.05079 on 52 procs for 185 steps with 288751 atoms

99.9% CPU use with 52 MPI tasks x 1 OpenMP threads

Minimization stats:
  Stopping criterion = energy tolerance
  Energy initial, next-to-last, final = 
     -1152448.95815417  -1152448.96062429  -1152448.96062429
  Force two-norm initial, final = 0.21715521 0.00018439765
  Force max component initial, final = 0.096026965 3.3915769e-05
  Final line search alpha, max atom move = 1.0000000 3.3915769e-05
  Iterations, force evaluations = 185 370

MPI task timing breakdown:
Section |  min time  |  avg time  |  max time  |%varavg| %total
---------------------------------------------------------------
Pair    | 1.0419     | 2.9438     | 3.8957     |  47.7 | 72.67
Neigh   | 0          | 0          | 0          |   0.0 |  0.00
Comm    | 0.048591   | 0.65001    | 2.0413     |  72.7 | 16.05
Output  | 0          | 0          | 0          |   0.0 |  0.00
Modify  | 8.3007e-05 | 0.0061716  | 0.013089   |   3.7 |  0.15
Other   |            | 0.4508     |            |       | 11.13

Nlocal:        5552.90 ave        7909 max           0 min
Histogram: 4 2 2 0 2 6 4 0 15 17
Nghost:        6213.62 ave        8769 max         412 min
Histogram: 4 0 4 0 8 0 4 5 7 20
Neighs:       158427.0 ave      230592 max           0 min
Histogram: 4 2 2 0 5 3 4 4 12 16

Total # of neighbors = 8238210
Ave neighs/atom = 28.530499
Neighbor list builds = 0
Dangerous builds = 0
The dot product: 2.19417101183016e-08
Setting atom values ...
  1 settings made for x
  1 settings made for y
  1 settings made for z
Setting up cg style minimization ...
  Unit style    : metal
  Current step  : 1700
Per MPI rank memory allocation (min/avg/max) = 5.465 | 6.344 | 6.728 Mbytes
Step PotEng KinEng TotEng v_fx v_fy v_fz 
    1700     -1152449            0     -1152449 -0.004535607 -0.077928402  0.013173858 
    1868     -1152449            0     -1152449 1.1105387e-05 2.4794863e-05 -5.6045789e-06 
Loop time of 3.69634 on 52 procs for 168 steps with 288751 atoms

99.9% CPU use with 52 MPI tasks x 1 OpenMP threads

Minimization stats:
  Stopping criterion = linesearch alpha is zero
  Energy initial, next-to-last, final = 
     -1152448.95536936  -1152448.95797698  -1152448.95797698
  Force two-norm initial, final = 0.21708141 0.0001446528
  Force max component initial, final = 0.094165038 3.0246480e-05
  Final line search alpha, max atom move = 0.5 1.5123240e-05
  Iterations, force evaluations = 168 337

MPI task timing breakdown:
Section |  min time  |  avg time  |  max time  |%varavg| %total
---------------------------------------------------------------
Pair    | 0.94881    | 2.6794     | 3.5431     |  45.5 | 72.49
Neigh   | 0          | 0          | 0          |   0.0 |  0.00
Comm    | 0.046412   | 0.59335    | 1.8683     |  69.6 | 16.05
Output  | 0          | 0          | 0          |   0.0 |  0.00
Modify  | 8.3303e-05 | 0.005635   | 0.011961   |   3.5 |  0.15
Other   |            | 0.4179     |            |       | 11.31

Nlocal:        5552.90 ave        7908 max           0 min
Histogram: 4 2 2 0 2 6 4 0 15 17
Nghost:        6213.62 ave        8769 max         412 min
Histogram: 4 0 4 0 8 0 4 5 7 20
Neighs:       158427.0 ave      230553 max           0 min
Histogram: 4 2 2 0 5 3 4 4 12 16

Total # of neighbors = 8238206
Ave neighs/atom = 28.530485
Neighbor list builds = 0
Dangerous builds = 0
The dot product: -1.22925629398933e-07
Setting atom values ...
  1 settings made for x
  1 settings made for y
  1 settings made for z
Setting up cg style minimization ...
  Unit style    : metal
  Current step  : 1868
Per MPI rank memory allocation (min/avg/max) = 5.465 | 6.344 | 6.728 Mbytes
Step PotEng KinEng TotEng v_fx v_fy v_fz 
    1868     -1152449            0     -1152449 -0.0043655558 -0.081334632  0.011470674 
    2000     -1152449            0     -1152449 -2.5849128e-05 -6.2340088e-05 1.2053086e-05 
    2097     -1152449            0     -1152449 -4.1727937e-07 -9.9535779e-07 1.9310697e-07 
Loop time of 5.08347 on 52 procs for 229 steps with 288751 atoms

99.9% CPU use with 52 MPI tasks x 1 OpenMP threads

Minimization stats:
  Stopping criterion = linesearch alpha is zero
  Energy initial, next-to-last, final = 
     -1152448.95242287  -1152448.95472494  -1152448.95472494
  Force two-norm initial, final = 0.21620445 4.0484849e-05
  Force max component initial, final = 0.092600814 7.2472423e-06
  Final line search alpha, max atom move = 0.5 3.6236211e-06
  Iterations, force evaluations = 229 461

MPI task timing breakdown:
Section |  min time  |  avg time  |  max time  |%varavg| %total
---------------------------------------------------------------
Pair    | 1.2843     | 3.6773     | 4.8913     |  53.4 | 72.34
Neigh   | 0          | 0          | 0          |   0.0 |  0.00
Comm    | 0.060322   | 0.81762    | 2.5768     |  81.6 | 16.08
Output  | 0.00011705 | 0.00012137 | 0.00027218 |   0.0 |  0.00
Modify  | 0.00010576 | 0.0076125  | 0.016039   |   4.1 |  0.15
Other   |            | 0.5808     |            |       | 11.43

Nlocal:        5552.90 ave        7908 max           0 min
Histogram: 4 2 2 0 2 6 4 0 15 17
Nghost:        6213.62 ave        8769 max         412 min
Histogram: 4 0 4 0 8 0 4 5 7 20
Neighs:       158427.0 ave      230558 max           0 min
Histogram: 4 2 2 0 5 3 4 4 12 16

Total # of neighbors = 8238203
Ave neighs/atom = 28.530474
Neighbor list builds = 0
Dangerous builds = 0
The dot product: 7.1950236660238e-09
Setting atom values ...
  1 settings made for x
  1 settings made for y
  1 settings made for z
Setting up cg style minimization ...
  Unit style    : metal
  Current step  : 2097
Per MPI rank memory allocation (min/avg/max) = 5.465 | 6.344 | 6.728 Mbytes
Step PotEng KinEng TotEng v_fx v_fy v_fz 
    2097   -1152448.9            0   -1152448.9 -0.0051699254 -0.086741795 0.0092774261 
    2268     -1152449            0     -1152449 -2.6265954e-08 -8.2297904e-07 8.4813469e-08 
Loop time of 3.75648 on 52 procs for 171 steps with 288751 atoms

99.9% CPU use with 52 MPI tasks x 1 OpenMP threads

Minimization stats:
  Stopping criterion = linesearch alpha is zero
  Energy initial, next-to-last, final = 
     -1152448.94844293  -1152448.95068018  -1152448.95068018
  Force two-norm initial, final = 0.21531971 0.00017308564
  Force max component initial, final = 0.090187553 1.8702565e-05
  Final line search alpha, max atom move = 0.25 4.6756414e-06
  Iterations, force evaluations = 171 345

MPI task timing breakdown:
Section |  min time  |  avg time  |  max time  |%varavg| %total
---------------------------------------------------------------
Pair    | 0.97284    | 2.7434     | 3.6062     |  45.9 | 73.03
Neigh   | 0          | 0          | 0          |   0.0 |  0.00
Comm    | 0.046219   | 0.60263    | 1.9168     |  70.9 | 16.04
Output  | 0          | 0          | 0          |   0.0 |  0.00
Modify  | 8.4282e-05 | 0.0057993  | 0.012241   |   3.6 |  0.15
Other   |            | 0.4046     |            |       | 10.77

Nlocal:        5552.90 ave        7908 max           0 min
Histogram: 4 2 2 0 2 6 4 0 15 17
Nghost:        6213.62 ave        8769 max         412 min
Histogram: 4 0 4 0 8 0 4 5 7 20
Neighs:       158427.0 ave      230551 max           0 min
Histogram: 4 2 2 0 5 3 4 4 12 16

Total # of neighbors = 8238200
Ave neighs/atom = 28.530464
Neighbor list builds = 0
Dangerous builds = 0
The dot product: 6.72235526489139e-09
Setting atom values ...
  1 settings made for x
  1 settings made for y
  1 settings made for z
Setting up cg style minimization ...
  Unit style    : metal
  Current step  : 2268
Per MPI rank memory allocation (min/avg/max) = 5.465 | 6.344 | 6.728 Mbytes
Step PotEng KinEng TotEng v_fx v_fy v_fz 
    2268   -1152448.9            0   -1152448.9  -0.00620175 -0.090939149 0.0064257206 
    2445   -1152448.9            0   -1152448.9 -4.4036467e-06 -1.01001e-05 1.212896e-06 
Loop time of 3.90907 on 52 procs for 177 steps with 288751 atoms

99.9% CPU use with 52 MPI tasks x 1 OpenMP threads

Minimization stats:
  Stopping criterion = energy tolerance
  Energy initial, next-to-last, final = 
     -1152448.94368985  -1152448.94589447  -1152448.94589447
  Force two-norm initial, final = 0.21367732 0.0001349469
  Force max component initial, final = 0.090939149 2.3242870e-05
  Final line search alpha, max atom move = 1.0000000 2.3242870e-05
  Iterations, force evaluations = 177 354

MPI task timing breakdown:
Section |  min time  |  avg time  |  max time  |%varavg| %total
---------------------------------------------------------------
Pair    | 1.0002     | 2.8219     | 3.7569     |  46.8 | 72.19
Neigh   | 0          | 0          | 0          |   0.0 |  0.00
Comm    | 0.047537   | 0.62723    | 1.9473     |  70.4 | 16.05
Output  | 0          | 0          | 0          |   0.0 |  0.00
Modify  | 8.1823e-05 | 0.005919   | 0.012664   |   3.6 |  0.15
Other   |            | 0.454      |            |       | 11.61

Nlocal:        5552.90 ave        7908 max           0 min
Histogram: 4 2 2 0 2 6 4 0 15 17
Nghost:        6213.62 ave        8769 max         412 min
Histogram: 4 0 4 0 8 0 4 5 7 20
Neighs:       158427.0 ave      230554 max           0 min
Histogram: 4 2 2 0 5 3 4 4 12 16

Total # of neighbors = 8238209
Ave neighs/atom = 28.530495
Neighbor list builds = 0
Dangerous builds = 0
The dot product: 9.40561495571455e-08
Setting atom values ...
  1 settings made for x
  1 settings made for y
  1 settings made for z
Setting up cg style minimization ...
  Unit style    : metal
  Current step  : 2445
Per MPI rank memory allocation (min/avg/max) = 5.465 | 6.344 | 6.728 Mbytes
Step PotEng KinEng TotEng v_fx v_fy v_fz 
    2445   -1152448.9            0   -1152448.9 -0.0068374396 -0.093536523 0.0032578761 
    2688   -1152448.9            0   -1152448.9 -1.0951557e-06 -3.099629e-06 2.1901675e-07 
Loop time of 5.32951 on 52 procs for 243 steps with 288751 atoms

99.9% CPU use with 52 MPI tasks x 1 OpenMP threads

Minimization stats:
  Stopping criterion = linesearch alpha is zero
  Energy initial, next-to-last, final = 
     -1152448.93823907  -1152448.94032512  -1152448.94032512
  Force two-norm initial, final = 0.21149706 1.5870321e-05
  Force max component initial, final = 0.093536523 3.0996290e-06
  Final line search alpha, max atom move = 0.5 1.5498145e-06
  Iterations, force evaluations = 243 487

MPI task timing breakdown:
Section |  min time  |  avg time  |  max time  |%varavg| %total
---------------------------------------------------------------
Pair    | 1.3712     | 3.8668     | 5.1184     |  54.6 | 72.55
Neigh   | 0          | 0          | 0          |   0.0 |  0.00
Comm    | 0.065108   | 0.85221    | 2.6802     |  83.6 | 15.99
Output  | 0          | 0          | 0          |   0.0 |  0.00
Modify  | 0.00010883 | 0.0081344  | 0.017109   |   4.2 |  0.15
Other   |            | 0.6024     |            |       | 11.30

Nlocal:        5552.90 ave        7908 max           0 min
Histogram: 4 2 2 0 2 6 4 0 15 17
Nghost:        6213.62 ave        8769 max         412 min
Histogram: 4 0 4 0 8 0 4 5 7 20
Neighs:       158427.0 ave      230549 max           0 min
Histogram: 4 2 2 0 5 3 4 4 12 16

Total # of neighbors = 8238204
Ave neighs/atom = 28.530478
Neighbor list builds = 0
Dangerous builds = 0
The dot product: 2.53129360893255e-08
Setting atom values ...
  1 settings made for x
  1 settings made for y
  1 settings made for z
Setting up cg style minimization ...
  Unit style    : metal
  Current step  : 2688
Per MPI rank memory allocation (min/avg/max) = 5.465 | 6.344 | 6.728 Mbytes
Step PotEng KinEng TotEng v_fx v_fy v_fz 
    2688   -1152448.9            0   -1152448.9 -0.0059069735 -0.093998701 0.00024604115 
    2840   -1152448.9            0   -1152448.9 2.2796431e-05 5.1351884e-05 -2.6003041e-06 
Loop time of 3.38197 on 52 procs for 152 steps with 288751 atoms

99.9% CPU use with 52 MPI tasks x 1 OpenMP threads

Minimization stats:
  Stopping criterion = linesearch alpha is zero
  Energy initial, next-to-last, final = 
     -1152448.93192008  -1152448.93391908  -1152448.93391908
  Force two-norm initial, final = 0.20912653 0.00024770997
  Force max component initial, final = 0.093998701 7.8387057e-05
  Final line search alpha, max atom move = 0.125 9.7983822e-06
  Iterations, force evaluations = 152 309

MPI task timing breakdown:
Section |  min time  |  avg time  |  max time  |%varavg| %total
---------------------------------------------------------------
Pair    | 0.8711     | 2.4585     | 3.2482     |  43.6 | 72.69
Neigh   | 0          | 0          | 0          |   0.0 |  0.00
Comm    | 0.040799   | 0.54186    | 1.7127     |  66.6 | 16.02
Output  | 0          | 0          | 0          |   0.0 |  0.00
Modify  | 6.6489e-05 | 0.0051717  | 0.011033   |   3.4 |  0.15
Other   |            | 0.3764     |            |       | 11.13

Nlocal:        5552.90 ave        7908 max           0 min
Histogram: 4 2 2 0 2 6 4 0 15 17
Nghost:        6213.62 ave        8769 max         412 min
Histogram: 4 0 4 0 8 0 4 5 7 20
Neighs:       158427.0 ave      230547 max           0 min
Histogram: 4 2 2 0 5 3 4 4 12 16

Total # of neighbors = 8238201
Ave neighs/atom = 28.530467
Neighbor list builds = 0
Dangerous builds = 0
The dot product: -3.73083358605068e-07
Setting atom values ...
  1 settings made for x
  1 settings made for y
  1 settings made for z
Setting up cg style minimization ...
  Unit style    : metal
  Current step  : 2840
Per MPI rank memory allocation (min/avg/max) = 5.465 | 6.344 | 6.728 Mbytes
Step PotEng KinEng TotEng v_fx v_fy v_fz 
    2840   -1152448.9            0   -1152448.9 -0.0090794318 -0.091157355 -0.0017687604 
    3000   -1152448.9            0   -1152448.9 -1.5285115e-06 -7.6720038e-06 -5.1085389e-08 
    3009   -1152448.9            0   -1152448.9 -1.2126406e-05 -2.9644093e-05 5.9831283e-07 
Loop time of 3.71042 on 52 procs for 169 steps with 288751 atoms

99.9% CPU use with 52 MPI tasks x 1 OpenMP threads

Minimization stats:
  Stopping criterion = linesearch alpha is zero
  Energy initial, next-to-last, final = 
     -1152448.92465271  -1152448.92655399  -1152448.92655399
  Force two-norm initial, final = 0.20564509 0.0001263468
  Force max component initial, final = 0.091157355 4.2944356e-05
  Final line search alpha, max atom move = 0.5 2.1472178e-05
  Iterations, force evaluations = 169 339

MPI task timing breakdown:
Section |  min time  |  avg time  |  max time  |%varavg| %total
---------------------------------------------------------------
Pair    | 0.95674    | 2.694      | 3.5624     |  45.6 | 72.61
Neigh   | 0          | 0          | 0          |   0.0 |  0.00
Comm    | 0.046575   | 0.59567    | 1.8757     |  69.9 | 16.05
Output  | 0.00023273 | 0.00023682 | 0.00038814 |   0.0 |  0.01
Modify  | 8.0626e-05 | 0.0056673  | 0.011987   |   3.5 |  0.15
Other   |            | 0.4149     |            |       | 11.18

Nlocal:        5552.90 ave        7908 max           0 min
Histogram: 4 2 2 0 2 6 4 0 15 17
Nghost:        6213.62 ave        8769 max         412 min
Histogram: 4 0 4 0 8 0 4 5 7 20
Neighs:       158427.0 ave      230543 max           0 min
Histogram: 4 2 2 0 5 3 4 4 12 16

Total # of neighbors = 8238199
Ave neighs/atom = 28.530461
Neighbor list builds = 0
Dangerous builds = 0
The dot product: 1.89016008775455e-07
Setting atom values ...
  1 settings made for x
  1 settings made for y
  1 settings made for z
Setting up cg style minimization ...
  Unit style    : metal
  Current step  : 3009
Per MPI rank memory allocation (min/avg/max) = 5.465 | 6.344 | 6.728 Mbytes
Step PotEng KinEng TotEng v_fx v_fy v_fz 
    3009   -1152448.9            0   -1152448.9 -0.017516164 -0.085572327  -0.00232995 
    3185   -1152448.9            0   -1152448.9 1.0568252e-05 2.6252936e-05 5.1565217e-08 
Loop time of 3.86462 on 52 procs for 176 steps with 288751 atoms

99.9% CPU use with 52 MPI tasks x 1 OpenMP threads

Minimization stats:
  Stopping criterion = linesearch alpha is zero
  Energy initial, next-to-last, final = 
     -1152448.91610472   -1152448.9179765   -1152448.9179765
  Force two-norm initial, final = 0.20243023 0.00011215437
  Force max component initial, final = 0.085572327 2.6252936e-05
  Final line search alpha, max atom move = 0.5 1.3126468e-05
  Iterations, force evaluations = 176 353

MPI task timing breakdown:
Section |  min time  |  avg time  |  max time  |%varavg| %total
---------------------------------------------------------------
Pair    | 0.99332    | 2.8049     | 3.7121     |  46.5 | 72.58
Neigh   | 0          | 0          | 0          |   0.0 |  0.00
Comm    | 0.046601   | 0.61963    | 1.9488     |  70.9 | 16.03
Output  | 0          | 0          | 0          |   0.0 |  0.00
Modify  | 7.5145e-05 | 0.0059159  | 0.012604   |   3.6 |  0.15
Other   |            | 0.4341     |            |       | 11.23

Nlocal:        5552.90 ave        7908 max           0 min
Histogram: 4 2 2 0 2 6 4 0 15 17
Nghost:        6213.56 ave        8769 max         412 min
Histogram: 4 0 4 0 8 0 4 5 7 20
Neighs:       158427.0 ave      230542 max           0 min
Histogram: 4 2 2 0 5 3 4 4 12 16

Total # of neighbors = 8238198
Ave neighs/atom = 28.530457
Neighbor list builds = 0
Dangerous builds = 0
The dot product: -1.41163212780484e-07
Setting atom values ...
  1 settings made for x
  1 settings made for y
  1 settings made for z
Setting up cg style minimization ...
  Unit style    : metal
  Current step  : 3185
Per MPI rank memory allocation (min/avg/max) = 5.465 | 6.344 | 6.728 Mbytes
Step PotEng KinEng TotEng v_fx v_fy v_fz 
    3185   -1152448.9            0   -1152448.9 -0.022855724 -0.081972225 -0.0027943604 
    3373   -1152448.9            0   -1152448.9 9.5179688e-06 2.7585602e-05 7.1508516e-07 
Loop time of 4.10627 on 52 procs for 188 steps with 288751 atoms

99.9% CPU use with 52 MPI tasks x 1 OpenMP threads

Minimization stats:
  Stopping criterion = energy tolerance
  Energy initial, next-to-last, final = 
     -1152448.90618757  -1152448.90805204  -1152448.90805204
  Force two-norm initial, final = 0.20065559 8.1649860e-05
  Force max component initial, final = 0.082180614 2.7585602e-05
  Final line search alpha, max atom move = 1.0000000 2.7585602e-05
  Iterations, force evaluations = 188 376

MPI task timing breakdown:
Section |  min time  |  avg time  |  max time  |%varavg| %total
---------------------------------------------------------------
Pair    | 1.0591     | 2.9844     | 3.9489     |  48.0 | 72.68
Neigh   | 0          | 0          | 0          |   0.0 |  0.00
Comm    | 0.04934    | 0.6582     | 2.0719     |  73.6 | 16.03
Output  | 0          | 0          | 0          |   0.0 |  0.00
Modify  | 8.5166e-05 | 0.0062769  | 0.013321   |   3.7 |  0.15
Other   |            | 0.4574     |            |       | 11.14

Nlocal:        5552.90 ave        7908 max           0 min
Histogram: 4 2 2 0 2 6 4 0 15 17
Nghost:        6213.62 ave        8769 max         412 min
Histogram: 4 0 4 0 8 0 4 5 7 20
Neighs:       158427.0 ave      230542 max           0 min
Histogram: 4 2 2 0 5 3 4 4 12 16

Total # of neighbors = 8238198
Ave neighs/atom = 28.530457
Neighbor list builds = 0
Dangerous builds = 0
The dot product: -1.23319692921171e-07
Setting atom values ...
  1 settings made for x
  1 settings made for y
  1 settings made for z
Setting up cg style minimization ...
  Unit style    : metal
  Current step  : 3373
Per MPI rank memory allocation (min/avg/max) = 5.465 | 6.344 | 6.728 Mbytes
Step PotEng KinEng TotEng v_fx v_fy v_fz 
    3373   -1152448.9            0   -1152448.9 -0.025820355 -0.079797395 -0.0033228533 
    3545   -1152448.9            0   -1152448.9 -4.5343225e-07 1.7305299e-06 1.9097489e-07 
Loop time of 3.81724 on 52 procs for 172 steps with 288751 atoms

99.9% CPU use with 52 MPI tasks x 1 OpenMP threads

Minimization stats:
  Stopping criterion = energy tolerance
  Energy initial, next-to-last, final = 
     -1152448.89490715  -1152448.89677485  -1152448.89677485
  Force two-norm initial, final = 0.1996001 0.00012701695
  Force max component initial, final = 0.08389722 9.6896389e-06
  Final line search alpha, max atom move = 1.0000000 9.6896389e-06
  Iterations, force evaluations = 172 346

MPI task timing breakdown:
Section |  min time  |  avg time  |  max time  |%varavg| %total
---------------------------------------------------------------
Pair    | 0.96893    | 2.7637     | 3.672      |  46.3 | 72.40
Neigh   | 0          | 0          | 0          |   0.0 |  0.00
Comm    | 0.045538   | 0.61168    | 1.9187     |  70.5 | 16.02
Output  | 0          | 0          | 0          |   0.0 |  0.00
Modify  | 7.8103e-05 | 0.00572    | 0.012058   |   3.5 |  0.15
Other   |            | 0.4362     |            |       | 11.43

Nlocal:        5552.90 ave        7908 max           0 min
Histogram: 4 2 2 0 2 6 4 0 15 17
Nghost:        6213.62 ave        8769 max         412 min
Histogram: 4 0 4 0 8 0 4 5 7 20
Neighs:       158427.0 ave      230551 max           0 min
Histogram: 4 2 2 0 5 3 4 4 12 16

Total # of neighbors = 8238200
Ave neighs/atom = 28.530464
Neighbor list builds = 0
Dangerous builds = 0
The dot product: -3.82545465500934e-09
Setting atom values ...
  1 settings made for x
  1 settings made for y
  1 settings made for z
Setting up cg style minimization ...
  Unit style    : metal
  Current step  : 3545
Per MPI rank memory allocation (min/avg/max) = 5.465 | 6.344 | 6.728 Mbytes
Step PotEng KinEng TotEng v_fx v_fy v_fz 
    3545   -1152448.9            0   -1152448.9 -0.027533882 -0.077466769 -0.0036720076 
    3756   -1152448.9            0   -1152448.9 -2.8127896e-06 -9.1990834e-06 -4.8718696e-07 
Loop time of 4.63759 on 52 procs for 211 steps with 288751 atoms

99.9% CPU use with 52 MPI tasks x 1 OpenMP threads

Minimization stats:
  Stopping criterion = linesearch alpha is zero
  Energy initial, next-to-last, final = 
     -1152448.88229958  -1152448.88422898  -1152448.88422898
  Force two-norm initial, final = 0.19876698 8.3323652e-05
  Force max component initial, final = 0.085390359 9.5678658e-06
  Final line search alpha, max atom move = 0.5 4.7839329e-06
  Iterations, force evaluations = 211 423

MPI task timing breakdown:
Section |  min time  |  avg time  |  max time  |%varavg| %total
---------------------------------------------------------------
Pair    | 1.193      | 3.3615     | 4.4307     |  50.7 | 72.48
Neigh   | 0          | 0          | 0          |   0.0 |  0.00
Comm    | 0.059356   | 0.74321    | 2.34       |  77.9 | 16.03
Output  | 0          | 0          | 0          |   0.0 |  0.00
Modify  | 0.00010163 | 0.0070733  | 0.014921   |   3.9 |  0.15
Other   |            | 0.5258     |            |       | 11.34

Nlocal:        5552.90 ave        7909 max           0 min
Histogram: 4 2 2 0 2 6 4 0 15 17
Nghost:        6213.62 ave        8769 max         412 min
Histogram: 4 0 4 0 8 0 4 5 7 20
Neighs:       158427.0 ave      230580 max           0 min
Histogram: 4 2 2 0 5 3 4 4 12 16

Total # of neighbors = 8238197
Ave neighs/atom = 28.530454
Neighbor list builds = 0
Dangerous builds = 0
The dot product: -6.5317526208298e-09
Setting atom values ...
  1 settings made for x
  1 settings made for y
  1 settings made for z
Setting up cg style minimization ...
  Unit style    : metal
  Current step  : 3756
Per MPI rank memory allocation (min/avg/max) = 5.465 | 6.344 | 6.728 Mbytes
Step PotEng KinEng TotEng v_fx v_fy v_fz 
    3756   -1152448.9            0   -1152448.9 -0.025890532 -0.071541386 -0.0032066139 
    3893   -1152448.9            0   -1152448.9 -1.1971311e-05 -4.4633096e-05 -2.4670168e-06 
Loop time of 3.07984 on 52 procs for 137 steps with 288751 atoms

99.9% CPU use with 52 MPI tasks x 1 OpenMP threads

Minimization stats:
  Stopping criterion = linesearch alpha is zero
  Energy initial, next-to-last, final = 
     -1152448.86865532  -1152448.87125706  -1152448.87125706
  Force two-norm initial, final = 0.19700569 0.00028231868
  Force max component initial, final = 0.08583411 7.9527416e-05
  Final line search alpha, max atom move = 0.125 9.9409270e-06
  Iterations, force evaluations = 137 279

MPI task timing breakdown:
Section |  min time  |  avg time  |  max time  |%varavg| %total
---------------------------------------------------------------
Pair    | 0.78356    | 2.2314     | 2.9643     |  41.7 | 72.45
Neigh   | 0          | 0          | 0          |   0.0 |  0.00
Comm    | 0.036801   | 0.49562    | 1.5546     |  63.2 | 16.09
Output  | 0          | 0          | 0          |   0.0 |  0.00
Modify  | 6.4074e-05 | 0.0046162  | 0.0097321  |   3.2 |  0.15
Other   |            | 0.3482     |            |       | 11.31

Nlocal:        5552.90 ave        7910 max           0 min
Histogram: 4 2 2 0 2 6 4 0 15 17
Nghost:        6213.62 ave        8769 max         412 min
Histogram: 4 0 4 0 8 0 4 5 7 20
Neighs:       158427.0 ave      230599 max           0 min
Histogram: 4 2 2 0 5 3 4 4 12 16

Total # of neighbors = 8238193
Ave neighs/atom = 28.530440
Neighbor list builds = 0
Dangerous builds = 0
The dot product: -8.2228031595642e-07
Setting atom values ...
  1 settings made for x
  1 settings made for y
  1 settings made for z
Setting up cg style minimization ...
  Unit style    : metal
  Current step  : 3893
Per MPI rank memory allocation (min/avg/max) = 5.465 | 6.344 | 6.728 Mbytes
Step PotEng KinEng TotEng v_fx v_fy v_fz 
    3893   -1152448.9            0   -1152448.9 -0.012798795 -0.049180525 -0.00049717825 
    4000   -1152448.9            0   -1152448.9 2.6219604e-05 9.4066067e-05 7.2095134e-07 
    4076   -1152448.9            0   -1152448.9 -1.3915385e-06 -4.3726414e-06 -1.067973e-08 
Loop time of 4.03163 on 52 procs for 183 steps with 288751 atoms

99.9% CPU use with 52 MPI tasks x 1 OpenMP threads

Minimization stats:
  Stopping criterion = linesearch alpha is zero
  Energy initial, next-to-last, final = 
     -1152448.85549626  -1152448.85774856  -1152448.85774856
  Force two-norm initial, final = 0.19288663 0.00019109915
  Force max component initial, final = 0.081637568 1.0217364e-05
  Final line search alpha, max atom move = 0.25 2.5543411e-06
  Iterations, force evaluations = 183 369

MPI task timing breakdown:
Section |  min time  |  avg time  |  max time  |%varavg| %total
---------------------------------------------------------------
Pair    | 1.038      | 2.9335     | 3.8705     |  47.6 | 72.76
Neigh   | 0          | 0          | 0          |   0.0 |  0.00
Comm    | 0.048989   | 0.64596    | 2.0428     |  73.1 | 16.02
Output  | 0.00011638 | 0.00012052 | 0.00027299 |   0.0 |  0.00
Modify  | 8.9299e-05 | 0.0061547  | 0.012952   |   3.6 |  0.15
Other   |            | 0.4459     |            |       | 11.06

Nlocal:        5552.90 ave        7909 max           0 min
Histogram: 4 2 2 0 2 6 4 0 15 17
Nghost:        6213.69 ave        8770 max         412 min
Histogram: 4 0 4 0 8 0 4 5 7 20
Neighs:       158427.0 ave      230557 max           0 min
Histogram: 4 2 2 0 5 3 4 4 12 16

Total # of neighbors = 8238193
Ave neighs/atom = 28.530440
Neighbor list builds = 0
Dangerous builds = 0
The dot product: -6.19875079412913e-08
Setting atom values ...
  1 settings made for x
  1 settings made for y
  1 settings made for z
Setting up cg style minimization ...
  Unit style    : metal
  Current step  : 4076
Per MPI rank memory allocation (min/avg/max) = 5.465 | 6.344 | 6.728 Mbytes
Step PotEng KinEng TotEng v_fx v_fy v_fz 
    4076   -1152448.8            0   -1152448.8 -0.017986035 -0.054784321 0.0018029921 
    4234   -1152448.8            0   -1152448.8 -1.6920511e-05 -4.5259381e-05 1.788532e-06 
Loop time of 3.46467 on 52 procs for 158 steps with 288751 atoms

99.9% CPU use with 52 MPI tasks x 1 OpenMP threads

Minimization stats:
  Stopping criterion = energy tolerance
  Energy initial, next-to-last, final = 
     -1152448.84074295  -1152448.84281313  -1152448.84281313
  Force two-norm initial, final = 0.19751361 0.00029915307
  Force max component initial, final = 0.081568969 6.1301205e-05
  Final line search alpha, max atom move = 1.0000000 6.1301205e-05
  Iterations, force evaluations = 158 316

MPI task timing breakdown:
Section |  min time  |  avg time  |  max time  |%varavg| %total
---------------------------------------------------------------
Pair    | 0.89264    | 2.5137     | 3.3218     |  43.9 | 72.55
Neigh   | 0          | 0          | 0          |   0.0 |  0.00
Comm    | 0.043093   | 0.55659    | 1.7469     |  67.2 | 16.06
Output  | 0          | 0          | 0          |   0.0 |  0.00
Modify  | 7.2315e-05 | 0.0052812  | 0.011157   |   3.4 |  0.15
Other   |            | 0.3891     |            |       | 11.23

Nlocal:        5552.90 ave        7909 max           0 min
Histogram: 4 2 2 0 2 6 4 0 15 17
Nghost:        6213.69 ave        8770 max         412 min
Histogram: 4 0 4 0 8 0 4 5 7 20
Neighs:       158427.0 ave      230535 max           0 min
Histogram: 4 2 2 0 5 3 4 4 12 16

Total # of neighbors = 8238191
Ave neighs/atom = 28.530433
Neighbor list builds = 0
Dangerous builds = 0
The dot product: -5.25061595132155e-07
Setting atom values ...
  1 settings made for x
  1 settings made for y
  1 settings made for z
Setting up cg style minimization ...
  Unit style    : metal
  Current step  : 4234
Per MPI rank memory allocation (min/avg/max) = 5.465 | 6.344 | 6.728 Mbytes
Step PotEng KinEng TotEng v_fx v_fy v_fz 
    4234   -1152448.8            0   -1152448.8 -0.022558309 -0.057278374 0.0039556729 
    4386   -1152448.8            0   -1152448.8 -1.3380535e-05 -2.5707942e-05 2.2710928e-06 
Loop time of 3.31706 on 52 procs for 152 steps with 288751 atoms

99.9% CPU use with 52 MPI tasks x 1 OpenMP threads

Minimization stats:
  Stopping criterion = energy tolerance
  Energy initial, next-to-last, final = 
     -1152448.82446792  -1152448.82661718  -1152448.82661718
  Force two-norm initial, final = 0.2007632 0.00032123721
  Force max component initial, final = 0.085591454 5.7434836e-05
  Final line search alpha, max atom move = 1.0000000 5.7434836e-05
  Iterations, force evaluations = 152 304

MPI task timing breakdown:
Section |  min time  |  avg time  |  max time  |%varavg| %total
---------------------------------------------------------------
Pair    | 0.85888    | 2.4151     | 3.1901     |  43.2 | 72.81
Neigh   | 0          | 0          | 0          |   0.0 |  0.00
Comm    | 0.039926   | 0.53196    | 1.6811     |  66.3 | 16.04
Output  | 0          | 0          | 0          |   0.0 |  0.00
Modify  | 6.9343e-05 | 0.0050852  | 0.010661   |   3.3 |  0.15
Other   |            | 0.3649     |            |       | 11.00

Nlocal:        5552.90 ave        7909 max           0 min
Histogram: 4 2 2 0 2 6 4 0 15 17
Nghost:        6213.65 ave        8770 max         412 min
Histogram: 4 0 4 0 8 0 4 5 7 20
Neighs:       158427.0 ave      230523 max           0 min
Histogram: 4 2 2 0 5 3 4 4 12 16

Total # of neighbors = 8238191
Ave neighs/atom = 28.530433
Neighbor list builds = 0
Dangerous builds = 0
The dot product: -2.57050572913749e-07
Setting atom values ...
  1 settings made for x
  1 settings made for y
  1 settings made for z
Setting up cg style minimization ...
  Unit style    : metal
  Current step  : 4386
Per MPI rank memory allocation (min/avg/max) = 5.465 | 6.344 | 6.728 Mbytes
Step PotEng KinEng TotEng v_fx v_fy v_fz 
    4386   -1152448.8            0   -1152448.8 -0.025342139 -0.059901137 0.0056868366 
    4538   -1152448.8            0   -1152448.8 -1.3874898e-05 -3.6021112e-05 3.2057587e-06 
Loop time of 3.32476 on 52 procs for 152 steps with 288751 atoms

99.9% CPU use with 52 MPI tasks x 1 OpenMP threads

Minimization stats:
  Stopping criterion = energy tolerance
  Energy initial, next-to-last, final = 
     -1152448.80698147  -1152448.80899641  -1152448.80899641
  Force two-norm initial, final = 0.20344605 0.00027457725
  Force max component initial, final = 0.088768854 8.8692292e-05
  Final line search alpha, max atom move = 1.0000000 8.8692292e-05
  Iterations, force evaluations = 152 304

MPI task timing breakdown:
Section |  min time  |  avg time  |  max time  |%varavg| %total
---------------------------------------------------------------
Pair    | 0.85679    | 2.4203     | 3.1922     |  43.2 | 72.80
Neigh   | 0          | 0          | 0          |   0.0 |  0.00
Comm    | 0.040262   | 0.53284    | 1.6865     |  66.2 | 16.03
Output  | 0          | 0          | 0          |   0.0 |  0.00
Modify  | 7.1369e-05 | 0.0050776  | 0.010823   |   3.3 |  0.15
Other   |            | 0.3666     |            |       | 11.03

Nlocal:        5552.90 ave        7908 max           0 min
Histogram: 4 2 2 0 2 6 4 0 15 17
Nghost:        6213.65 ave        8770 max         412 min
Histogram: 4 0 4 0 8 0 4 5 7 20
Neighs:       158427.0 ave      230464 max           0 min
Histogram: 4 2 2 0 5 3 4 4 12 16

Total # of neighbors = 8238191
Ave neighs/atom = 28.530433
Neighbor list builds = 0
Dangerous builds = 0
The dot product: -1.86859091669959e-07
Setting atom values ...
  1 settings made for x
  1 settings made for y
  1 settings made for z
Setting up cg style minimization ...
  Unit style    : metal
  Current step  : 4538
Per MPI rank memory allocation (min/avg/max) = 5.465 | 6.344 | 6.728 Mbytes
Step PotEng KinEng TotEng v_fx v_fy v_fz 
    4538   -1152448.8            0   -1152448.8 -0.028948519 -0.067150555 0.0071939646 
    4711   -1152448.8            0   -1152448.8 1.520085e-05 4.1183279e-05 -4.0087171e-06 
Loop time of 3.78362 on 52 procs for 173 steps with 288751 atoms

99.9% CPU use with 52 MPI tasks x 1 OpenMP threads

Minimization stats:
  Stopping criterion = energy tolerance
  Energy initial, next-to-last, final = 
     -1152448.78797366  -1152448.78994072  -1152448.78994072
  Force two-norm initial, final = 0.20689167 0.00012596127
  Force max component initial, final = 0.090445208 4.8826783e-05
  Final line search alpha, max atom move = 1.0000000 4.8826783e-05
  Iterations, force evaluations = 173 346

MPI task timing breakdown:
Section |  min time  |  avg time  |  max time  |%varavg| %total
---------------------------------------------------------------
Pair    | 0.97677    | 2.7493     | 3.633      |  46.0 | 72.66
Neigh   | 0          | 0          | 0          |   0.0 |  0.00
Comm    | 0.04526    | 0.60571    | 1.9163     |  70.9 | 16.01
Output  | 0          | 0          | 0          |   0.0 |  0.00
Modify  | 7.6126e-05 | 0.0057726  | 0.01228    |   3.6 |  0.15
Other   |            | 0.4229     |            |       | 11.18

Nlocal:        5552.90 ave        7906 max           0 min
Histogram: 4 2 2 0 2 6 4 0 15 17
Nghost:        6213.58 ave        8770 max         412 min
Histogram: 4 0 4 0 8 0 4 5 7 20
Neighs:       158427.0 ave      230375 max           0 min
Histogram: 4 2 2 0 5 3 4 4 12 16

Total # of neighbors = 8238191
Ave neighs/atom = 28.530433
Neighbor list builds = 0
Dangerous builds = 0
The dot product: 6.20126795513925e-08
Setting atom values ...
  1 settings made for x
  1 settings made for y
  1 settings made for z
Setting up cg style minimization ...
  Unit style    : metal
  Current step  : 4711
Per MPI rank memory allocation (min/avg/max) = 5.465 | 6.344 | 6.728 Mbytes
Step PotEng KinEng TotEng v_fx v_fy v_fz 
    4711   -1152448.8            0   -1152448.8 -0.032218699 -0.072995928 0.0081498983 
    4858   -1152448.8            0   -1152448.8 -1.3341752e-05 -4.4311404e-05 3.9773501e-06 
Loop time of 3.29962 on 52 procs for 147 steps with 288751 atoms

99.9% CPU use with 52 MPI tasks x 1 OpenMP threads

Minimization stats:
  Stopping criterion = linesearch alpha is zero
  Energy initial, next-to-last, final = 
     -1152448.76748671   -1152448.7693708   -1152448.7693708
  Force two-norm initial, final = 0.20921214 0.00022818387
  Force max component initial, final = 0.090731076 5.4245875e-05
  Final line search alpha, max atom move = 0.125 6.7807344e-06
  Iterations, force evaluations = 147 299

MPI task timing breakdown:
Section |  min time  |  avg time  |  max time  |%varavg| %total
---------------------------------------------------------------
Pair    | 0.83823    | 2.3872     | 3.173      |  43.2 | 72.35
Neigh   | 0          | 0          | 0          |   0.0 |  0.00
Comm    | 0.040069   | 0.52896    | 1.6584     |  65.2 | 16.03
Output  | 0          | 0          | 0          |   0.0 |  0.00
Modify  | 7.2978e-05 | 0.0050125  | 0.010839   |   3.4 |  0.15
Other   |            | 0.3784     |            |       | 11.47

Nlocal:        5552.90 ave        7906 max           0 min
Histogram: 4 2 2 0 2 6 4 0 15 17
Nghost:        6213.63 ave        8769 max         412 min
Histogram: 4 0 4 0 8 0 4 5 7 20
Neighs:       158427.0 ave      230372 max           0 min
Histogram: 4 2 2 0 5 3 4 4 12 16

Total # of neighbors = 8238188
Ave neighs/atom = 28.530422
Neighbor list builds = 0
Dangerous builds = 0
The dot product: 8.03833713174049e-08
Setting atom values ...
  1 settings made for x
  1 settings made for y
  1 settings made for z
Setting up cg style minimization ...
  Unit style    : metal
  Current step  : 4858
Per MPI rank memory allocation (min/avg/max) = 5.465 | 6.344 | 6.728 Mbytes
Step PotEng KinEng TotEng v_fx v_fy v_fz 
    4858   -1152448.7            0   -1152448.7 -0.035687058 -0.078384784 0.0085825261 
    5000   -1152448.7            0   -1152448.7 -1.8885496e-05 -5.8103312e-05 5.2210143e-06 
    5027   -1152448.7            0   -1152448.7 1.1469139e-05 3.0856026e-05 -2.98971e-06 
Loop time of 3.70246 on 52 procs for 169 steps with 288751 atoms

99.9% CPU use with 52 MPI tasks x 1 OpenMP threads

Minimization stats:
  Stopping criterion = linesearch alpha is zero
  Energy initial, next-to-last, final = 
     -1152448.74541412  -1152448.74727322  -1152448.74727322
  Force two-norm initial, final = 0.21101134 0.0001004694
  Force max component initial, final = 0.090105065 4.1218135e-05
  Final line search alpha, max atom move = 0.5 2.0609068e-05
  Iterations, force evaluations = 169 339

MPI task timing breakdown:
Section |  min time  |  avg time  |  max time  |%varavg| %total
---------------------------------------------------------------
Pair    | 0.95847    | 2.693      | 3.5458     |  45.4 | 72.73
Neigh   | 0          | 0          | 0          |   0.0 |  0.00
Comm    | 0.047697   | 0.59462    | 1.8795     |  69.8 | 16.06
Output  | 0.00020757 | 0.00021316 | 0.00037039 |   0.0 |  0.01
Modify  | 7.8773e-05 | 0.005711   | 0.012175   |   3.6 |  0.15
Other   |            | 0.4089     |            |       | 11.05

Nlocal:        5552.90 ave        7906 max           0 min
Histogram: 4 2 2 0 2 6 4 0 15 17
Nghost:        6213.60 ave        8768 max         412 min
Histogram: 4 0 4 0 8 0 4 5 7 20
Neighs:       158427.0 ave      230365 max           0 min
Histogram: 4 2 2 0 5 3 4 4 12 16

Total # of neighbors = 8238188
Ave neighs/atom = 28.530422
Neighbor list builds = 0
Dangerous builds = 0
The dot product: -1.30740023684673e-07
Setting atom values ...
  1 settings made for x
  1 settings made for y
  1 settings made for z
Setting up cg style minimization ...
  Unit style    : metal
  Current step  : 5027
Per MPI rank memory allocation (min/avg/max) = 5.465 | 6.344 | 6.728 Mbytes
Step PotEng KinEng TotEng v_fx v_fy v_fz 
    5027   -1152448.7            0   -1152448.7 -0.037544897   -0.0816246  0.008298552 
    5207   -1152448.7            0   -1152448.7 2.8513354e-06 8.6249951e-06 -7.1679317e-07 
Loop time of 3.97654 on 52 procs for 180 steps with 288751 atoms

99.9% CPU use with 52 MPI tasks x 1 OpenMP threads

Minimization stats:
  Stopping criterion = energy tolerance
  Energy initial, next-to-last, final = 
     -1152448.72182203  -1152448.72365746  -1152448.72365746
  Force two-norm initial, final = 0.21130505 5.6742892e-05
  Force max component initial, final = 0.088518519 1.2788491e-05
  Final line search alpha, max atom move = 1.0000000 1.2788491e-05
  Iterations, force evaluations = 180 360

MPI task timing breakdown:
Section |  min time  |  avg time  |  max time  |%varavg| %total
---------------------------------------------------------------
Pair    | 1.0013     | 2.8642     | 3.8224     |  47.3 | 72.03
Neigh   | 0          | 0          | 0          |   0.0 |  0.00
Comm    | 0.047256   | 0.64428    | 2.0408     |  71.7 | 16.20
Output  | 0          | 0          | 0          |   0.0 |  0.00
Modify  | 8.4689e-05 | 0.0059509  | 0.012551   |   3.6 |  0.15
Other   |            | 0.4621     |            |       | 11.62

Nlocal:        5552.90 ave        7906 max           0 min
Histogram: 4 2 2 0 2 6 4 0 15 17
Nghost:        6213.60 ave        8768 max         412 min
Histogram: 4 0 4 0 8 0 4 5 7 20
Neighs:       158427.0 ave      230341 max           0 min
Histogram: 4 2 2 0 5 3 4 4 12 16

Total # of neighbors = 8238185
Ave neighs/atom = 28.530412
Neighbor list builds = 0
Dangerous builds = 0
The dot product: -4.68746675234218e-08
Setting atom values ...
  1 settings made for x
  1 settings made for y
  1 settings made for z
Setting up cg style minimization ...
  Unit style    : metal
  Current step  : 5207
Per MPI rank memory allocation (min/avg/max) = 5.465 | 6.344 | 6.728 Mbytes
Step PotEng KinEng TotEng v_fx v_fy v_fz 
    5207   -1152448.7            0   -1152448.7 -0.037876294 -0.083699201 0.0075197678 
    5378   -1152448.7            0   -1152448.7 -5.436012e-06 -1.438486e-05 1.1472759e-06 
Loop time of 3.73483 on 52 procs for 171 steps with 288751 atoms

99.9% CPU use with 52 MPI tasks x 1 OpenMP threads

Minimization stats:
  Stopping criterion = energy tolerance
  Energy initial, next-to-last, final = 
     -1152448.69673399  -1152448.69854001  -1152448.69854001
  Force two-norm initial, final = 0.21076267 8.7069838e-05
  Force max component initial, final = 0.08658258 1.4384860e-05
  Final line search alpha, max atom move = 1.0000000 1.4384860e-05
  Iterations, force evaluations = 171 342

MPI task timing breakdown:
Section |  min time  |  avg time  |  max time  |%varavg| %total
---------------------------------------------------------------
Pair    | 0.96374    | 2.7218     | 3.5922     |  45.8 | 72.88
Neigh   | 0          | 0          | 0          |   0.0 |  0.00
Comm    | 0.044871   | 0.59897    | 1.8907     |  70.3 | 16.04
Output  | 0          | 0          | 0          |   0.0 |  0.00
Modify  | 7.7922e-05 | 0.0057197  | 0.012133   |   3.5 |  0.15
Other   |            | 0.4084     |            |       | 10.93

Nlocal:        5552.90 ave        7905 max           0 min
Histogram: 4 2 2 0 2 6 4 0 15 17
Nghost:        6213.62 ave        8768 max         412 min
Histogram: 4 0 4 0 8 0 4 5 7 20
Neighs:       158427.0 ave      230311 max           0 min
Histogram: 4 2 2 0 5 3 4 4 12 16

Total # of neighbors = 8238188
Ave neighs/atom = 28.530422
Neighbor list builds = 0
Dangerous builds = 0
The dot product: 9.45702517887907e-08
Setting atom values ...
  1 settings made for x
  1 settings made for y
  1 settings made for z
Setting up cg style minimization ...
  Unit style    : metal
  Current step  : 5378
Per MPI rank memory allocation (min/avg/max) = 5.465 | 6.344 | 6.728 Mbytes
Step PotEng KinEng TotEng v_fx v_fy v_fz 
    5378   -1152448.7            0   -1152448.7  -0.03672987 -0.085041131 0.0063967984 
    5542   -1152448.7            0   -1152448.7 1.9147099e-06 1.8722967e-06 -2.8075356e-07 
Loop time of 3.59476 on 52 procs for 164 steps with 288751 atoms

99.9% CPU use with 52 MPI tasks x 1 OpenMP threads

Minimization stats:
  Stopping criterion = linesearch alpha is zero
  Energy initial, next-to-last, final = 
     -1152448.67017398  -1152448.67194369  -1152448.67194369
  Force two-norm initial, final = 0.20957362 0.00011621771
  Force max component initial, final = 0.085041131 7.1259568e-06
  Final line search alpha, max atom move = 0.5 3.5629784e-06
  Iterations, force evaluations = 164 329

MPI task timing breakdown:
Section |  min time  |  avg time  |  max time  |%varavg| %total
---------------------------------------------------------------
Pair    | 0.9299     | 2.621      | 3.451      |  44.8 | 72.91
Neigh   | 0          | 0          | 0          |   0.0 |  0.00
Comm    | 0.042723   | 0.5772     | 1.8197     |  68.8 | 16.06
Output  | 0          | 0          | 0          |   0.0 |  0.00
Modify  | 8.0774e-05 | 0.0054959  | 0.011644   |   3.4 |  0.15
Other   |            | 0.3911     |            |       | 10.88

Nlocal:        5552.90 ave        7905 max           0 min
Histogram: 4 2 2 0 2 6 4 0 15 17
Nghost:        6213.63 ave        8768 max         412 min
Histogram: 4 0 4 0 8 0 4 5 7 20
Neighs:       158427.0 ave      230311 max           0 min
Histogram: 4 2 2 0 5 3 4 4 12 16

Total # of neighbors = 8238186
Ave neighs/atom = 28.530415
Neighbor list builds = 0
Dangerous builds = 0
The dot product: -1.96910298337581e-08
Setting atom values ...
  1 settings made for x
  1 settings made for y
  1 settings made for z
Setting up cg style minimization ...
  Unit style    : metal
  Current step  : 5542
Per MPI rank memory allocation (min/avg/max) = 5.465 | 6.344 | 6.728 Mbytes
Step PotEng KinEng TotEng v_fx v_fy v_fz 
    5542   -1152448.6            0   -1152448.6 -0.034032727  -0.08585815 0.0050229377 
    5709   -1152448.6            0   -1152448.6 2.9269769e-06 9.0604823e-06 -4.5167119e-07 
Loop time of 3.6642 on 52 procs for 167 steps with 288751 atoms

99.9% CPU use with 52 MPI tasks x 1 OpenMP threads

Minimization stats:
  Stopping criterion = linesearch alpha is zero
  Energy initial, next-to-last, final = 
     -1152448.64216989  -1152448.64389733  -1152448.64389733
  Force two-norm initial, final = 0.20793138 0.00011072509
  Force max component initial, final = 0.08585815 1.7779806e-05
  Final line search alpha, max atom move = 0.5 8.8899028e-06
  Iterations, force evaluations = 167 335

MPI task timing breakdown:
Section |  min time  |  avg time  |  max time  |%varavg| %total
---------------------------------------------------------------
Pair    | 0.943      | 2.6612     | 3.5248     |  45.3 | 72.63
Neigh   | 0          | 0          | 0          |   0.0 |  0.00
Comm    | 0.04395    | 0.58775    | 1.8568     |  69.5 | 16.04
Output  | 0          | 0          | 0          |   0.0 |  0.00
Modify  | 8.445e-05  | 0.0056097  | 0.011876   |   3.5 |  0.15
Other   |            | 0.4097     |            |       | 11.18

Nlocal:        5552.90 ave        7905 max           0 min
Histogram: 4 2 2 0 2 6 4 1 14 17
Nghost:        6213.63 ave        8768 max         412 min
Histogram: 4 0 4 0 8 0 4 5 7 20
Neighs:       158427.0 ave      230313 max           0 min
Histogram: 4 2 2 0 5 3 4 4 12 16

Total # of neighbors = 8238188
Ave neighs/atom = 28.530422
Neighbor list builds = 0
Dangerous builds = 0
The dot product: -6.76000863929263e-08
Setting atom values ...
  1 settings made for x
  1 settings made for y
  1 settings made for z
Setting up cg style minimization ...
  Unit style    : metal
  Current step  : 5709
Per MPI rank memory allocation (min/avg/max) = 5.465 | 6.344 | 6.728 Mbytes
Step PotEng KinEng TotEng v_fx v_fy v_fz 
    5709   -1152448.6            0   -1152448.6 -0.029570161 -0.086370527 0.0034488702 
    5866   -1152448.6            0   -1152448.6 4.2774449e-07 -5.9137648e-07 -4.5754377e-08 
Loop time of 3.43481 on 52 procs for 157 steps with 288751 atoms

99.9% CPU use with 52 MPI tasks x 1 OpenMP threads

Minimization stats:
  Stopping criterion = energy tolerance
  Energy initial, next-to-last, final = 
     -1152448.61275512  -1152448.61443835  -1152448.61443835
  Force two-norm initial, final = 0.20606457 0.00015010786
  Force max component initial, final = 0.086370527 6.5267441e-06
  Final line search alpha, max atom move = 1.0000000 6.5267441e-06
  Iterations, force evaluations = 157 314

MPI task timing breakdown:
Section |  min time  |  avg time  |  max time  |%varavg| %total
---------------------------------------------------------------
Pair    | 0.88361    | 2.4966     | 3.3038     |  43.9 | 72.68
Neigh   | 0          | 0          | 0          |   0.0 |  0.00
Comm    | 0.040598   | 0.5522     | 1.7324     |  66.9 | 16.08
Output  | 0          | 0          | 0          |   0.0 |  0.00
Modify  | 6.9218e-05 | 0.0052316  | 0.011019   |   3.4 |  0.15
Other   |            | 0.3808     |            |       | 11.09

Nlocal:        5552.90 ave        7904 max           0 min
Histogram: 4 2 2 0 2 6 4 1 14 17
Nghost:        6213.63 ave        8768 max         412 min
Histogram: 4 0 4 0 8 0 4 5 7 20
Neighs:       158427.0 ave      230302 max           0 min
Histogram: 4 2 2 0 5 3 4 4 12 16

Total # of neighbors = 8238187
Ave neighs/atom = 28.530419
Neighbor list builds = 0
Dangerous builds = 0
The dot product: 2.0468543824413e-09
Setting atom values ...
  1 settings made for x
  1 settings made for y
  1 settings made for z
Setting up cg style minimization ...
  Unit style    : metal
  Current step  : 5866
Per MPI rank memory allocation (min/avg/max) = 5.465 | 6.344 | 6.728 Mbytes
Step PotEng KinEng TotEng v_fx v_fy v_fz 
    5866   -1152448.6            0   -1152448.6  -0.02371032  -0.08648114 0.0017574041 
    6000   -1152448.6            0   -1152448.6 4.8934832e-05 0.00011573673 -4.1301126e-06 
    6011   -1152448.6            0   -1152448.6 3.5110745e-06 9.0348505e-06 -2.9047705e-07 
Loop time of 3.16113 on 52 procs for 145 steps with 288751 atoms

99.9% CPU use with 52 MPI tasks x 1 OpenMP threads

Minimization stats:
  Stopping criterion = energy tolerance
  Energy initial, next-to-last, final = 
     -1152448.58197975  -1152448.58362062  -1152448.58362062
  Force two-norm initial, final = 0.20409325 0.00024762106
  Force max component initial, final = 0.08648114 4.3740003e-05
  Final line search alpha, max atom move = 1.0000000 4.3740003e-05
  Iterations, force evaluations = 145 290

MPI task timing breakdown:
Section |  min time  |  avg time  |  max time  |%varavg| %total
---------------------------------------------------------------
Pair    | 0.8192     | 2.3018     | 3.0328     |  42.1 | 72.82
Neigh   | 0          | 0          | 0          |   0.0 |  0.00
Comm    | 0.038122   | 0.50612    | 1.598      |  64.9 | 16.01
Output  | 0.00011819 | 0.00012206 | 0.00027097 |   0.0 |  0.00
Modify  | 6.965e-05  | 0.0048805  | 0.010255   |   3.3 |  0.15
Other   |            | 0.3482     |            |       | 11.01

Nlocal:        5552.90 ave        7904 max           0 min
Histogram: 4 2 2 0 2 6 4 1 14 17
Nghost:        6213.63 ave        8768 max         412 min
Histogram: 4 0 4 0 8 0 4 5 7 20
Neighs:       158427.0 ave      230320 max           0 min
Histogram: 4 2 2 0 5 3 4 4 12 16

Total # of neighbors = 8238187
Ave neighs/atom = 28.530419
Neighbor list builds = 0
Dangerous builds = 0
The dot product: -7.92537732100416e-08
Setting atom values ...
  1 settings made for x
  1 settings made for y
  1 settings made for z
Setting up cg style minimization ...
  Unit style    : metal
  Current step  : 6011
Per MPI rank memory allocation (min/avg/max) = 5.465 | 6.344 | 6.728 Mbytes
Step PotEng KinEng TotEng v_fx v_fy v_fz 
    6011   -1152448.5            0   -1152448.5 -0.015535083 -0.086683361 -0.00015750689 
    6155   -1152448.6            0   -1152448.6 4.9813939e-05 8.9513756e-05 -3.1717697e-06 
Loop time of 3.17881 on 52 procs for 144 steps with 288751 atoms

99.9% CPU use with 52 MPI tasks x 1 OpenMP threads

Minimization stats:
  Stopping criterion = energy tolerance
  Energy initial, next-to-last, final = 
     -1152448.54996932  -1152448.55159627  -1152448.55159627
  Force two-norm initial, final = 0.20215607 0.00028883069
  Force max component initial, final = 0.088095467 8.9513756e-05
  Final line search alpha, max atom move = 1.0000000 8.9513756e-05
  Iterations, force evaluations = 144 288

MPI task timing breakdown:
Section |  min time  |  avg time  |  max time  |%varavg| %total
---------------------------------------------------------------
Pair    | 0.80578    | 2.3031     | 3.0589     |  42.2 | 72.45
Neigh   | 0          | 0          | 0          |   0.0 |  0.00
Comm    | 0.038636   | 0.5098     | 1.6        |  64.5 | 16.04
Output  | 0          | 0          | 0          |   0.0 |  0.00
Modify  | 7.0289e-05 | 0.0047589  | 0.010054   |   3.2 |  0.15
Other   |            | 0.3612     |            |       | 11.36

Nlocal:        5552.90 ave        7903 max           0 min
Histogram: 4 2 2 0 2 6 4 1 14 17
Nghost:        6213.50 ave        8768 max         412 min
Histogram: 4 0 4 0 8 0 4 5 7 20
Neighs:       158427.0 ave      230282 max           0 min
Histogram: 4 2 2 0 5 3 4 4 12 16

Total # of neighbors = 8238193
Ave neighs/atom = 28.530440
Neighbor list builds = 0
Dangerous builds = 0
The dot product: -9.57290925656687e-07
Setting atom values ...
  1 settings made for x
  1 settings made for y
  1 settings made for z
Setting up cg style minimization ...
  Unit style    : metal
  Current step  : 6155
Per MPI rank memory allocation (min/avg/max) = 5.465 | 6.344 | 6.728 Mbytes
Step PotEng KinEng TotEng v_fx v_fy v_fz 
    6155   -1152448.5            0   -1152448.5  0.012689898 -0.098620668 -0.0049428257 
    6436   -1152448.6            0   -1152448.6 -8.7596304e-06 -2.2823514e-05 4.783048e-08 
Loop time of 6.17078 on 52 procs for 281 steps with 288751 atoms

99.9% CPU use with 52 MPI tasks x 1 OpenMP threads

Minimization stats:
  Stopping criterion = energy tolerance
  Energy initial, next-to-last, final = 
     -1152448.51720601  -1152448.61332012  -1152448.61332012
  Force two-norm initial, final = 0.20740036 0.00010895276
  Force max component initial, final = 0.098620668 2.2823514e-05
  Final line search alpha, max atom move = 1.0000000 2.2823514e-05
  Iterations, force evaluations = 281 562

MPI task timing breakdown:
Section |  min time  |  avg time  |  max time  |%varavg| %total
---------------------------------------------------------------
Pair    | 1.6118     | 4.472      | 5.868      |  58.1 | 72.47
Neigh   | 5.8019e-05 | 0.017181   | 0.025236   |   5.5 |  0.28
Comm    | 0.081278   | 0.98815    | 3.1223     |  89.9 | 16.01
Output  | 0          | 0          | 0          |   0.0 |  0.00
Modify  | 0.00013718 | 0.0093949  | 0.019847   |   4.5 |  0.15
Other   |            | 0.684      |            |       | 11.09

Nlocal:        5552.90 ave        7906 max           0 min
Histogram: 4 2 2 0 2 6 4 1 14 17
Nghost:        6213.50 ave        8768 max         412 min
Histogram: 4 0 4 0 8 0 4 5 7 20
Neighs:       158427.0 ave      230406 max           0 min
Histogram: 4 2 2 0 5 3 4 4 12 16

Total # of neighbors = 8238191
Ave neighs/atom = 28.530433
Neighbor list builds = 3
Dangerous builds = 0
The dot product: 2.18637764425927e-06
Setting atom values ...
  1 settings made for x
  1 settings made for y
  1 settings made for z
Setting up cg style minimization ...
  Unit style    : metal
  Current step  : 6436
Per MPI rank memory allocation (min/avg/max) = 5.465 | 6.344 | 6.728 Mbytes
Step PotEng KinEng TotEng v_fx v_fy v_fz 
    6436   -1152448.6            0   -1152448.6  0.070000547  -0.14019421 -0.080141609 
    6726     -1152449            0     -1152449 -5.4754793e-06 3.1351711e-06 3.6959534e-06 
Loop time of 6.44224 on 52 procs for 290 steps with 288751 atoms

99.9% CPU use with 52 MPI tasks x 1 OpenMP threads

Minimization stats:
  Stopping criterion = energy tolerance
  Energy initial, next-to-last, final = 
     -1152448.60700302  -1152449.00001753  -1152449.00001753
  Force two-norm initial, final = 0.2273396 0.0001227825
  Force max component initial, final = 0.14019421 3.0499472e-05
  Final line search alpha, max atom move = 1.0000000 3.0499472e-05
  Iterations, force evaluations = 290 579

MPI task timing breakdown:
Section |  min time  |  avg time  |  max time  |%varavg| %total
---------------------------------------------------------------
Pair    | 1.6645     | 4.6306     | 6.139      |  59.2 | 71.88
Neigh   | 0.00011393 | 0.034353   | 0.050446   |   7.8 |  0.53
Comm    | 0.078628   | 1.0254     | 3.2051     |  90.7 | 15.92
Output  | 0          | 0          | 0          |   0.0 |  0.00
Modify  | 0.00013383 | 0.0095587  | 0.020195   |   4.6 |  0.15
Other   |            | 0.7424     |            |       | 11.52

Nlocal:        5552.90 ave        7918 max           0 min
Histogram: 4 2 2 0 2 6 4 1 14 17
Nghost:        6213.62 ave        8769 max         412 min
Histogram: 4 0 4 0 8 0 4 5 7 20
Neighs:       158427.0 ave      230831 max           0 min
Histogram: 4 2 2 0 5 3 4 4 12 16

Total # of neighbors = 8238211
Ave neighs/atom = 28.530502
Neighbor list builds = 6
Dangerous builds = 0
The dot product: -2.84587904905562e-06
Setting atom values ...
  1 settings made for x
  1 settings made for y
  1 settings made for z
Setting up cg style minimization ...
  Unit style    : metal
  Current step  : 6726
Per MPI rank memory allocation (min/avg/max) = 5.465 | 6.344 | 6.728 Mbytes
Step PotEng KinEng TotEng v_fx v_fy v_fz 
    6726     -1152449            0     -1152449   0.19213368   0.55829032   0.80527341 
    6986   -1152449.2            0   -1152449.2 -3.4266851e-05 -6.0671231e-06 1.6843409e-05 
Loop time of 5.76488 on 52 procs for 260 steps with 288751 atoms

99.9% CPU use with 52 MPI tasks x 1 OpenMP threads

Minimization stats:
  Stopping criterion = linesearch alpha is zero
  Energy initial, next-to-last, final = 
     -1152449.02366738  -1152449.18111396  -1152449.18111396
  Force two-norm initial, final = 1.0102832 0.00013620397
  Force max component initial, final = 0.80527341 3.4266851e-05
  Final line search alpha, max atom move = 0.5 1.7133426e-05
  Iterations, force evaluations = 260 521

MPI task timing breakdown:
Section |  min time  |  avg time  |  max time  |%varavg| %total
---------------------------------------------------------------
Pair    | 1.4844     | 4.1458     | 5.5245     |  56.5 | 71.92
Neigh   | 3.7157e-05 | 0.011444   | 0.016873   |   4.5 |  0.20
Comm    | 0.069632   | 0.92077    | 2.8653     |  85.3 | 15.97
Output  | 0          | 0          | 0          |   0.0 |  0.00
Modify  | 0.00011826 | 0.0087501  | 0.019024   |   4.5 |  0.15
Other   |            | 0.6781     |            |       | 11.76

Nlocal:        5552.90 ave        7921 max           0 min
Histogram: 4 2 2 0 3 5 4 2 13 17
Nghost:        6213.50 ave        8770 max         412 min
Histogram: 4 0 4 0 8 0 4 5 7 20
Neighs:       158427.0 ave      230939 max           0 min
Histogram: 4 2 2 0 5 3 4 4 12 16

Total # of neighbors = 8238205
Ave neighs/atom = 28.530481
Neighbor list builds = 2
Dangerous builds = 0
The dot product: -1.13333624648421e-06
Setting atom values ...
  1 settings made for x
  1 settings made for y
  1 settings made for z
Setting up cg style minimization ...
  Unit style    : metal
  Current step  : 6986
Per MPI rank memory allocation (min/avg/max) = 5.465 | 6.344 | 6.728 Mbytes
Step PotEng KinEng TotEng v_fx v_fy v_fz 
    6986   -1152449.2            0   -1152449.2  -0.10210945  -0.35550565  -0.24576196 
    7000   -1152449.2            0   -1152449.2   0.01053844 0.0018103253 -0.0057179418 
    7187   -1152449.2            0   -1152449.2 -1.4528641e-05 4.189233e-05 4.743769e-05 
Loop time of 4.44167 on 52 procs for 201 steps with 288751 atoms

99.9% CPU use with 52 MPI tasks x 1 OpenMP threads

Minimization stats:
  Stopping criterion = energy tolerance
  Energy initial, next-to-last, final = 
     -1152449.20513105   -1152449.2307535   -1152449.2307535
  Force two-norm initial, final = 0.47495691 0.00039507611
  Force max component initial, final = 0.35550565 0.00010243234
  Final line search alpha, max atom move = 1.0000000 0.00010243234
  Iterations, force evaluations = 201 402

MPI task timing breakdown:
Section |  min time  |  avg time  |  max time  |%varavg| %total
---------------------------------------------------------------
Pair    | 1.1342     | 3.2073     | 4.2654     |  49.7 | 72.21
Neigh   | 1.8665e-05 | 0.0057248  | 0.0084208  |   3.2 |  0.13
Comm    | 0.053723   | 0.71282    | 2.221      |  75.3 | 16.05
Output  | 0.00011645 | 0.00012089 | 0.00026681 |   0.0 |  0.00
Modify  | 8.6923e-05 | 0.0066522  | 0.013978   |   3.8 |  0.15
Other   |            | 0.5091     |            |       | 11.46

Nlocal:        5552.90 ave        7921 max           0 min
Histogram: 4 2 2 0 3 5 4 2 13 17
Nghost:        6213.63 ave        8770 max         412 min
Histogram: 4 0 4 0 8 0 4 5 7 20
Neighs:       158427.0 ave      230885 max           0 min
Histogram: 4 2 2 0 5 3 4 4 12 16

Total # of neighbors = 8238197
Ave neighs/atom = 28.530454
Neighbor list builds = 1
Dangerous builds = 0
The dot product: -6.27089386851848e-06
Setting atom values ...
  1 settings made for x
  1 settings made for y
  1 settings made for z
Setting up cg style minimization ...
  Unit style    : metal
  Current step  : 7187
Per MPI rank memory allocation (min/avg/max) = 5.465 | 6.344 | 6.728 Mbytes
Step PotEng KinEng TotEng v_fx v_fy v_fz 
    7187   -1152449.3            0   -1152449.3  0.038967802  0.072102329  0.053055319 
    7399   -1152449.3            0   -1152449.3 -1.1976819e-05 -9.2243241e-07 7.350567e-06 
Loop time of 4.65739 on 52 procs for 212 steps with 288751 atoms

99.9% CPU use with 52 MPI tasks x 1 OpenMP threads

Minimization stats:
  Stopping criterion = energy tolerance
  Energy initial, next-to-last, final = 
     -1152449.25225886  -1152449.25668694  -1152449.25668694
  Force two-norm initial, final = 0.18623109 0.00012781875
  Force max component initial, final = 0.087904229 3.2844978e-05
  Final line search alpha, max atom move = 1.0000000 3.2844978e-05
  Iterations, force evaluations = 212 424

MPI task timing breakdown:
Section |  min time  |  avg time  |  max time  |%varavg| %total
---------------------------------------------------------------
Pair    | 1.1949     | 3.3715     | 4.4743     |  51.1 | 72.39
Neigh   | 0          | 0          | 0          |   0.0 |  0.00
Comm    | 0.055692   | 0.74783    | 2.3433     |  77.7 | 16.06
Output  | 0          | 0          | 0          |   0.0 |  0.00
Modify  | 9.7587e-05 | 0.007081   | 0.014963   |   3.9 |  0.15
Other   |            | 0.5309     |            |       | 11.40

Nlocal:        5552.90 ave        7921 max           0 min
Histogram: 4 2 2 0 3 5 4 2 13 17
Nghost:        6213.58 ave        8770 max         412 min
Histogram: 4 0 4 0 8 0 4 5 7 20
Neighs:       158427.0 ave      230925 max           0 min
Histogram: 4 2 2 0 5 3 4 4 12 16

Total # of neighbors = 8238205
Ave neighs/atom = 28.530481
Neighbor list builds = 0
Dangerous builds = 0
The dot product: -8.41012669183208e-08
Setting atom values ...
  1 settings made for x
  1 settings made for y
  1 settings made for z
Setting up cg style minimization ...
  Unit style    : metal
  Current step  : 7399
Per MPI rank memory allocation (min/avg/max) = 5.465 | 6.344 | 6.728 Mbytes
Step PotEng KinEng TotEng v_fx v_fy v_fz 
    7399   -1152449.3            0   -1152449.3 -0.025876278  -0.05915235 -0.042964257 
    7589   -1152449.3            0   -1152449.3 -1.7242795e-05 -3.1344141e-06 8.8870335e-06 
Loop time of 4.20114 on 52 procs for 190 steps with 288751 atoms

99.9% CPU use with 52 MPI tasks x 1 OpenMP threads

Minimization stats:
  Stopping criterion = linesearch alpha is zero
  Energy initial, next-to-last, final = 
     -1152449.27726301  -1152449.27886526  -1152449.27886526
  Force two-norm initial, final = 0.17882257 8.5032695e-05
  Force max component initial, final = 0.089213878 2.1125779e-05
  Final line search alpha, max atom move = 0.5 1.0562890e-05
  Iterations, force evaluations = 190 381

MPI task timing breakdown:
Section |  min time  |  avg time  |  max time  |%varavg| %total
---------------------------------------------------------------
Pair    | 1.0732     | 3.0364     | 4.0388     |  48.6 | 72.28
Neigh   | 0          | 0          | 0          |   0.0 |  0.00
Comm    | 0.050633   | 0.67422    | 2.0996     |  73.2 | 16.05
Output  | 0          | 0          | 0          |   0.0 |  0.00
Modify  | 9.0254e-05 | 0.0063631  | 0.01372    |   3.8 |  0.15
Other   |            | 0.4842     |            |       | 11.52

Nlocal:        5552.90 ave        7921 max           0 min
Histogram: 4 2 2 0 3 5 4 2 13 17
Nghost:        6213.58 ave        8770 max         412 min
Histogram: 4 0 4 0 8 0 4 5 7 20
Neighs:       158427.0 ave      230923 max           0 min
Histogram: 4 2 2 0 5 3 4 4 12 16

Total # of neighbors = 8238202
Ave neighs/atom = 28.530471
Neighbor list builds = 0
Dangerous builds = 0
The dot product: 6.68044150021612e-08
Setting atom values ...
  1 settings made for x
  1 settings made for y
  1 settings made for z
Setting up cg style minimization ...
  Unit style    : metal
  Current step  : 7589
Per MPI rank memory allocation (min/avg/max) = 5.465 | 6.344 | 6.728 Mbytes
Step PotEng KinEng TotEng v_fx v_fy v_fz 
    7589   -1152449.3            0   -1152449.3 -0.0029131518  -0.01961939 -0.018590685 
    7755   -1152449.3            0   -1152449.3 -4.7062399e-05 1.5040323e-05 4.8814038e-05 
Loop time of 3.64805 on 52 procs for 166 steps with 288751 atoms

99.9% CPU use with 52 MPI tasks x 1 OpenMP threads

Minimization stats:
  Stopping criterion = energy tolerance
[...]

Nlocal:        5552.90 ave        7921 max           0 min
Histogram: 4 2 2 0 3 5 4 2 13 17
Nghost:        6213.60 ave        8770 max         412 min
Histogram: 4 0 4 0 8 0 4 5 7 20
Neighs:       158427.0 ave      230894 max           0 min
Histogram: 4 2 2 0 5 3 4 4 12 16

Total # of neighbors = 8238201
Ave neighs/atom = 28.530467
Neighbor list builds = 0
Dangerous builds = 0
The dot product: 3.8705546851007e-07
Setting atom values ...
  1 settings made for x
  1 settings made for y
  1 settings made for z
Setting up cg style minimization ...
  Unit style    : metal
  Current step  : 8138
Per MPI rank memory allocation (min/avg/max) = 5.465 | 6.344 | 6.728 Mbytes
Step PotEng KinEng TotEng v_fx v_fy v_fz 
    8138   -1152449.4            0   -1152449.4 -0.009234738  -0.03628323 -0.030536229 
    8345   -1152449.4            0   -1152449.4 1.0109722e-05 -6.7527092e-06 -1.4079226e-05 
Loop time of 4.58956 on 52 procs for 207 steps with 288751 atoms

99.9% CPU use with 52 MPI tasks x 1 OpenMP threads

Minimization stats:
  Stopping criterion = linesearch alpha is zero
  Energy initial, next-to-last, final = 
     -1152449.38312425  -1152449.38452194  -1152449.38452194
  Force two-norm initial, final = 0.17159152 5.9935192e-05
  Force max component initial, final = 0.088305357 1.8478714e-05
  Final line search alpha, max atom move = 0.5 9.2393570e-06
  Iterations, force evaluations = 207 417

MPI task timing breakdown:
Section |  min time  |  avg time  |  max time  |%varavg| %total
---------------------------------------------------------------
Pair    | 1.1739     | 3.3183     | 4.3908     |  50.7 | 72.30
Neigh   | 0          | 0          | 0          |   0.0 |  0.00
Comm    | 0.058673   | 0.73764    | 2.3011     |  76.6 | 16.07
Output  | 0          | 0          | 0          |   0.0 |  0.00
Modify  | 9.5778e-05 | 0.0069466  | 0.014747   |   3.9 |  0.15
Other   |            | 0.5267     |            |       | 11.48

Nlocal:        5552.90 ave        7921 max           0 min
Histogram: 4 2 2 0 3 5 4 2 13 17
Nghost:        6213.60 ave        8770 max         412 min
Histogram: 4 0 4 0 8 0 4 5 7 20
Neighs:       158427.0 ave      230895 max           0 min
Histogram: 4 2 2 0 5 3 4 4 12 16

Total # of neighbors = 8238198
Ave neighs/atom = 28.530457
Neighbor list builds = 0
Dangerous builds = 0
The dot product: 2.36383544224408e-08
Setting atom values ...
  1 settings made for x
  1 settings made for y
  1 settings made for z
Setting up cg style minimization ...
  Unit style    : metal
  Current step  : 8345
Per MPI rank memory allocation (min/avg/max) = 5.465 | 6.344 | 6.728 Mbytes
Step PotEng KinEng TotEng v_fx v_fy v_fz 
    8345   -1152449.4            0   -1152449.4 -0.0049868278 -0.031937657 -0.029198368 
    8543   -1152449.4            0   -1152449.4 9.3462587e-06 1.1760659e-05 5.4138326e-06 
Loop time of 4.34644 on 52 procs for 198 steps with 288751 atoms

99.9% CPU use with 52 MPI tasks x 1 OpenMP threads

Minimization stats:
  Stopping criterion = linesearch alpha is zero
  Energy initial, next-to-last, final = 
     -1152449.39615234   -1152449.3975343   -1152449.3975343
  Force two-norm initial, final = 0.17090397 8.1497284e-05
  Force max component initial, final = 0.087823563 1.5799169e-05
  Final line search alpha, max atom move = 0.5 7.8995843e-06
  Iterations, force evaluations = 198 397

MPI task timing breakdown:
Section |  min time  |  avg time  |  max time  |%varavg| %total
---------------------------------------------------------------
Pair    | 1.1214     | 3.1582     | 4.1638     |  49.4 | 72.66
Neigh   | 0          | 0          | 0          |   0.0 |  0.00
Comm    | 0.05375    | 0.69753    | 2.1931     |  75.3 | 16.05
Output  | 0          | 0          | 0          |   0.0 |  0.00
Modify  | 8.4323e-05 | 0.0066381  | 0.014072   |   3.8 |  0.15
Other   |            | 0.484      |            |       | 11.14

Nlocal:        5552.90 ave        7920 max           0 min
Histogram: 4 2 2 0 2 6 4 2 13 17
Nghost:        6213.60 ave        8770 max         412 min
Histogram: 4 0 4 0 8 0 4 5 7 20
Neighs:       158427.0 ave      230864 max           0 min
Histogram: 4 2 2 0 5 3 4 4 12 16

Total # of neighbors = 8238196
Ave neighs/atom = 28.530450
Neighbor list builds = 0
Dangerous builds = 0
The dot product: -3.62530307251306e-09
Setting atom values ...
  1 settings made for x
  1 settings made for y
  1 settings made for z
Setting up cg style minimization ...
  Unit style    : metal
  Current step  : 8543
Per MPI rank memory allocation (min/avg/max) = 5.465 | 6.344 | 6.728 Mbytes
Step PotEng KinEng TotEng v_fx v_fy v_fz 
    8543   -1152449.4            0   -1152449.4 -0.0043084588 -0.032465912 -0.030272323 
    8772   -1152449.4            0   -1152449.4 -6.9837943e-07 -3.244271e-06 -2.8342146e-06 
Loop time of 5.03002 on 52 procs for 229 steps with 288751 atoms

99.9% CPU use with 52 MPI tasks x 1 OpenMP threads

Minimization stats:
  Stopping criterion = linesearch alpha is zero
  Energy initial, next-to-last, final = 
     -1152449.40772203  -1152449.40910705  -1152449.40910705
  Force two-norm initial, final = 0.1718425 1.9189926e-05
  Force max component initial, final = 0.08719729 3.2442710e-06
  Final line search alpha, max atom move = 0.5 1.6221355e-06
  Iterations, force evaluations = 229 459

MPI task timing breakdown:
Section |  min time  |  avg time  |  max time  |%varavg| %total
---------------------------------------------------------------
Pair    | 1.2924     | 3.6538     | 4.8305     |  53.2 | 72.64
Neigh   | 0          | 0          | 0          |   0.0 |  0.00
Comm    | 0.061027   | 0.80642    | 2.528      |  80.8 | 16.03
Output  | 0          | 0          | 0          |   0.0 |  0.00
Modify  | 0.00010356 | 0.0076712  | 0.016441   |   4.1 |  0.15
Other   |            | 0.5621     |            |       | 11.17

Nlocal:        5552.90 ave        7920 max           0 min
Histogram: 4 2 2 0 2 6 4 2 13 17
Nghost:        6213.63 ave        8770 max         412 min
Histogram: 4 0 4 0 8 0 4 5 7 20
Neighs:       158427.0 ave      230863 max           0 min
Histogram: 4 2 2 0 5 3 4 4 12 16

Total # of neighbors = 8238198
Ave neighs/atom = 28.530457
Neighbor list builds = 0
Dangerous builds = 0
The dot product: 5.68953009514735e-09
Setting atom values ...
  1 settings made for x
  1 settings made for y
  1 settings made for z
Setting up cg style minimization ...
  Unit style    : metal
  Current step  : 8772
Per MPI rank memory allocation (min/avg/max) = 5.465 | 6.344 | 6.728 Mbytes
Step PotEng KinEng TotEng v_fx v_fy v_fz 
    8772   -1152449.4            0   -1152449.4 -0.0028913431 -0.032362331 -0.031252708 
    8930   -1152449.4            0   -1152449.4 4.1744969e-05 3.1129131e-05 2.2276125e-06 
Loop time of 3.47496 on 52 procs for 158 steps with 288751 atoms

99.9% CPU use with 52 MPI tasks x 1 OpenMP threads

Minimization stats:
  Stopping criterion = energy tolerance
  Energy initial, next-to-last, final = 
     -1152449.41784924  -1152449.41924639  -1152449.41924639
  Force two-norm initial, final = 0.17281829 0.0002600813
  Force max component initial, final = 0.086602077 4.1744969e-05
  Final line search alpha, max atom move = 1.0000000 4.1744969e-05
  Iterations, force evaluations = 158 316

MPI task timing breakdown:
Section |  min time  |  avg time  |  max time  |%varavg| %total
---------------------------------------------------------------
Pair    | 0.89038    | 2.5175     | 3.3323     |  44.1 | 72.45
Neigh   | 0          | 0          | 0          |   0.0 |  0.00
Comm    | 0.040918   | 0.5655     | 1.7748     |  66.7 | 16.27
Output  | 0          | 0          | 0          |   0.0 |  0.00
Modify  | 6.4186e-05 | 0.0052715  | 0.011072   |   3.4 |  0.15
Other   |            | 0.3867     |            |       | 11.13

Nlocal:        5552.90 ave        7920 max           0 min
Histogram: 4 2 2 0 2 6 4 2 13 17
Nghost:        6213.65 ave        8770 max         412 min
Histogram: 4 0 4 0 8 0 4 5 7 20
Neighs:       158427.0 ave      230863 max           0 min
Histogram: 4 2 2 0 5 3 4 4 12 16

Total # of neighbors = 8238197
Ave neighs/atom = 28.530454
Neighbor list builds = 0
Dangerous builds = 0
The dot product: -4.38734561745637e-09
Setting atom values ...
  1 settings made for x
  1 settings made for y
  1 settings made for z
Setting up cg style minimization ...
  Unit style    : metal
  Current step  : 8930
Per MPI rank memory allocation (min/avg/max) = 5.465 | 6.344 | 6.728 Mbytes
Step PotEng KinEng TotEng v_fx v_fy v_fz 
    8930   -1152449.4            0   -1152449.4 -0.0012980253 -0.032239595 -0.032356671 
    9000   -1152449.4            0   -1152449.4 0.00019952962 0.00013163229 -7.0409012e-06 
    9106   -1152449.4            0   -1152449.4 -5.8732987e-06 -1.3581107e-05 -9.8143867e-06 
Loop time of 3.84885 on 52 procs for 176 steps with 288751 atoms

99.9% CPU use with 52 MPI tasks x 1 OpenMP threads

Minimization stats:
  Stopping criterion = linesearch alpha is zero
  Energy initial, next-to-last, final = 
     -1152449.42655421  -1152449.42797027  -1152449.42797027
  Force two-norm initial, final = 0.17399916 0.00014837682
  Force max component initial, final = 0.085942593 2.7444189e-05
  Final line search alpha, max atom move = 0.5 1.3722095e-05
  Iterations, force evaluations = 176 353

MPI task timing breakdown:
Section |  min time  |  avg time  |  max time  |%varavg| %total
---------------------------------------------------------------
Pair    | 0.99719    | 2.8105     | 3.6995     |  46.6 | 73.02
Neigh   | 0          | 0          | 0          |   0.0 |  0.00
Comm    | 0.046314   | 0.61757    | 1.9501     |  71.1 | 16.05
Output  | 0.00012283 | 0.00012734 | 0.00031836 |   0.0 |  0.00
Modify  | 7.214e-05  | 0.0058835  | 0.012416   |   3.6 |  0.15
Other   |            | 0.4148     |            |       | 10.78

Nlocal:        5552.90 ave        7920 max           0 min
Histogram: 4 2 2 0 2 6 4 2 13 17
Nghost:        6213.65 ave        8769 max         412 min
Histogram: 4 0 4 0 8 0 4 5 7 20
Neighs:       158427.0 ave      230871 max           0 min
Histogram: 4 2 2 0 5 3 4 4 12 16

Total # of neighbors = 8238196
Ave neighs/atom = 28.530450
Neighbor list builds = 0
Dangerous builds = 0
The dot product: 2.51343803313091e-08
Setting atom values ...
  1 settings made for x
  1 settings made for y
  1 settings made for z
Setting up cg style minimization ...
  Unit style    : metal
  Current step  : 9106
Per MPI rank memory allocation (min/avg/max) = 5.465 | 6.344 | 6.728 Mbytes
Step PotEng KinEng TotEng v_fx v_fy v_fz 
    9106   -1152449.4            0   -1152449.4 0.0003435755 -0.032177749 -0.033573225 
    9284   -1152449.4            0   -1152449.4 7.2696265e-06 2.1009672e-05 1.6534535e-05 
Loop time of 3.91351 on 52 procs for 178 steps with 288751 atoms

99.9% CPU use with 52 MPI tasks x 1 OpenMP threads

Minimization stats:
  Stopping criterion = linesearch alpha is zero
  Energy initial, next-to-last, final = 
     -1152449.43386785  -1152449.43530826  -1152449.43530826
  Force two-norm initial, final = 0.17548418 0.00013563505
  Force max component initial, final = 0.085271767 2.3741031e-05
  Final line search alpha, max atom move = 0.5 1.1870515e-05
  Iterations, force evaluations = 178 357

MPI task timing breakdown:
Section |  min time  |  avg time  |  max time  |%varavg| %total
---------------------------------------------------------------
Pair    | 1.006      | 2.8436     | 3.7583     |  46.9 | 72.66
Neigh   | 0          | 0          | 0          |   0.0 |  0.00
Comm    | 0.04695    | 0.62734    | 1.9661     |  71.3 | 16.03
Output  | 0          | 0          | 0          |   0.0 |  0.00
Modify  | 7.6964e-05 | 0.0059579  | 0.012655   |   3.6 |  0.15
Other   |            | 0.4367     |            |       | 11.16

Nlocal:        5552.90 ave        7919 max           0 min
Histogram: 4 2 2 0 2 6 4 2 13 17
Nghost:        6213.65 ave        8769 max         412 min
Histogram: 4 0 4 0 8 0 4 5 7 20
Neighs:       158427.0 ave      230848 max           0 min
Histogram: 4 2 2 0 5 3 4 4 12 16

Total # of neighbors = 8238197
Ave neighs/atom = 28.530454
Neighbor list builds = 0
Dangerous builds = 0
The dot product: -4.73058450629679e-08
Setting atom values ...
  1 settings made for x
  1 settings made for y
  1 settings made for z
Setting up cg style minimization ...
  Unit style    : metal
  Current step  : 9284
Per MPI rank memory allocation (min/avg/max) = 5.465 | 6.344 | 6.728 Mbytes
Step PotEng KinEng TotEng v_fx v_fy v_fz 
    9284   -1152449.4            0   -1152449.4 0.0020228228 -0.032052931 -0.034771347 
    9479   -1152449.4            0   -1152449.4 1.1071945e-05 1.0899797e-05 3.3402358e-06 
Loop time of 4.26105 on 52 procs for 195 steps with 288751 atoms

99.9% CPU use with 52 MPI tasks x 1 OpenMP threads

Minimization stats:
  Stopping criterion = linesearch alpha is zero
  Energy initial, next-to-last, final = 
     -1152449.43983669  -1152449.44130495  -1152449.44130495
  Force two-norm initial, final = 0.17706985 8.0061943e-05
  Force max component initial, final = 0.084545578 1.1071945e-05
  Final line search alpha, max atom move = 0.5 5.5359726e-06
  Iterations, force evaluations = 195 391

MPI task timing breakdown:
Section |  min time  |  avg time  |  max time  |%varavg| %total
---------------------------------------------------------------
Pair    | 1.1023     | 3.1081     | 4.0964     |  49.0 | 72.94
Neigh   | 0          | 0          | 0          |   0.0 |  0.00
Comm    | 0.051152   | 0.68665    | 2.1667     |  74.6 | 16.11
Output  | 0          | 0          | 0          |   0.0 |  0.00
Modify  | 8.5424e-05 | 0.0065238  | 0.01377    |   3.8 |  0.15
Other   |            | 0.4598     |            |       | 10.79

Nlocal:        5552.90 ave        7919 max           0 min
Histogram: 4 2 2 0 2 6 4 1 14 17
Nghost:        6213.65 ave        8769 max         412 min
Histogram: 4 0 4 0 8 0 4 5 7 20
Neighs:       158427.0 ave      230836 max           0 min
Histogram: 4 2 2 0 5 3 4 4 12 16

Total # of neighbors = 8238194
Ave neighs/atom = 28.530443
Neighbor list builds = 0
Dangerous builds = 0
The dot product: -7.7448317717127e-09
Setting atom values ...
  1 settings made for x
  1 settings made for y
  1 settings made for z
Setting up cg style minimization ...
  Unit style    : metal
  Current step  : 9479
Per MPI rank memory allocation (min/avg/max) = 5.465 | 6.344 | 6.728 Mbytes
Step PotEng KinEng TotEng v_fx v_fy v_fz 
    9479   -1152449.4            0   -1152449.4 -0.00031257862 -0.031153517  -0.03227335 
    9645   -1152449.4            0   -1152449.4 4.3895703e-05 1.0392562e-05 -2.0960517e-05 
Loop time of 3.62783 on 52 procs for 166 steps with 288751 atoms

99.9% CPU use with 52 MPI tasks x 1 OpenMP threads

Minimization stats:
  Stopping criterion = energy tolerance
  Energy initial, next-to-last, final = 
     -1152449.44446193  -1152449.44593852  -1152449.44593852
  Force two-norm initial, final = 0.17735749 0.00023426872
  Force max component initial, final = 0.083810535 5.8052061e-05
  Final line search alpha, max atom move = 1.0000000 5.8052061e-05
  Iterations, force evaluations = 166 332

MPI task timing breakdown:
Section |  min time  |  avg time  |  max time  |%varavg| %total
---------------------------------------------------------------
Pair    | 0.93415    | 2.6391     | 3.4878     |  45.2 | 72.75
Neigh   | 0          | 0          | 0          |   0.0 |  0.00
Comm    | 0.043643   | 0.58175    | 1.8272     |  68.8 | 16.04
Output  | 0          | 0          | 0          |   0.0 |  0.00
Modify  | 7.3875e-05 | 0.0055354  | 0.011783   |   3.5 |  0.15
Other   |            | 0.4014     |            |       | 11.07

Nlocal:        5552.90 ave        7918 max           0 min
Histogram: 4 2 2 0 2 6 4 1 14 17
Nghost:        6213.62 ave        8769 max         412 min
Histogram: 4 0 4 0 8 0 4 5 7 20
Neighs:       158427.0 ave      230832 max           0 min
Histogram: 4 2 2 0 5 3 4 4 12 16

Total # of neighbors = 8238196
Ave neighs/atom = 28.530450
Neighbor list builds = 0
Dangerous builds = 0
The dot product: 2.30184268184068e-08
Setting atom values ...
  1 settings made for x
  1 settings made for y
  1 settings made for z
Setting up cg style minimization ...
  Unit style    : metal
  Current step  : 9645
Per MPI rank memory allocation (min/avg/max) = 5.465 | 6.344 | 6.728 Mbytes
Step PotEng KinEng TotEng v_fx v_fy v_fz 
    9645   -1152449.4            0   -1152449.4 -0.0022524017 -0.029773439 -0.029516897 
    9830   -1152449.4            0   -1152449.4 3.5057104e-05 2.749859e-06 -2.2568236e-05 
Loop time of 4.06303 on 52 procs for 185 steps with 288751 atoms

99.9% CPU use with 52 MPI tasks x 1 OpenMP threads

Minimization stats:
  Stopping criterion = linesearch alpha is zero
  Energy initial, next-to-last, final = 
     -1152449.44750745  -1152449.44901228  -1152449.44901228
  Force two-norm initial, final = 0.17741316 0.00013657069
  Force max component initial, final = 0.083115029 3.5057104e-05
  Final line search alpha, max atom move = 0.5 1.7528552e-05
  Iterations, force evaluations = 185 371

MPI task timing breakdown:
Section |  min time  |  avg time  |  max time  |%varavg| %total
---------------------------------------------------------------
Pair    | 1.0441     | 2.9511     | 3.9016     |  47.8 | 72.63
Neigh   | 0          | 0          | 0          |   0.0 |  0.00
Comm    | 0.049253   | 0.65467    | 2.0525     |  72.5 | 16.11
Output  | 0          | 0          | 0          |   0.0 |  0.00
Modify  | 7.8941e-05 | 0.0062045  | 0.01313    |   3.7 |  0.15
Other   |            | 0.451      |            |       | 11.10

Nlocal:        5552.90 ave        7916 max           0 min
Histogram: 4 2 2 0 2 6 4 1 14 17
Nghost:        6213.54 ave        8769 max         412 min
Histogram: 4 0 4 0 8 0 4 5 7 20
Neighs:       158427.0 ave      230793 max           0 min
Histogram: 4 2 2 0 5 3 4 4 12 16

Total # of neighbors = 8238197
Ave neighs/atom = 28.530454
Neighbor list builds = 0
Dangerous builds = 0
The dot product: 4.58617021041521e-11
Setting up cg style minimization ...
  Unit style    : metal
  Current step  : 9830
Per MPI rank memory allocation (min/avg/max) = 5.465 | 6.344 | 6.728 Mbytes
Step PotEng KinEng TotEng v_fx v_fy v_fz 
    9830   -1152449.4            0   -1152449.4  0.049483598  -0.07127825  0.068104599 
   10000   -1152449.5            0   -1152449.5 -6.0955173e-05 -2.9997541e-06 1.1008567e-05 
   10043   -1152449.5            0   -1152449.5 2.9073679e-05 1.4563784e-06 6.462443e-06 
Loop time of 4.67195 on 52 procs for 213 steps with 288751 atoms

99.9% CPU use with 52 MPI tasks x 1 OpenMP threads

Minimization stats:
  Stopping criterion = linesearch alpha is zero
  Energy initial, next-to-last, final = 
     -1152449.44901228  -1152449.45035284  -1152449.45035284
  Force two-norm initial, final = 0.11030625 9.5209563e-05
  Force max component initial, final = 0.07127825 2.9073679e-05
  Final line search alpha, max atom move = 0.5 1.4536839e-05
  Iterations, force evaluations = 213 429

MPI task timing breakdown:
Section |  min time  |  avg time  |  max time  |%varavg| %total
---------------------------------------------------------------
Pair    | 1.2081     | 3.407      | 4.495      |  51.3 | 72.93
Neigh   | 0          | 0          | 0          |   0.0 |  0.00
Comm    | 0.056589   | 0.75133    | 2.3697     |  78.2 | 16.08
Output  | 0.00011664 | 0.00012146 | 0.00031619 |   0.0 |  0.00
Modify  | 7.8848e-05 | 0.0046976  | 0.011756   |   4.2 |  0.10
Other   |            | 0.5088     |            |       | 10.89

Nlocal:        5552.90 ave        7915 max           0 min
Histogram: 4 2 2 0 2 6 4 1 14 17
Nghost:        6213.54 ave        8769 max         412 min
Histogram: 4 0 4 0 8 0 4 5 7 20
Neighs:       158427.0 ave      230761 max           0 min
Histogram: 4 2 2 0 5 3 4 4 12 16

Total # of neighbors = 8238195
Ave neighs/atom = 28.530447
Neighbor list builds = 0
Dangerous builds = 0
