LAMMPS (29 Oct 2020)
OMP_NUM_THREADS environment is not set. Defaulting to 1 thread. (../comm.cpp:94)
  using 1 OpenMP thread(s) per MPI task
OMP_NUM_THREADS environment is not set. Defaulting to 1 thread. (../comm.cpp:94)
  using 1 OpenMP thread(s) per MPI task
Reading data file ...
  orthogonal box = (-122.39241 -121.13707 -37.090501) to (122.39241 121.13707 37.090501)
  13 by 4 by 2 MPI processor grid
  reading atoms ...
  288751 atoms
  read_data CPU = 0.381 seconds
199981 atoms in group inner
88770 atoms in group outer
1 atoms in group carbon
Neighbor list info ...
  update every 1 steps, delay 0 steps, check yes
  max neighbors/atom: 2000, page size: 100000
  master list distance cutoff = 5.6
  ghost atom cutoff = 5.6
  binsize = 2.8, bins = 88 87 27
  1 neighbor lists, perpetual/occasional/extra = 1 0 0
  (1) pair eam/alloy, perpetual
      attributes: half, newton on
      pair build: half/bin/atomonly/newton
      stencil: half/bin/3d/newton
      bin: standard
Setting up cg style minimization ...
  Unit style    : metal
  Current step  : 0
Per MPI rank memory allocation (min/avg/max) = 5.441 | 5.816 | 6.074 Mbytes
Step v_fx v_fy v_fz PotEng KinEng TotEng 
       0   0.12242356   -29.827332    50.056176   -1152433.4            0   -1152433.4 
     180 -7.6407339e-07 -2.8668961e-06 -2.113159e-05   -1152449.5            0   -1152449.5 
Loop time of 2.07068 on 104 procs for 180 steps with 288751 atoms

99.8% CPU use with 104 MPI tasks x 1 OpenMP threads

Minimization stats:
  Stopping criterion = energy tolerance
  Energy initial, next-to-last, final = 
      -1152433.4232477  -1152449.45035271  -1152449.45035271
  Force two-norm initial, final = 87.370051 5.8400137e-05
  Force max component initial, final = 57.225309 2.1131590e-05
  Final line search alpha, max atom move = 1.0000000 2.1131590e-05
  Iterations, force evaluations = 180 352

MPI task timing breakdown:
Section |  min time  |  avg time  |  max time  |%varavg| %total
---------------------------------------------------------------
Pair    | 0.56004    | 1.485      | 1.925      |  32.2 | 71.72
Neigh   | 5.3195e-05 | 0.014712   | 0.021456   |   5.0 |  0.71
Comm    | 0.033628   | 0.33499    | 1.0099     |  48.6 | 16.18
Output  | 0          | 0          | 0          |   0.0 |  0.00
Modify  | 2.0056e-05 | 0.0018948  | 0.0048603  |   2.7 |  0.09
Other   |            | 0.2341     |            |       | 11.30

Nlocal:        2776.45 ave        3957 max           0 min
Histogram: 8 4 4 0 4 12 8 2 28 34
Nghost:        3879.03 ave        5424 max         232 min
Histogram: 8 0 8 0 16 0 8 8 16 40
Neighs:        79213.5 ave      115352 max           0 min
Histogram: 8 4 4 0 10 6 8 8 24 32

Total # of neighbors = 8238207
Ave neighs/atom = 28.530488
Neighbor list builds = 5
Dangerous builds = 0
Setting atom values ...
  1 settings made for x
  1 settings made for y
  1 settings made for z
Setting up cg style minimization ...
  Unit style    : metal
  Current step  : 180
Per MPI rank memory allocation (min/avg/max) = 5.441 | 5.816 | 6.074 Mbytes
Step PotEng KinEng TotEng v_fx v_fy v_fz 
     180   -1152449.4            0   -1152449.4 -0.0077720754 0.0064448171 0.0011984531 
     350   -1152449.5            0   -1152449.5 -5.6257019e-07 7.1982038e-07 8.9554313e-07 
Loop time of 2.00146 on 104 procs for 170 steps with 288751 atoms

99.9% CPU use with 104 MPI tasks x 1 OpenMP threads

Minimization stats:
  Stopping criterion = energy tolerance
  Energy initial, next-to-last, final = 
     -1152449.44945347  -1152449.45006291  -1152449.45006291
  Force two-norm initial, final = 0.11541079 9.2206299e-05
  Force max component initial, final = 0.051742322 3.2174851e-06
  Final line search alpha, max atom move = 1.0000000 3.2174851e-06
  Iterations, force evaluations = 170 340

MPI task timing breakdown:
Section |  min time  |  avg time  |  max time  |%varavg| %total
---------------------------------------------------------------
Pair    | 0.52243    | 1.4374     | 1.8668     |  32.3 | 71.82
Neigh   | 0          | 0          | 0          |   0.0 |  0.00
Comm    | 0.03254    | 0.32655    | 1.0036     |  47.8 | 16.32
Output  | 0          | 0          | 0          |   0.0 |  0.00
Modify  | 2.1772e-05 | 0.0028017  | 0.0059901  |   2.5 |  0.14
Other   |            | 0.2347     |            |       | 11.73

Nlocal:        2776.45 ave        3958 max           0 min
Histogram: 8 4 4 0 4 12 8 2 28 34
Nghost:        3879.01 ave        5425 max         232 min
Histogram: 8 0 8 0 16 0 8 8 16 40
Neighs:        79213.4 ave      115399 max           0 min
Histogram: 8 4 4 0 10 6 8 8 24 32

Total # of neighbors = 8238198
Ave neighs/atom = 28.530457
Neighbor list builds = 0
Dangerous builds = 0
Setting atom values ...
  1 settings made for x
  1 settings made for y
  1 settings made for z
Setting up cg style minimization ...
  Unit style    : metal
  Current step  : 350
Per MPI rank memory allocation (min/avg/max) = 5.441 | 5.816 | 6.074 Mbytes
Step PotEng KinEng TotEng v_fx v_fy v_fz 
     350   -1152449.4            0   -1152449.4 -0.018696222  0.018056504 0.0026227133 
     475   -1152449.4            0   -1152449.4 5.6076469e-07 -1.9483749e-07 1.2714311e-06 
Loop time of 1.44708 on 104 procs for 125 steps with 288751 atoms

99.9% CPU use with 104 MPI tasks x 1 OpenMP threads

Minimization stats:
  Stopping criterion = energy tolerance
  Energy initial, next-to-last, final = 
     -1152449.44670638  -1152449.44838194  -1152449.44838194
  Force two-norm initial, final = 0.19209473 0.00014763764
  Force max component initial, final = 0.080157437 3.0727800e-06
  Final line search alpha, max atom move = 1.0000000 3.0727800e-06
  Iterations, force evaluations = 125 250

MPI task timing breakdown:
Section |  min time  |  avg time  |  max time  |%varavg| %total
---------------------------------------------------------------
Pair    | 0.38179    | 1.049      | 1.3638     |  27.6 | 72.49
Neigh   | 0          | 0          | 0          |   0.0 |  0.00
Comm    | 0.021105   | 0.23647    | 0.7152     |  41.2 | 16.34
Output  | 0          | 0          | 0          |   0.0 |  0.00
Modify  | 1.4941e-05 | 0.0020645  | 0.0044253  |   2.1 |  0.14
Other   |            | 0.1595     |            |       | 11.02

Nlocal:        2776.45 ave        3958 max           0 min
Histogram: 8 4 4 0 4 12 8 2 28 34
Nghost:        3879.03 ave        5426 max         232 min
Histogram: 8 0 8 0 16 0 8 8 16 40
Neighs:        79213.5 ave      115400 max           0 min
Histogram: 8 4 4 0 10 6 8 8 24 32

Total # of neighbors = 8238199
Ave neighs/atom = 28.530461
Neighbor list builds = 0
Dangerous builds = 0
The dot product: -3.55324295160169e-09
Setting atom values ...
  1 settings made for x
  1 settings made for y
  1 settings made for z
Setting up cg style minimization ...
  Unit style    : metal
  Current step  : 475
Per MPI rank memory allocation (min/avg/max) = 5.441 | 5.816 | 6.074 Mbytes
Step PotEng KinEng TotEng v_fx v_fy v_fz 
     475   -1152449.4            0   -1152449.4 -0.023605617  0.026738045 0.0025465699 
     592   -1152449.4            0   -1152449.4 -4.7255717e-06 -7.8074129e-06 -6.3384635e-05 
Loop time of 1.37466 on 104 procs for 117 steps with 288751 atoms

99.9% CPU use with 104 MPI tasks x 1 OpenMP threads

Minimization stats:
  Stopping criterion = energy tolerance
  Energy initial, next-to-last, final = 
     -1152449.44354923  -1152449.44522647  -1152449.44522647
  Force two-norm initial, final = 0.19230244 0.00017697911
  Force max component initial, final = 0.076247901 6.3384635e-05
  Final line search alpha, max atom move = 1.0000000 6.3384635e-05
  Iterations, force evaluations = 117 234

MPI task timing breakdown:
Section |  min time  |  avg time  |  max time  |%varavg| %total
---------------------------------------------------------------
Pair    | 0.3586     | 0.98981    | 1.2929     |  26.9 | 72.00
Neigh   | 0          | 0          | 0          |   0.0 |  0.00
Comm    | 0.021984   | 0.22985    | 0.70801    |  39.3 | 16.72
Output  | 0          | 0          | 0          |   0.0 |  0.00
Modify  | 1.4518e-05 | 0.0019299  | 0.0041066  |   2.1 |  0.14
Other   |            | 0.1531     |            |       | 11.14

Nlocal:        2776.45 ave        3958 max           0 min
Histogram: 8 4 4 0 4 12 8 2 28 34
Nghost:        3879.03 ave        5424 max         232 min
Histogram: 8 0 8 0 16 0 8 8 16 40
Neighs:        79213.5 ave      115400 max           0 min
Histogram: 8 4 4 0 10 6 8 8 24 32

Total # of neighbors = 8238201
Ave neighs/atom = 28.530467
Neighbor list builds = 0
Dangerous builds = 0
The dot product: 1.15620375685153e-07
Setting atom values ...
  1 settings made for x
  1 settings made for y
  1 settings made for z
Setting up cg style minimization ...
  Unit style    : metal
  Current step  : 592
Per MPI rank memory allocation (min/avg/max) = 5.441 | 5.816 | 6.074 Mbytes
Step PotEng KinEng TotEng v_fx v_fy v_fz 
     592   -1152449.4            0   -1152449.4  -0.02561023  0.033885255 0.0037564838 
     737   -1152449.4            0   -1152449.4 -2.7338068e-07 -2.9255939e-06 -2.0155767e-05 
Loop time of 1.66531 on 104 procs for 145 steps with 288751 atoms

99.9% CPU use with 104 MPI tasks x 1 OpenMP threads

Minimization stats:
  Stopping criterion = energy tolerance
  Energy initial, next-to-last, final = 
     -1152449.43890881   -1152449.4405778   -1152449.4405778
  Force two-norm initial, final = 0.19187058 4.8418192e-05
  Force max component initial, final = 0.073333361 2.0155767e-05
  Final line search alpha, max atom move = 1.0000000 2.0155767e-05
  Iterations, force evaluations = 145 290

MPI task timing breakdown:
Section |  min time  |  avg time  |  max time  |%varavg| %total
---------------------------------------------------------------
Pair    | 0.4416     | 1.214      | 1.5779     |  29.7 | 72.90
Neigh   | 0          | 0          | 0          |   0.0 |  0.00
Comm    | 0.024027   | 0.2707     | 0.8268     |  44.5 | 16.25
Output  | 0          | 0          | 0          |   0.0 |  0.00
Modify  | 1.7147e-05 | 0.0023876  | 0.0050896  |   2.3 |  0.14
Other   |            | 0.1782     |            |       | 10.70

Nlocal:        2776.45 ave        3957 max           0 min
Histogram: 8 4 4 0 4 12 8 2 28 34
Nghost:        3879.03 ave        5424 max         232 min
Histogram: 8 0 8 0 16 0 8 8 16 40
Neighs:        79213.5 ave      115359 max           0 min
Histogram: 8 4 4 0 10 6 8 8 24 32

Total # of neighbors = 8238201
Ave neighs/atom = 28.530467
Neighbor list builds = 0
Dangerous builds = 0
The dot product: 3.13481121689122e-08
Setting atom values ...
  1 settings made for x
  1 settings made for y
  1 settings made for z
Setting up cg style minimization ...
  Unit style    : metal
  Current step  : 737
Per MPI rank memory allocation (min/avg/max) = 5.441 | 5.816 | 6.074 Mbytes
Step PotEng KinEng TotEng v_fx v_fy v_fz 
     737   -1152449.4            0   -1152449.4 -0.025938341  0.039446101 0.0060423875 
     868   -1152449.4            0   -1152449.4 -1.044871e-06 -1.1800092e-06 -2.1585879e-05 
Loop time of 1.51505 on 104 procs for 131 steps with 288751 atoms

99.9% CPU use with 104 MPI tasks x 1 OpenMP threads

Minimization stats:
  Stopping criterion = energy tolerance
  Energy initial, next-to-last, final = 
     -1152449.43275156  -1152449.43440527  -1152449.43440527
  Force two-norm initial, final = 0.19098807 8.1419484e-05
  Force max component initial, final = 0.073741426 2.1585879e-05
  Final line search alpha, max atom move = 1.0000000 2.1585879e-05
  Iterations, force evaluations = 131 262

MPI task timing breakdown:
Section |  min time  |  avg time  |  max time  |%varavg| %total
---------------------------------------------------------------
Pair    | 0.39986    | 1.1037     | 1.431      |  28.3 | 72.85
Neigh   | 0          | 0          | 0          |   0.0 |  0.00
Comm    | 0.021953   | 0.24998    | 0.76908    |  42.1 | 16.50
Output  | 0          | 0          | 0          |   0.0 |  0.00
Modify  | 1.4946e-05 | 0.0021602  | 0.0046446  |   2.2 |  0.14
Other   |            | 0.1592     |            |       | 10.51

Nlocal:        2776.45 ave        3955 max           0 min
Histogram: 8 4 4 0 4 12 8 0 30 34
Nghost:        3879.03 ave        5424 max         232 min
Histogram: 8 0 8 0 16 0 8 8 16 40
Neighs:        79213.5 ave      115297 max           0 min
Histogram: 8 4 4 0 10 6 8 8 24 32

Total # of neighbors = 8238200
Ave neighs/atom = 28.530464
Neighbor list builds = 0
Dangerous builds = 0
The dot product: 3.89178070312815e-08
Setting atom values ...
  1 settings made for x
  1 settings made for y
  1 settings made for z
Setting up cg style minimization ...
  Unit style    : metal
  Current step  : 868
Per MPI rank memory allocation (min/avg/max) = 5.441 | 5.816 | 6.074 Mbytes
Step PotEng KinEng TotEng v_fx v_fy v_fz 
     868   -1152449.4            0   -1152449.4 -0.025542329  0.043946408 0.0090069041 
    1000   -1152449.4            0   -1152449.4 -1.2217386e-06 5.386639e-06 3.3895011e-05 
    1013   -1152449.4            0   -1152449.4 -8.1138375e-07 8.2727337e-07 -5.5083181e-06 
Loop time of 1.68159 on 104 procs for 145 steps with 288751 atoms

99.9% CPU use with 104 MPI tasks x 1 OpenMP threads

Minimization stats:
  Stopping criterion = energy tolerance
  Energy initial, next-to-last, final = 
     -1152449.42504285  -1152449.42667841  -1152449.42667841
  Force two-norm initial, final = 0.18987019 4.6931060e-05
  Force max component initial, final = 0.073412377 5.5083181e-06
  Final line search alpha, max atom move = 1.0000000 5.5083181e-06
  Iterations, force evaluations = 145 290

MPI task timing breakdown:
Section |  min time  |  avg time  |  max time  |%varavg| %total
---------------------------------------------------------------
Pair    | 0.44395    | 1.2151     | 1.5805     |  29.6 | 72.26
Neigh   | 0          | 0          | 0          |   0.0 |  0.00
Comm    | 0.025884   | 0.27573    | 0.84018    |  44.0 | 16.40
Output  | 0.0001508  | 0.00016037 | 0.00028392 |   0.0 |  0.01
Modify  | 1.7971e-05 | 0.0023907  | 0.0050797  |   2.3 |  0.14
Other   |            | 0.1882     |            |       | 11.19

Nlocal:        2776.45 ave        3955 max           0 min
Histogram: 8 4 4 0 4 12 8 0 30 34
Nghost:        3879.03 ave        5427 max         232 min
Histogram: 8 0 8 0 16 0 8 8 16 40
Neighs:        79213.5 ave      115297 max           0 min
Histogram: 8 4 4 0 10 6 8 8 24 32

Total # of neighbors = 8238202
Ave neighs/atom = 28.530471
Neighbor list builds = 0
Dangerous builds = 0
The dot product: 1.48105605022318e-08
Setting atom values ...
  1 settings made for x
  1 settings made for y
  1 settings made for z
Setting up cg style minimization ...
  Unit style    : metal
  Current step  : 1013
Per MPI rank memory allocation (min/avg/max) = 5.441 | 5.816 | 6.074 Mbytes
Step PotEng KinEng TotEng v_fx v_fy v_fz 
    1013   -1152449.4            0   -1152449.4 -0.024913802  0.047957626     0.012534 
    1149   -1152449.4            0   -1152449.4 -9.8669976e-07 2.2306806e-06 4.8096879e-06 
Loop time of 1.57308 on 104 procs for 136 steps with 288751 atoms

99.9% CPU use with 104 MPI tasks x 1 OpenMP threads

Minimization stats:
  Stopping criterion = energy tolerance
  Energy initial, next-to-last, final = 
     -1152449.41575708  -1152449.41737408  -1152449.41737408
  Force two-norm initial, final = 0.18872732 7.9887138e-05
  Force max component initial, final = 0.072524946 1.1342653e-05
  Final line search alpha, max atom move = 1.0000000 1.1342653e-05
  Iterations, force evaluations = 136 272

MPI task timing breakdown:
Section |  min time  |  avg time  |  max time  |%varavg| %total
---------------------------------------------------------------
Pair    | 0.41478    | 1.1449     | 1.4888     |  28.8 | 72.78
Neigh   | 0          | 0          | 0          |   0.0 |  0.00
Comm    | 0.022881   | 0.25786    | 0.79435    |  42.8 | 16.39
Output  | 0          | 0          | 0          |   0.0 |  0.00
Modify  | 1.6523e-05 | 0.0022469  | 0.0048294  |   2.2 |  0.14
Other   |            | 0.1681     |            |       | 10.69

Nlocal:        2776.45 ave        3955 max           0 min
Histogram: 8 4 4 0 4 12 8 0 30 34
Nghost:        3879.03 ave        5426 max         232 min
Histogram: 8 0 8 0 16 0 8 8 16 40
Neighs:        79213.5 ave      115295 max           0 min
Histogram: 8 4 4 0 10 6 8 8 24 32

Total # of neighbors = 8238201
Ave neighs/atom = 28.530467
Neighbor list builds = 0
Dangerous builds = 0
The dot product: 8.30964173450119e-09
Setting atom values ...
  1 settings made for x
  1 settings made for y
  1 settings made for z
Setting up cg style minimization ...
  Unit style    : metal
  Current step  : 1149
Per MPI rank memory allocation (min/avg/max) = 5.441 | 5.816 | 6.074 Mbytes
Step PotEng KinEng TotEng v_fx v_fy v_fz 
    1149   -1152449.4            0   -1152449.4 -0.024305862  0.052065034  0.016628371 
    1288   -1152449.4            0   -1152449.4 2.3234299e-06 -5.7053656e-06 -1.3071566e-05 
Loop time of 1.61407 on 104 procs for 139 steps with 288751 atoms

99.9% CPU use with 104 MPI tasks x 1 OpenMP threads

Minimization stats:
  Stopping criterion = energy tolerance
  Energy initial, next-to-last, final = 
     -1152449.40488028  -1152449.40648121  -1152449.40648121
  Force two-norm initial, final = 0.1877486 7.0326450e-05
  Force max component initial, final = 0.071118561 1.3773147e-05
  Final line search alpha, max atom move = 1.0000000 1.3773147e-05
  Iterations, force evaluations = 139 278

MPI task timing breakdown:
Section |  min time  |  avg time  |  max time  |%varavg| %total
---------------------------------------------------------------
Pair    | 0.42353    | 1.1653     | 1.5131     |  29.1 | 72.19
Neigh   | 0          | 0          | 0          |   0.0 |  0.00
Comm    | 0.024617   | 0.26233    | 0.79718    |  43.4 | 16.25
Output  | 0          | 0          | 0          |   0.0 |  0.00
Modify  | 1.7171e-05 | 0.0022921  | 0.0048886  |   2.3 |  0.14
Other   |            | 0.1842     |            |       | 11.41

Nlocal:        2776.45 ave        3954 max           0 min
Histogram: 8 4 4 0 4 12 8 0 30 34
Nghost:        3879.01 ave        5425 max         232 min
Histogram: 8 0 8 0 16 0 8 8 16 40
Neighs:        79213.5 ave      115259 max           0 min
Histogram: 8 4 4 0 10 6 8 8 24 32

Total # of neighbors = 8238200
Ave neighs/atom = 28.530464
Neighbor list builds = 0
Dangerous builds = 0
The dot product: -3.02086732582994e-08
Setting atom values ...
  1 settings made for x
  1 settings made for y
  1 settings made for z
Setting up cg style minimization ...
  Unit style    : metal
  Current step  : 1288
Per MPI rank memory allocation (min/avg/max) = 5.441 | 5.816 | 6.074 Mbytes
Step PotEng KinEng TotEng v_fx v_fy v_fz 
    1288   -1152449.4            0   -1152449.4 -0.023822979   0.05691401  0.021476024 
    1401   -1152449.4            0   -1152449.4 8.7370031e-07 -4.9934299e-06 -4.9446253e-05 
Loop time of 1.31494 on 104 procs for 113 steps with 288751 atoms

99.9% CPU use with 104 MPI tasks x 1 OpenMP threads

Minimization stats:
  Stopping criterion = energy tolerance
  Energy initial, next-to-last, final = 
     -1152449.39241252  -1152449.39400656  -1152449.39400656
  Force two-norm initial, final = 0.18715147 0.00022582583
  Force max component initial, final = 0.069078832 4.9446253e-05
  Final line search alpha, max atom move = 1.0000000 4.9446253e-05
  Iterations, force evaluations = 113 226

MPI task timing breakdown:
Section |  min time  |  avg time  |  max time  |%varavg| %total
---------------------------------------------------------------
Pair    | 0.34659    | 0.95466    | 1.2468     |  26.3 | 72.60
Neigh   | 0          | 0          | 0          |   0.0 |  0.00
Comm    | 0.018667   | 0.2179     | 0.66987    |  38.8 | 16.57
Output  | 0          | 0          | 0          |   0.0 |  0.00
Modify  | 1.2975e-05 | 0.0018604  | 0.0040042  |   2.0 |  0.14
Other   |            | 0.1405     |            |       | 10.69

Nlocal:        2776.45 ave        3954 max           0 min
Histogram: 8 4 4 0 4 12 8 1 29 34
Nghost:        3879.01 ave        5425 max         232 min
Histogram: 8 0 8 0 16 0 8 8 16 40
Neighs:        79213.4 ave      115259 max           0 min
Histogram: 8 4 4 0 10 6 8 8 24 32

Total # of neighbors = 8238198
Ave neighs/atom = 28.530457
Neighbor list builds = 0
Dangerous builds = 0
The dot product: -4.4301533271833e-08
Setting atom values ...
  1 settings made for x
  1 settings made for y
  1 settings made for z
Setting up cg style minimization ...
  Unit style    : metal
  Current step  : 1401
Per MPI rank memory allocation (min/avg/max) = 5.441 | 5.816 | 6.074 Mbytes
Step PotEng KinEng TotEng v_fx v_fy v_fz 
    1401   -1152449.4            0   -1152449.4 -0.023455199   0.06331523  0.027431127 
    1530   -1152449.4            0   -1152449.4 4.4602841e-06 -1.3328296e-05 -2.382847e-05 
Loop time of 1.49753 on 104 procs for 129 steps with 288751 atoms

99.9% CPU use with 104 MPI tasks x 1 OpenMP threads

Minimization stats:
  Stopping criterion = energy tolerance
  Energy initial, next-to-last, final = 
     -1152449.37837945   -1152449.3799887   -1152449.3799887
  Force two-norm initial, final = 0.18735029 0.00010580279
  Force max component initial, final = 0.066262461 2.6301532e-05
  Final line search alpha, max atom move = 1.0000000 2.6301532e-05
  Iterations, force evaluations = 129 258

MPI task timing breakdown:
Section |  min time  |  avg time  |  max time  |%varavg| %total
---------------------------------------------------------------
Pair    | 0.39629    | 1.0861     | 1.4092     |  28.1 | 72.53
Neigh   | 0          | 0          | 0          |   0.0 |  0.00
Comm    | 0.024242   | 0.24657    | 0.7505     |  41.9 | 16.46
Output  | 0          | 0          | 0          |   0.0 |  0.00
Modify  | 1.6459e-05 | 0.0021316  | 0.0045599  |   2.2 |  0.14
Other   |            | 0.1627     |            |       | 10.87

Nlocal:        2776.45 ave        3954 max           0 min
Histogram: 8 4 4 0 4 12 8 2 28 34
Nghost:        3879.01 ave        5424 max         232 min
Histogram: 8 0 8 0 16 0 8 8 16 40
Neighs:        79213.4 ave      115261 max           0 min
Histogram: 8 4 4 0 10 6 8 8 24 32

Total # of neighbors = 8238198
Ave neighs/atom = 28.530457
Neighbor list builds = 0
Dangerous builds = 0
The dot product: -1.51294867095161e-07
Setting atom values ...
  1 settings made for x
  1 settings made for y
  1 settings made for z
Setting up cg style minimization ...
  Unit style    : metal
  Current step  : 1530
Per MPI rank memory allocation (min/avg/max) = 5.441 | 5.816 | 6.074 Mbytes
Step PotEng KinEng TotEng v_fx v_fy v_fz 
    1530   -1152449.4            0   -1152449.4 -0.023606315  0.074666781  0.037989182 
    1644   -1152449.4            0   -1152449.4 5.4420614e-06 -1.2442757e-05 3.8151952e-05 
Loop time of 1.31947 on 104 procs for 114 steps with 288751 atoms

99.9% CPU use with 104 MPI tasks x 1 OpenMP threads

Minimization stats:
  Stopping criterion = energy tolerance
  Energy initial, next-to-last, final = 
     -1152449.36286756  -1152449.36461354  -1152449.36461354
  Force two-norm initial, final = 0.19050268 0.00021257857
  Force max component initial, final = 0.074666781 3.8151952e-05
  Final line search alpha, max atom move = 1.0000000 3.8151952e-05
  Iterations, force evaluations = 114 228

MPI task timing breakdown:
Section |  min time  |  avg time  |  max time  |%varavg| %total
---------------------------------------------------------------
Pair    | 0.34979    | 0.96187    | 1.2494     |  26.4 | 72.90
Neigh   | 0          | 0          | 0          |   0.0 |  0.00
Comm    | 0.019287   | 0.21672    | 0.66491    |  39.4 | 16.42
Output  | 0          | 0          | 0          |   0.0 |  0.00
Modify  | 1.3836e-05 | 0.0018826  | 0.0040303  |   2.0 |  0.14
Other   |            | 0.139      |            |       | 10.53

Nlocal:        2776.45 ave        3954 max           0 min
Histogram: 8 4 4 0 4 12 8 2 28 34
Nghost:        3879.05 ave        5425 max         232 min
Histogram: 8 0 8 0 16 0 8 8 16 40
Neighs:        79213.4 ave      115261 max           0 min
Histogram: 8 4 4 0 10 6 8 8 24 32

Total # of neighbors = 8238197
Ave neighs/atom = 28.530454
Neighbor list builds = 0
Dangerous builds = 0
The dot product: 3.20527679288244e-08
Setting atom values ...
  1 settings made for x
  1 settings made for y
  1 settings made for z
Setting up cg style minimization ...
  Unit style    : metal
  Current step  : 1644
Per MPI rank memory allocation (min/avg/max) = 5.441 | 5.816 | 6.074 Mbytes
Step PotEng KinEng TotEng v_fx v_fy v_fz 
    1644   -1152449.3            0   -1152449.3 -0.023559124   0.10247566  0.062643156 
    1833   -1152449.4            0   -1152449.4 -7.0704584e-06 1.690718e-05 -4.2892849e-05 
Loop time of 2.18821 on 104 procs for 189 steps with 288751 atoms

99.9% CPU use with 104 MPI tasks x 1 OpenMP threads

Minimization stats:
  Stopping criterion = energy tolerance
  Energy initial, next-to-last, final = 
     -1152449.34635712  -1152449.35088511  -1152449.35088511
  Force two-norm initial, final = 0.20594529 0.00016172084
  Force max component initial, final = 0.10247566 4.2892849e-05
  Final line search alpha, max atom move = 1.0000000 4.2892849e-05
  Iterations, force evaluations = 189 378

MPI task timing breakdown:
Section |  min time  |  avg time  |  max time  |%varavg| %total
---------------------------------------------------------------
Pair    | 0.57745    | 1.5825     | 2.0572     |  33.9 | 72.32
Neigh   | 0          | 0          | 0          |   0.0 |  0.00
Comm    | 0.033339   | 0.35922    | 1.0923     |  50.1 | 16.42
Output  | 0          | 0          | 0          |   0.0 |  0.00
Modify  | 2.3475e-05 | 0.0031179  | 0.0066492  |   2.6 |  0.14
Other   |            | 0.2434     |            |       | 11.12

Nlocal:        2776.45 ave        3954 max           0 min
Histogram: 8 4 4 0 4 12 8 2 28 34
Nghost:        3879.05 ave        5425 max         232 min
Histogram: 8 0 8 0 16 0 8 8 16 40
Neighs:        79213.4 ave      115259 max           0 min
Histogram: 8 4 4 0 10 6 8 8 24 32

Total # of neighbors = 8238192
Ave neighs/atom = 28.530436
Neighbor list builds = 0
Dangerous builds = 0
The dot product: -7.04060356332674e-07
Setting atom values ...
  1 settings made for x
  1 settings made for y
  1 settings made for z
Setting up cg style minimization ...
  Unit style    : metal
  Current step  : 1833
Per MPI rank memory allocation (min/avg/max) = 5.441 | 5.816 | 6.074 Mbytes
Step PotEng KinEng TotEng v_fx v_fy v_fz 
    1833   -1152449.3            0   -1152449.3  0.023732032   0.21796398   0.13884038 
    2000   -1152449.3            0   -1152449.3 -8.7092411e-06 -0.00013314134 -5.8661436e-05 
    2095   -1152449.3            0   -1152449.3 6.2227158e-08 3.0261707e-06 7.2008302e-07 
Loop time of 3.03355 on 104 procs for 262 steps with 288751 atoms

99.9% CPU use with 104 MPI tasks x 1 OpenMP threads

Minimization stats:
  Stopping criterion = energy tolerance
  Energy initial, next-to-last, final = 
     -1152449.33554493  -1152449.34591566  -1152449.34591566
  Force two-norm initial, final = 0.29929794 1.8025502e-05
  Force max component initial, final = 0.21796398 3.2681444e-06
  Final line search alpha, max atom move = 1.0000000 3.2681444e-06
  Iterations, force evaluations = 262 524

MPI task timing breakdown:
Section |  min time  |  avg time  |  max time  |%varavg| %total
---------------------------------------------------------------
Pair    | 0.80384    | 2.2048     | 2.8672     |  39.8 | 72.68
Neigh   | 1.0156e-05 | 0.0029554  | 0.0042906  |   2.2 |  0.10
Comm    | 0.043357   | 0.50279    | 1.5508     |  59.3 | 16.57
Output  | 9.3829e-05 | 0.00010026 | 0.0002415  |   0.0 |  0.00
Modify  | 3.0349e-05 | 0.0043076  | 0.0091792  |   3.1 |  0.14
Other   |            | 0.3185     |            |       | 10.50

Nlocal:        2776.45 ave        3958 max           0 min
Histogram: 8 4 4 0 4 12 8 2 28 34
Nghost:        3879.03 ave        5424 max         232 min
Histogram: 8 0 8 0 16 0 8 8 16 40
Neighs:        79213.4 ave      115401 max           0 min
Histogram: 8 4 4 0 10 6 8 8 24 32

Total # of neighbors = 8238196
Ave neighs/atom = 28.530450
Neighbor list builds = 1
Dangerous builds = 0
The dot product: 2.28162931511561e-07
Setting atom values ...
  1 settings made for x
  1 settings made for y
  1 settings made for z
Setting up cg style minimization ...
  Unit style    : metal
  Current step  : 2095
Per MPI rank memory allocation (min/avg/max) = 5.441 | 5.816 | 6.074 Mbytes
Step PotEng KinEng TotEng v_fx v_fy v_fz 
    2095   -1152449.3            0   -1152449.3  0.070489249   0.17560622  0.080094627 
    2341   -1152449.3            0   -1152449.3 -1.3157612e-05 -2.8485166e-05 -1.7657253e-05 
Loop time of 2.8706 on 104 procs for 246 steps with 288751 atoms

99.9% CPU use with 104 MPI tasks x 1 OpenMP threads

Minimization stats:
  Stopping criterion = energy tolerance
  Energy initial, next-to-last, final = 
     -1152449.33327751    -1152449.344685    -1152449.344685
  Force two-norm initial, final = 0.24759267 0.00021205522
  Force max component initial, final = 0.17560622 3.0087869e-05
  Final line search alpha, max atom move = 1.0000000 3.0087869e-05
  Iterations, force evaluations = 246 492

MPI task timing breakdown:
Section |  min time  |  avg time  |  max time  |%varavg| %total
---------------------------------------------------------------
Pair    | 0.75238    | 2.0624     | 2.684      |  38.7 | 71.84
Neigh   | 1.0454e-05 | 0.0029589  | 0.004291   |   2.2 |  0.10
Comm    | 0.043679   | 0.46511    | 1.4041     |  57.5 | 16.20
Output  | 0          | 0          | 0          |   0.0 |  0.00
Modify  | 2.8426e-05 | 0.0040529  | 0.0086592  |   3.0 |  0.14
Other   |            | 0.3361     |            |       | 11.71

Nlocal:        2776.45 ave        3958 max           0 min
Histogram: 8 4 4 0 4 12 8 2 28 34
Nghost:        3879.05 ave        5424 max         232 min
Histogram: 8 0 8 0 16 0 8 8 16 40
Neighs:        79213.4 ave      115393 max           0 min
Histogram: 8 4 4 0 10 6 8 8 24 32

Total # of neighbors = 8238189
Ave neighs/atom = 28.530426
Neighbor list builds = 1
Dangerous builds = 0
The dot product: -3.43387779279708e-06
Setting atom values ...
  1 settings made for x
  1 settings made for y
  1 settings made for z
Setting up cg style minimization ...
  Unit style    : metal
  Current step  : 2341
Per MPI rank memory allocation (min/avg/max) = 5.441 | 5.816 | 6.074 Mbytes
Step PotEng KinEng TotEng v_fx v_fy v_fz 
    2341   -1152449.3            0   -1152449.3 -0.050015031 -0.030056729 -0.047969022 
    2465   -1152449.3            0   -1152449.3 -3.9096495e-05 -2.5437714e-05 -3.5966699e-05 
Loop time of 1.43078 on 104 procs for 124 steps with 288751 atoms

99.9% CPU use with 104 MPI tasks x 1 OpenMP threads

Minimization stats:
  Stopping criterion = energy tolerance
  Energy initial, next-to-last, final = 
     -1152449.34688121  -1152449.34819064  -1152449.34819064
  Force two-norm initial, final = 0.14644133 0.00017356561
  Force max component initial, final = 0.050015031 4.1156554e-05
  Final line search alpha, max atom move = 1.0000000 4.1156554e-05
  Iterations, force evaluations = 124 248

MPI task timing breakdown:
Section |  min time  |  avg time  |  max time  |%varavg| %total
---------------------------------------------------------------
Pair    | 0.38047    | 1.0435     | 1.3566     |  27.5 | 72.94
Neigh   | 0          | 0          | 0          |   0.0 |  0.00
Comm    | 0.020952   | 0.23809    | 0.73671    |  40.9 | 16.64
Output  | 0          | 0          | 0          |   0.0 |  0.00
Modify  | 1.4834e-05 | 0.0020448  | 0.0044083  |   2.1 |  0.14
Other   |            | 0.1471     |            |       | 10.28

Nlocal:        2776.45 ave        3959 max           0 min
Histogram: 8 4 4 0 4 12 8 2 28 34
Nghost:        3879.09 ave        5428 max         232 min
Histogram: 8 0 8 0 16 0 8 8 16 40
Neighs:        79213.4 ave      115402 max           0 min
Histogram: 8 4 4 0 10 6 8 8 24 32

Total # of neighbors = 8238192
Ave neighs/atom = 28.530436
Neighbor list builds = 0
Dangerous builds = 0
The dot product: 6.38660342719709e-07
Setting atom values ...
  1 settings made for x
  1 settings made for y
  1 settings made for z
Setting up cg style minimization ...
  Unit style    : metal
  Current step  : 2465
Per MPI rank memory allocation (min/avg/max) = 5.441 | 5.816 | 6.074 Mbytes
Step PotEng KinEng TotEng v_fx v_fy v_fz 
    2465   -1152449.3            0   -1152449.3 -0.0067153657  0.009601934  -0.01757163 
    2745   -1152449.4            0   -1152449.4 -2.9074316e-07 5.8659672e-08 -4.8634924e-07 
Loop time of 3.24421 on 104 procs for 280 steps with 288751 atoms

99.9% CPU use with 104 MPI tasks x 1 OpenMP threads

Minimization stats:
  Stopping criterion = energy tolerance
  Energy initial, next-to-last, final = 
     -1152449.34955193  -1152449.35045821  -1152449.35045821
  Force two-norm initial, final = 0.1249695 1.6475080e-06
  Force max component initial, final = 0.047695566 4.8634924e-07
  Final line search alpha, max atom move = 1.0000000 4.8634924e-07
  Iterations, force evaluations = 280 560

MPI task timing breakdown:
Section |  min time  |  avg time  |  max time  |%varavg| %total
---------------------------------------------------------------
Pair    | 0.85681    | 2.3418     | 3.049      |  41.1 | 72.18
Neigh   | 0          | 0          | 0          |   0.0 |  0.00
Comm    | 0.054863   | 0.53148    | 1.6138     |  61.1 | 16.38
Output  | 0          | 0          | 0          |   0.0 |  0.00
Modify  | 3.1466e-05 | 0.0046173  | 0.0098909  |   3.2 |  0.14
Other   |            | 0.3663     |            |       | 11.29

Nlocal:        2776.45 ave        3959 max           0 min
Histogram: 8 4 4 0 4 12 8 2 28 34
Nghost:        3879.09 ave        5427 max         232 min
Histogram: 8 0 8 0 16 0 8 8 16 40
Neighs:        79213.4 ave      115400 max           0 min
Histogram: 8 4 4 0 10 6 8 8 24 32

Total # of neighbors = 8238193
Ave neighs/atom = 28.530440
Neighbor list builds = 0
Dangerous builds = 0
The dot product: -8.15237770268162e-11
Setting up cg style minimization ...
  Unit style    : metal
  Current step  : 2745
Per MPI rank memory allocation (min/avg/max) = 5.441 | 5.816 | 6.074 Mbytes
Step PotEng KinEng TotEng v_fx v_fy v_fz 
    2745   -1152449.4            0   -1152449.4 -0.064813126  0.032820461  0.042703647 
    2923   -1152449.4            0   -1152449.4 -5.8331398e-06 -1.7291421e-05 1.008702e-05 
Loop time of 2.07754 on 104 procs for 178 steps with 288751 atoms

99.9% CPU use with 104 MPI tasks x 1 OpenMP threads

Minimization stats:
  Stopping criterion = energy tolerance
  Energy initial, next-to-last, final = 
     -1152449.35045821  -1152449.35157331  -1152449.35157331
  Force two-norm initial, final = 0.084270549 0.00015638802
  Force max component initial, final = 0.064813126 1.7291421e-05
  Final line search alpha, max atom move = 1.0000000 1.7291421e-05
  Iterations, force evaluations = 178 356

MPI task timing breakdown:
Section |  min time  |  avg time  |  max time  |%varavg| %total
---------------------------------------------------------------
Pair    | 0.54339    | 1.5043     | 1.9614     |  33.0 | 72.41
Neigh   | 0          | 0          | 0          |   0.0 |  0.00
Comm    | 0.033248   | 0.34376    | 1.0557     |  48.7 | 16.55
Output  | 0          | 0          | 0          |   0.0 |  0.00
Modify  | 2.0569e-05 | 0.0019072  | 0.0048977  |   2.7 |  0.09
Other   |            | 0.2276     |            |       | 10.95

Nlocal:        2776.45 ave        3959 max           0 min
Histogram: 8 4 4 0 4 12 8 2 28 34
Nghost:        3879.05 ave        5424 max         232 min
Histogram: 8 0 8 0 16 0 8 8 16 40
Neighs:        79213.4 ave      115420 max           0 min
Histogram: 8 4 4 0 10 6 8 8 24 32

Total # of neighbors = 8238193
Ave neighs/atom = 28.530440
Neighbor list builds = 0
Dangerous builds = 0
OMP_NUM_THREADS environment is not set. Defaulting to 1 thread. (../comm.cpp:94)
  using 1 OpenMP thread(s) per MPI task
Reading data file ...
  orthogonal box = (-122.39241 -121.13707 -37.090501) to (122.39241 121.13707 37.090501)
  13 by 4 by 2 MPI processor grid
  reading atoms ...
  288751 atoms
  read_data CPU = 0.341 seconds
199981 atoms in group inner
88770 atoms in group outer
1 atoms in group carbon
Neighbor list info ...
  update every 1 steps, delay 0 steps, check yes
  max neighbors/atom: 2000, page size: 100000
  master list distance cutoff = 5.6
  ghost atom cutoff = 5.6
  binsize = 2.8, bins = 88 87 27
  1 neighbor lists, perpetual/occasional/extra = 1 0 0
  (1) pair eam/alloy, perpetual
      attributes: half, newton on
      pair build: half/bin/atomonly/newton
      stencil: half/bin/3d/newton
      bin: standard
Setting up cg style minimization ...
  Unit style    : metal
  Current step  : 0
Per MPI rank memory allocation (min/avg/max) = 5.441 | 5.816 | 6.074 Mbytes
Step v_fx v_fy v_fz PotEng KinEng TotEng 
       0   0.12242356   -29.827332    50.056176   -1152433.4            0   -1152433.4 
     180 -7.6407339e-07 -2.8668961e-06 -2.113159e-05   -1152449.5            0   -1152449.5 
Loop time of 2.07419 on 104 procs for 180 steps with 288751 atoms

99.9% CPU use with 104 MPI tasks x 1 OpenMP threads

Minimization stats:
  Stopping criterion = energy tolerance
  Energy initial, next-to-last, final = 
      -1152433.4232477  -1152449.45035271  -1152449.45035271
  Force two-norm initial, final = 87.370051 5.8400137e-05
  Force max component initial, final = 57.225309 2.1131590e-05
  Final line search alpha, max atom move = 1.0000000 2.1131590e-05
  Iterations, force evaluations = 180 352

MPI task timing breakdown:
Section |  min time  |  avg time  |  max time  |%varavg| %total
---------------------------------------------------------------
Pair    | 0.55787    | 1.4868     | 1.9353     |  32.4 | 71.68
Neigh   | 5.1902e-05 | 0.014794   | 0.02147    |   5.0 |  0.71
Comm    | 0.032865   | 0.33719    | 1.0034     |  48.0 | 16.26
Output  | 0          | 0          | 0          |   0.0 |  0.00
Modify  | 1.9469e-05 | 0.0018908  | 0.0048842  |   2.7 |  0.09
Other   |            | 0.2335     |            |       | 11.26

Nlocal:        2776.45 ave        3957 max           0 min
Histogram: 8 4 4 0 4 12 8 2 28 34
Nghost:        3879.03 ave        5424 max         232 min
Histogram: 8 0 8 0 16 0 8 8 16 40
Neighs:        79213.5 ave      115352 max           0 min
Histogram: 8 4 4 0 10 6 8 8 24 32

Total # of neighbors = 8238207
Ave neighs/atom = 28.530488
Neighbor list builds = 5
Dangerous builds = 0
Setting atom values ...
  1 settings made for x
  1 settings made for y
  1 settings made for z
Setting up cg style minimization ...
  Unit style    : metal
  Current step  : 180
Per MPI rank memory allocation (min/avg/max) = 5.441 | 5.816 | 6.074 Mbytes
Step PotEng KinEng TotEng v_fx v_fy v_fz 
     180   -1152449.4            0   -1152449.4  0.014757888  0.015657511 0.0062926911 
     312   -1152449.4            0   -1152449.4 1.7395265e-05 1.8567166e-05 1.9963587e-05 
Loop time of 1.52119 on 104 procs for 132 steps with 288751 atoms

99.9% CPU use with 104 MPI tasks x 1 OpenMP threads

Minimization stats:
  Stopping criterion = energy tolerance
  Energy initial, next-to-last, final = 
     -1152449.44794138  -1152449.44935895  -1152449.44935895
  Force two-norm initial, final = 0.16347607 9.2916200e-05
  Force max component initial, final = 0.10130248 2.4708676e-05
  Final line search alpha, max atom move = 1.0000000 2.4708676e-05
  Iterations, force evaluations = 132 264

MPI task timing breakdown:
Section |  min time  |  avg time  |  max time  |%varavg| %total
---------------------------------------------------------------
Pair    | 0.40206    | 1.1051     | 1.4425     |  28.3 | 72.65
Neigh   | 0          | 0          | 0          |   0.0 |  0.00
Comm    | 0.023276   | 0.24622    | 0.74745    |  42.2 | 16.19
Output  | 0          | 0          | 0          |   0.0 |  0.00
Modify  | 1.5843e-05 | 0.0021738  | 0.0046557  |   2.2 |  0.14
Other   |            | 0.1677     |            |       | 11.03

Nlocal:        2776.45 ave        3958 max           0 min
Histogram: 8 4 4 0 4 12 8 2 28 34
Nghost:        3879.01 ave        5425 max         232 min
Histogram: 8 0 8 0 16 0 8 8 16 40
Neighs:        79213.4 ave      115399 max           0 min
Histogram: 8 4 4 0 10 6 8 8 24 32

Total # of neighbors = 8238197
Ave neighs/atom = 28.530454
Neighbor list builds = 0
Dangerous builds = 0
Setting atom values ...
  1 settings made for x
  1 settings made for y
  1 settings made for z
Setting up cg style minimization ...
  Unit style    : metal
  Current step  : 312
Per MPI rank memory allocation (min/avg/max) = 5.441 | 5.816 | 6.074 Mbytes
Step PotEng KinEng TotEng v_fx v_fy v_fz 
     312   -1152449.4            0   -1152449.4  0.011557057  0.013424818 -0.00017287992 
     457   -1152449.4            0   -1152449.4 -8.2649217e-06 -1.0308706e-05 -1.2960586e-05 
Loop time of 1.67835 on 104 procs for 145 steps with 288751 atoms

99.9% CPU use with 104 MPI tasks x 1 OpenMP threads

Minimization stats:
  Stopping criterion = energy tolerance
  Energy initial, next-to-last, final = 
     -1152449.44550705  -1152449.44670328  -1152449.44670328
  Force two-norm initial, final = 0.14959978 6.4728328e-05
  Force max component initial, final = 0.097041589 1.5293440e-05
  Final line search alpha, max atom move = 1.0000000 1.5293440e-05
  Iterations, force evaluations = 145 290

MPI task timing breakdown:
Section |  min time  |  avg time  |  max time  |%varavg| %total
---------------------------------------------------------------
Pair    | 0.43963    | 1.2158     | 1.5897     |  29.8 | 72.44
Neigh   | 0          | 0          | 0          |   0.0 |  0.00
Comm    | 0.025163   | 0.27343    | 0.82269    |  44.1 | 16.29
Output  | 0          | 0          | 0          |   0.0 |  0.00
Modify  | 1.717e-05  | 0.0023875  | 0.0056928  |   2.3 |  0.14
Other   |            | 0.1867     |            |       | 11.12

Nlocal:        2776.45 ave        3958 max           0 min
Histogram: 8 4 4 0 4 12 8 2 28 34
Nghost:        3879.01 ave        5425 max         232 min
Histogram: 8 0 8 0 16 0 8 8 16 40
Neighs:        79213.4 ave      115399 max           0 min
Histogram: 8 4 4 0 10 6 8 8 24 32

Total # of neighbors = 8238195
Ave neighs/atom = 28.530447
Neighbor list builds = 0
Dangerous builds = 0
The dot product: -2.1844119215972e-08
Setting atom values ...
  1 settings made for x
  1 settings made for y
  1 settings made for z
Setting up cg style minimization ...
  Unit style    : metal
  Current step  : 457
Per MPI rank memory allocation (min/avg/max) = 5.441 | 5.816 | 6.074 Mbytes
Step PotEng KinEng TotEng v_fx v_fy v_fz 
     457   -1152449.4            0   -1152449.4 0.0096834253  0.011417124 -0.008098158 
     617   -1152449.4            0   -1152449.4 -1.3913055e-05 -1.6801707e-05 5.9839088e-06 
Loop time of 1.85269 on 104 procs for 160 steps with 288751 atoms

99.9% CPU use with 104 MPI tasks x 1 OpenMP threads

Minimization stats:
  Stopping criterion = energy tolerance
  Energy initial, next-to-last, final = 
     -1152449.44123131  -1152449.44242685  -1152449.44242685
  Force two-norm initial, final = 0.14932472 8.4665795e-05
  Force max component initial, final = 0.10011923 1.8663750e-05
  Final line search alpha, max atom move = 1.0000000 1.8663750e-05
  Iterations, force evaluations = 160 320

MPI task timing breakdown:
Section |  min time  |  avg time  |  max time  |%varavg| %total
---------------------------------------------------------------
Pair    | 0.48652    | 1.342      | 1.7582     |  31.3 | 72.44
Neigh   | 0          | 0          | 0          |   0.0 |  0.00
Comm    | 0.027857   | 0.2997     | 0.90264    |  46.2 | 16.18
Output  | 0          | 0          | 0          |   0.0 |  0.00
Modify  | 1.9038e-05 | 0.0026298  | 0.0056147  |   2.4 |  0.14
Other   |            | 0.2084     |            |       | 11.25

Nlocal:        2776.45 ave        3956 max           0 min
Histogram: 8 4 4 0 4 12 8 0 30 34
Nghost:        3879.03 ave        5428 max         232 min
Histogram: 8 0 8 0 16 0 8 8 16 40
Neighs:        79213.4 ave      115336 max           0 min
Histogram: 8 4 4 0 10 6 8 8 24 32

Total # of neighbors = 8238195
Ave neighs/atom = 28.530447
Neighbor list builds = 0
Dangerous builds = 0
The dot product: -3.04784962109088e-08
Setting atom values ...
  1 settings made for x
  1 settings made for y
  1 settings made for z
Setting up cg style minimization ...
  Unit style    : metal
  Current step  : 617
Per MPI rank memory allocation (min/avg/max) = 5.441 | 5.816 | 6.074 Mbytes
Step PotEng KinEng TotEng v_fx v_fy v_fz 
     617   -1152449.4            0   -1152449.4  0.010395815  0.012649519 -0.014328903 
     748   -1152449.4            0   -1152449.4 -3.598282e-06 -4.8554433e-06 -4.3247015e-06 
Loop time of 1.52047 on 104 procs for 131 steps with 288751 atoms

99.9% CPU use with 104 MPI tasks x 1 OpenMP threads

Minimization stats:
  Stopping criterion = energy tolerance
  Energy initial, next-to-last, final = 
      -1152449.4354106  -1152449.43660425  -1152449.43660425
  Force two-norm initial, final = 0.14957034 7.1788405e-05
  Force max component initial, final = 0.10296828 1.1302470e-05
  Final line search alpha, max atom move = 1.0000000 1.1302470e-05
  Iterations, force evaluations = 131 262

MPI task timing breakdown:
Section |  min time  |  avg time  |  max time  |%varavg| %total
---------------------------------------------------------------
Pair    | 0.40048    | 1.1014     | 1.4409     |  28.3 | 72.44
Neigh   | 0          | 0          | 0          |   0.0 |  0.00
Comm    | 0.023506   | 0.2473     | 0.74576    |  42.0 | 16.26
Output  | 0          | 0          | 0          |   0.0 |  0.00
Modify  | 1.5933e-05 | 0.0021562  | 0.0046115  |   2.2 |  0.14
Other   |            | 0.1696     |            |       | 11.16

Nlocal:        2776.45 ave        3955 max           0 min
Histogram: 8 4 4 0 4 12 8 0 30 34
Nghost:        3879.03 ave        5424 max         232 min
Histogram: 8 0 8 0 16 0 8 8 16 40
Neighs:        79213.4 ave      115295 max           0 min
Histogram: 8 4 4 0 10 6 8 8 24 32

Total # of neighbors = 8238193
Ave neighs/atom = 28.530440
Neighbor list builds = 0
Dangerous builds = 0
The dot product: -1.04236722257869e-09
Setting atom values ...
  1 settings made for x
  1 settings made for y
  1 settings made for z
Setting up cg style minimization ...
  Unit style    : metal
  Current step  : 748
Per MPI rank memory allocation (min/avg/max) = 5.441 | 5.816 | 6.074 Mbytes
Step PotEng KinEng TotEng v_fx v_fy v_fz 
     748   -1152449.4            0   -1152449.4  0.012702143  0.016783216 -0.018831453 
     884   -1152449.4            0   -1152449.4 8.2755394e-06 1.0979388e-05 -8.7173006e-06 
Loop time of 1.59373 on 104 procs for 136 steps with 288751 atoms

99.9% CPU use with 104 MPI tasks x 1 OpenMP threads

Minimization stats:
  Stopping criterion = energy tolerance
  Energy initial, next-to-last, final = 
     -1152449.42810862  -1152449.42931095  -1152449.42931095
  Force two-norm initial, final = 0.1503343 7.6569279e-05
  Force max component initial, final = 0.10566819 1.1725232e-05
  Final line search alpha, max atom move = 1.0000000 1.1725232e-05
  Iterations, force evaluations = 136 272

MPI task timing breakdown:
Section |  min time  |  avg time  |  max time  |%varavg| %total
---------------------------------------------------------------
Pair    | 0.41253    | 1.1405     | 1.5058     |  28.8 | 71.56
Neigh   | 0          | 0          | 0          |   0.0 |  0.00
Comm    | 0.025057   | 0.25787    | 0.77196    |  42.3 | 16.18
Output  | 0          | 0          | 0          |   0.0 |  0.00
Modify  | 1.6729e-05 | 0.0022349  | 0.0047609  |   2.2 |  0.14
Other   |            | 0.1931     |            |       | 12.12

Nlocal:        2776.45 ave        3954 max           0 min
Histogram: 8 4 4 0 4 12 8 0 30 34
Nghost:        3879.03 ave        5424 max         232 min
Histogram: 8 0 8 0 16 0 8 8 16 40
Neighs:        79213.4 ave      115260 max           0 min
Histogram: 8 4 4 0 10 6 8 8 24 32

Total # of neighbors = 8238193
Ave neighs/atom = 28.530440
Neighbor list builds = 0
Dangerous builds = 0
The dot product: 6.67140082418869e-08
Setting atom values ...
  1 settings made for x
  1 settings made for y
  1 settings made for z
Setting up cg style minimization ...
  Unit style    : metal
  Current step  : 884
Per MPI rank memory allocation (min/avg/max) = 5.441 | 5.816 | 6.074 Mbytes
Step PotEng KinEng TotEng v_fx v_fy v_fz 
     884   -1152449.4            0   -1152449.4  0.016615367  0.024512657 -0.022293594 
    1000   -1152449.4            0   -1152449.4 -1.5522759e-05 -2.2581459e-05 1.2231918e-05 
    1046   -1152449.4            0   -1152449.4 2.1233479e-05 3.1173942e-05 -2.4402557e-05 
Loop time of 1.86953 on 104 procs for 162 steps with 288751 atoms

99.9% CPU use with 104 MPI tasks x 1 OpenMP threads

Minimization stats:
  Stopping criterion = energy tolerance
  Energy initial, next-to-last, final = 
     -1152449.41943735  -1152449.42068484  -1152449.42068484
  Force two-norm initial, final = 0.15215988 0.00017708444
  Force max component initial, final = 0.10819899 3.5290298e-05
  Final line search alpha, max atom move = 1.0000000 3.5290298e-05
  Iterations, force evaluations = 162 324

MPI task timing breakdown:
Section |  min time  |  avg time  |  max time  |%varavg| %total
---------------------------------------------------------------
Pair    | 0.49268    | 1.3585     | 1.7729     |  31.4 | 72.67
Neigh   | 0          | 0          | 0          |   0.0 |  0.00
Comm    | 0.029047   | 0.30326    | 0.92108    |  46.7 | 16.22
Output  | 8.6161e-05 | 9.5953e-05 | 0.00021666 |   0.0 |  0.01
Modify  | 1.9179e-05 | 0.0026601  | 0.0056713  |   2.4 |  0.14
Other   |            | 0.205      |            |       | 10.96

Nlocal:        2776.45 ave        3952 max           0 min
Histogram: 8 4 4 0 4 12 8 0 30 34
Nghost:        3879.03 ave        5424 max         232 min
Histogram: 8 0 8 0 16 0 8 8 16 40
Neighs:        79213.4 ave      115200 max           0 min
Histogram: 8 4 4 0 10 6 8 8 24 32

Total # of neighbors = 8238192
Ave neighs/atom = 28.530436
Neighbor list builds = 0
Dangerous builds = 0
The dot product: 3.10400625622044e-07
Setting atom values ...
  1 settings made for x
  1 settings made for y
  1 settings made for z
Setting up cg style minimization ...
  Unit style    : metal
  Current step  : 1046
Per MPI rank memory allocation (min/avg/max) = 5.441 | 5.816 | 6.074 Mbytes
Step PotEng KinEng TotEng v_fx v_fy v_fz 
    1046   -1152449.4            0   -1152449.4  0.018655201  0.031832352 -0.024093338 
    1189   -1152449.4            0   -1152449.4 -2.713015e-05 -4.3120293e-05 2.5618126e-06 
Loop time of 1.66931 on 104 procs for 143 steps with 288751 atoms

99.9% CPU use with 104 MPI tasks x 1 OpenMP threads

Minimization stats:
  Stopping criterion = energy tolerance
  Energy initial, next-to-last, final = 
     -1152449.40953597  -1152449.41083579  -1152449.41083579
  Force two-norm initial, final = 0.15392828 0.00021781307
  Force max component initial, final = 0.11040537 4.3120293e-05
  Final line search alpha, max atom move = 1.0000000 4.3120293e-05
  Iterations, force evaluations = 143 286

MPI task timing breakdown:
Section |  min time  |  avg time  |  max time  |%varavg| %total
---------------------------------------------------------------
Pair    | 0.43331    | 1.1981     | 1.5845     |  29.6 | 71.77
Neigh   | 0          | 0          | 0          |   0.0 |  0.00
Comm    | 0.025484   | 0.27191    | 0.8154     |  43.3 | 16.29
Output  | 0          | 0          | 0          |   0.0 |  0.00
Modify  | 1.7891e-05 | 0.0023486  | 0.0050243  |   2.3 |  0.14
Other   |            | 0.197      |            |       | 11.80

Nlocal:        2776.45 ave        3952 max           0 min
Histogram: 8 4 4 0 4 12 8 0 30 34
Nghost:        3879.03 ave        5429 max         232 min
Histogram: 8 0 8 0 16 0 8 8 16 40
Neighs:        79213.4 ave      115200 max           0 min
Histogram: 8 4 4 0 10 6 8 8 24 32

Total # of neighbors = 8238191
Ave neighs/atom = 28.530433
Neighbor list builds = 0
Dangerous builds = 0
The dot product: -4.14432378453129e-07
Setting atom values ...
  1 settings made for x
  1 settings made for y
  1 settings made for z
Setting up cg style minimization ...
  Unit style    : metal
  Current step  : 1189
Per MPI rank memory allocation (min/avg/max) = 5.441 | 5.816 | 6.074 Mbytes
Step PotEng KinEng TotEng v_fx v_fy v_fz 
    1189   -1152449.4            0   -1152449.4  0.017663416  0.035635429 -0.023688951 
    1368   -1152449.4            0   -1152449.4 -9.499377e-06 -1.5038467e-05 -1.2132745e-05 
Loop time of 2.08132 on 104 procs for 179 steps with 288751 atoms

99.9% CPU use with 104 MPI tasks x 1 OpenMP threads

Minimization stats:
  Stopping criterion = energy tolerance
  Energy initial, next-to-last, final = 
     -1152449.39844025  -1152449.39976771  -1152449.39976771
  Force two-norm initial, final = 0.1548906 0.00010342939
  Force max component initial, final = 0.1119608 1.7118374e-05
  Final line search alpha, max atom move = 1.0000000 1.7118374e-05
  Iterations, force evaluations = 179 358

MPI task timing breakdown:
Section |  min time  |  avg time  |  max time  |%varavg| %total
---------------------------------------------------------------
Pair    | 0.54377    | 1.5046     | 1.9633     |  33.2 | 72.29
Neigh   | 0          | 0          | 0          |   0.0 |  0.00
Comm    | 0.031874   | 0.34001    | 1.0171     |  48.7 | 16.34
Output  | 0          | 0          | 0          |   0.0 |  0.00
Modify  | 2.1062e-05 | 0.002938   | 0.0063068  |   2.6 |  0.14
Other   |            | 0.2337     |            |       | 11.23

Nlocal:        2776.45 ave        3952 max           0 min
Histogram: 8 4 4 0 4 12 8 0 30 34
Nghost:        3879.03 ave        5424 max         232 min
Histogram: 8 0 8 0 16 0 8 8 16 40
Neighs:        79213.4 ave      115198 max           0 min
Histogram: 8 4 4 0 10 6 8 8 24 32

Total # of neighbors = 8238190
Ave neighs/atom = 28.530429
Neighbor list builds = 0
Dangerous builds = 0
The dot product: -1.12825018296606e-07
Setting atom values ...
  1 settings made for x
  1 settings made for y
  1 settings made for z
Setting up cg style minimization ...
  Unit style    : metal
  Current step  : 1368
Per MPI rank memory allocation (min/avg/max) = 5.441 | 5.816 | 6.074 Mbytes
Step PotEng KinEng TotEng v_fx v_fy v_fz 
    1368   -1152449.4            0   -1152449.4  0.014755662  0.035570161 -0.021844481 
    1500   -1152449.4            0   -1152449.4 -2.1438338e-05 -5.1366892e-05 3.0430647e-05 
Loop time of 1.52674 on 104 procs for 132 steps with 288751 atoms

99.9% CPU use with 104 MPI tasks x 1 OpenMP threads

Minimization stats:
  Stopping criterion = energy tolerance
  Energy initial, next-to-last, final = 
     -1152449.38611939  -1152449.38743843  -1152449.38743843
  Force two-norm initial, final = 0.15505599 0.00024698744
  Force max component initial, final = 0.11286495 5.2079813e-05
  Final line search alpha, max atom move = 1.0000000 5.2079813e-05
  Iterations, force evaluations = 132 264

MPI task timing breakdown:
Section |  min time  |  avg time  |  max time  |%varavg| %total
---------------------------------------------------------------
Pair    | 0.40077    | 1.106      | 1.4459     |  28.4 | 72.44
Neigh   | 0          | 0          | 0          |   0.0 |  0.00
Comm    | 0.023189   | 0.2483     | 0.75097    |  42.0 | 16.26
Output  | 0          | 0          | 0          |   0.0 |  0.00
Modify  | 1.5837e-05 | 0.0021708  | 0.0046363  |   2.2 |  0.14
Other   |            | 0.1703     |            |       | 11.16

Nlocal:        2776.45 ave        3953 max           0 min
Histogram: 8 4 4 0 4 12 8 0 30 34
Nghost:        3879.01 ave        5424 max         232 min
Histogram: 8 0 8 0 16 0 8 8 16 40
Neighs:        79213.4 ave      115209 max           0 min
Histogram: 8 4 4 0 10 6 8 8 24 32

Total # of neighbors = 8238194
Ave neighs/atom = 28.530443
Neighbor list builds = 0
Dangerous builds = 0
The dot product: -6.08990797447287e-07
Setting atom values ...
  1 settings made for x
  1 settings made for y
  1 settings made for z
Setting up cg style minimization ...
  Unit style    : metal
  Current step  : 1500
Per MPI rank memory allocation (min/avg/max) = 5.441 | 5.816 | 6.074 Mbytes
Step PotEng KinEng TotEng v_fx v_fy v_fz 
    1500   -1152449.4            0   -1152449.4  0.011190756  0.032301674  -0.01911744 
    1659   -1152449.4            0   -1152449.4 -9.4018143e-07 7.7537383e-06 -3.170587e-05 
Loop time of 1.84857 on 104 procs for 159 steps with 288751 atoms

99.9% CPU use with 104 MPI tasks x 1 OpenMP threads

Minimization stats:
  Stopping criterion = energy tolerance
  Energy initial, next-to-last, final = 
     -1152449.37250337  -1152449.37379125  -1152449.37379125
  Force two-norm initial, final = 0.154758 0.00024385893
  Force max component initial, final = 0.11327161 3.1705870e-05
  Final line search alpha, max atom move = 1.0000000 3.1705870e-05
  Iterations, force evaluations = 159 318

MPI task timing breakdown:
Section |  min time  |  avg time  |  max time  |%varavg| %total
---------------------------------------------------------------
Pair    | 0.48418    | 1.3341     | 1.7408     |  31.1 | 72.17
Neigh   | 0          | 0          | 0          |   0.0 |  0.00
Comm    | 0.035051   | 0.30158    | 0.91049    |  46.2 | 16.31
Output  | 0          | 0          | 0          |   0.0 |  0.00
Modify  | 1.9367e-05 | 0.0026172  | 0.0055786  |   2.4 |  0.14
Other   |            | 0.2103     |            |       | 11.38

Nlocal:        2776.45 ave        3953 max           0 min
Histogram: 8 4 4 0 4 12 8 0 30 34
Nghost:        3879.01 ave        5424 max         232 min
Histogram: 8 0 8 0 16 0 8 8 16 40
Neighs:        79213.4 ave      115209 max           0 min
Histogram: 8 4 4 0 10 6 8 8 24 32

Total # of neighbors = 8238193
Ave neighs/atom = 28.530440
Neighbor list builds = 0
Dangerous builds = 0
The dot product: 1.4782347831261e-07
Setting atom values ...
  1 settings made for x
  1 settings made for y
  1 settings made for z
Setting up cg style minimization ...
  Unit style    : metal
  Current step  : 1659
Per MPI rank memory allocation (min/avg/max) = 5.441 | 5.816 | 6.074 Mbytes
Step PotEng KinEng TotEng v_fx v_fy v_fz 
    1659   -1152449.4            0   -1152449.4 0.0078060852  0.027235728 -0.016703372 
    1829   -1152449.4            0   -1152449.4 -1.0136796e-05 -3.2452887e-05 1.4199553e-05 
Loop time of 1.95382 on 104 procs for 170 steps with 288751 atoms

99.9% CPU use with 104 MPI tasks x 1 OpenMP threads

Minimization stats:
  Stopping criterion = energy tolerance
  Energy initial, next-to-last, final = 
     -1152449.35752925  -1152449.35877674  -1152449.35877674
  Force two-norm initial, final = 0.1545353 0.00017218859
  Force max component initial, final = 0.11344926 4.0502611e-05
  Final line search alpha, max atom move = 1.0000000 4.0502611e-05
  Iterations, force evaluations = 170 340

MPI task timing breakdown:
Section |  min time  |  avg time  |  max time  |%varavg| %total
---------------------------------------------------------------
Pair    | 0.51699    | 1.4228     | 1.8533     |  32.1 | 72.82
Neigh   | 0          | 0          | 0          |   0.0 |  0.00
Comm    | 0.029924   | 0.31636    | 0.96154    |  47.9 | 16.19
Output  | 0          | 0          | 0          |   0.0 |  0.00
Modify  | 2.0111e-05 | 0.0027908  | 0.005941   |   2.5 |  0.14
Other   |            | 0.2119     |            |       | 10.84

Nlocal:        2776.45 ave        3952 max           0 min
Histogram: 8 4 4 0 4 12 8 0 30 34
Nghost:        3879.01 ave        5424 max         232 min
Histogram: 8 0 8 0 16 0 8 8 16 40
Neighs:        79213.4 ave      115179 max           0 min
Histogram: 8 4 4 0 10 6 8 8 24 32

Total # of neighbors = 8238192
Ave neighs/atom = 28.530436
Neighbor list builds = 0
Dangerous builds = 0
The dot product: -2.86810146049805e-07
Setting atom values ...
  1 settings made for x
  1 settings made for y
  1 settings made for z
Setting up cg style minimization ...
  Unit style    : metal
  Current step  : 1829
Per MPI rank memory allocation (min/avg/max) = 5.441 | 5.816 | 6.074 Mbytes
Step PotEng KinEng TotEng v_fx v_fy v_fz 
    1829   -1152449.3            0   -1152449.3 0.0049152781  0.021167713 -0.014413481 
    1968   -1152449.3            0   -1152449.3 -1.2138409e-05 -2.060394e-05 -3.3197184e-05 
Loop time of 1.63505 on 104 procs for 139 steps with 288751 atoms

99.9% CPU use with 104 MPI tasks x 1 OpenMP threads

Minimization stats:
  Stopping criterion = energy tolerance
  Energy initial, next-to-last, final = 
     -1152449.34114929  -1152449.34235713  -1152449.34235713
  Force two-norm initial, final = 0.15460107 0.00020899531
  Force max component initial, final = 0.11358827 3.4695661e-05
  Final line search alpha, max atom move = 1.0000000 3.4695661e-05
  Iterations, force evaluations = 139 278

MPI task timing breakdown:
Section |  min time  |  avg time  |  max time  |%varavg| %total
---------------------------------------------------------------
Pair    | 0.42346    | 1.171      | 1.5279     |  29.1 | 71.62
Neigh   | 0          | 0          | 0          |   0.0 |  0.00
Comm    | 0.025152   | 0.26599    | 0.79425    |  43.1 | 16.27
Output  | 0          | 0          | 0          |   0.0 |  0.00
Modify  | 1.7907e-05 | 0.0022855  | 0.0048972  |   2.3 |  0.14
Other   |            | 0.1958     |            |       | 11.97

Nlocal:        2776.45 ave        3952 max           0 min
Histogram: 8 4 4 0 4 12 8 0 30 34
Nghost:        3879.01 ave        5424 max         232 min
Histogram: 8 0 8 0 16 0 8 8 16 40
Neighs:        79213.4 ave      115180 max           0 min
Histogram: 8 4 4 0 10 6 8 8 24 32

Total # of neighbors = 8238192
Ave neighs/atom = 28.530436
Neighbor list builds = 0
Dangerous builds = 0
The dot product: -8.45384641235171e-08
Setting atom values ...
  1 settings made for x
  1 settings made for y
  1 settings made for z
Setting up cg style minimization ...
  Unit style    : metal
  Current step  : 1968
Per MPI rank memory allocation (min/avg/max) = 5.441 | 5.816 | 6.074 Mbytes
Step PotEng KinEng TotEng v_fx v_fy v_fz 
    1968   -1152449.3            0   -1152449.3 0.0025953097  0.014923779 -0.012481092 
    2000   -1152449.3            0   -1152449.3 0.00013023496 0.0001853003 0.00044872112 
    2147   -1152449.3            0   -1152449.3 -4.0601973e-06 -3.2244445e-06 -1.8858082e-05 
Loop time of 2.08705 on 104 procs for 179 steps with 288751 atoms

99.9% CPU use with 104 MPI tasks x 1 OpenMP threads

Minimization stats:
  Stopping criterion = energy tolerance
  Energy initial, next-to-last, final = 
     -1152449.32333055  -1152449.32450742  -1152449.32450742
  Force two-norm initial, final = 0.15505692 0.00010576408
  Force max component initial, final = 0.11382595 1.8858082e-05
  Final line search alpha, max atom move = 1.0000000 1.8858082e-05
  Iterations, force evaluations = 179 358

MPI task timing breakdown:
Section |  min time  |  avg time  |  max time  |%varavg| %total
---------------------------------------------------------------
Pair    | 0.54412    | 1.4996     | 1.9776     |  33.0 | 71.85
Neigh   | 0          | 0          | 0          |   0.0 |  0.00
Comm    | 0.032646   | 0.33928    | 1.0123     |  48.5 | 16.26
Output  | 0.00015576 | 0.00015791 | 0.00024618 |   0.0 |  0.01
Modify  | 2.1338e-05 | 0.0029392  | 0.0062589  |   2.6 |  0.14
Other   |            | 0.2451     |            |       | 11.74

Nlocal:        2776.45 ave        3952 max           0 min
Histogram: 8 4 4 0 4 12 8 0 30 34
Nghost:        3879.01 ave        5424 max         232 min
Histogram: 8 0 8 0 16 0 8 8 16 40
Neighs:        79213.4 ave      115179 max           0 min
Histogram: 8 4 4 0 10 6 8 8 24 32

Total # of neighbors = 8238189
Ave neighs/atom = 28.530426
Neighbor list builds = 0
Dangerous builds = 0
The dot product: 7.3205763872476e-09
Setting atom values ...
  1 settings made for x
  1 settings made for y
  1 settings made for z
Setting up cg style minimization ...
  Unit style    : metal
  Current step  : 2147
Per MPI rank memory allocation (min/avg/max) = 5.441 | 5.816 | 6.074 Mbytes
Step PotEng KinEng TotEng v_fx v_fy v_fz 
    2147   -1152449.3            0   -1152449.3 0.00069966386  0.008769803 -0.010984726 
    2360   -1152449.3            0   -1152449.3 -2.6244062e-06 -2.6330221e-06 -1.1127129e-05 
Loop time of 2.48309 on 104 procs for 213 steps with 288751 atoms

99.9% CPU use with 104 MPI tasks x 1 OpenMP threads

Minimization stats:
  Stopping criterion = energy tolerance
  Energy initial, next-to-last, final = 
     -1152449.30405487  -1152449.30521143  -1152449.30521143
  Force two-norm initial, final = 0.15599346 3.5281646e-05
  Force max component initial, final = 0.11431328 1.1127129e-05
  Final line search alpha, max atom move = 1.0000000 1.1127129e-05
  Iterations, force evaluations = 213 426

MPI task timing breakdown:
Section |  min time  |  avg time  |  max time  |%varavg| %total
---------------------------------------------------------------
Pair    | 0.64765    | 1.7871     | 2.3354     |  36.1 | 71.97
Neigh   | 0          | 0          | 0          |   0.0 |  0.00
Comm    | 0.041386   | 0.40439    | 1.2208     |  53.2 | 16.29
Output  | 0          | 0          | 0          |   0.0 |  0.00
Modify  | 2.579e-05  | 0.0034987  | 0.0074752  |   2.8 |  0.14
Other   |            | 0.2881     |            |       | 11.60

Nlocal:        2776.45 ave        3952 max           0 min
Histogram: 8 4 4 0 4 12 8 0 30 34
Nghost:        3879.01 ave        5425 max         232 min
Histogram: 8 0 8 0 16 0 8 8 16 40
Neighs:        79213.3 ave      115178 max           0 min
Histogram: 8 4 4 0 10 6 8 8 24 32

Total # of neighbors = 8238186
Ave neighs/atom = 28.530415
Neighbor list builds = 0
Dangerous builds = 0
The dot product: 1.89719762142512e-09
Setting atom values ...
  1 settings made for x
  1 settings made for y
  1 settings made for z
Setting up cg style minimization ...
  Unit style    : metal
  Current step  : 2360
Per MPI rank memory allocation (min/avg/max) = 5.441 | 5.816 | 6.074 Mbytes
Step PotEng KinEng TotEng v_fx v_fy v_fz 
    2360   -1152449.3            0   -1152449.3 -0.00086692595  0.002824081 -0.0096228607 
    2590   -1152449.3            0   -1152449.3 -2.8336467e-07 -2.3788231e-06 2.1829699e-06 
Loop time of 2.68705 on 104 procs for 230 steps with 288751 atoms

99.9% CPU use with 104 MPI tasks x 1 OpenMP threads

Minimization stats:
  Stopping criterion = energy tolerance
  Energy initial, next-to-last, final = 
     -1152449.28331191  -1152449.28446064  -1152449.28446064
  Force two-norm initial, final = 0.1573857 1.7277735e-05
  Force max component initial, final = 0.115054 3.7729679e-06
  Final line search alpha, max atom move = 1.0000000 3.7729679e-06
  Iterations, force evaluations = 230 460

MPI task timing breakdown:
Section |  min time  |  avg time  |  max time  |%varavg| %total
---------------------------------------------------------------
Pair    | 0.6998     | 1.9262     | 2.5408     |  37.4 | 71.69
Neigh   | 0          | 0          | 0          |   0.0 |  0.00
Comm    | 0.048644   | 0.43676    | 1.3108     |  54.8 | 16.25
Output  | 0          | 0          | 0          |   0.0 |  0.00
Modify  | 2.745e-05  | 0.0037712  | 0.0080192  |   2.9 |  0.14
Other   |            | 0.3203     |            |       | 11.92

Nlocal:        2776.45 ave        3952 max           0 min
Histogram: 8 4 4 0 4 12 8 0 30 34
Nghost:        3879.01 ave        5425 max         232 min
Histogram: 8 0 8 0 16 0 8 8 16 40
Neighs:        79213.4 ave      115172 max           0 min
Histogram: 8 4 4 0 10 6 8 8 24 32

Total # of neighbors = 8238189
Ave neighs/atom = 28.530426
Neighbor list builds = 0
Dangerous builds = 0
The dot product: -6.80096915060867e-09
Setting atom values ...
  1 settings made for x
  1 settings made for y
  1 settings made for z
Setting up cg style minimization ...
  Unit style    : metal
  Current step  : 2590
Per MPI rank memory allocation (min/avg/max) = 5.441 | 5.816 | 6.074 Mbytes
Step PotEng KinEng TotEng v_fx v_fy v_fz 
    2590   -1152449.3            0   -1152449.3 -0.0022550393 -0.0029769392 -0.0083614558 
    2751   -1152449.3            0   -1152449.3 -5.1980099e-06 -1.1981648e-05 -1.1361292e-05 
Loop time of 1.86071 on 104 procs for 161 steps with 288751 atoms

99.9% CPU use with 104 MPI tasks x 1 OpenMP threads

Minimization stats:
  Stopping criterion = energy tolerance
  Energy initial, next-to-last, final = 
     -1152449.26109794  -1152449.26225164  -1152449.26225164
  Force two-norm initial, final = 0.15927006 0.00016975541
  Force max component initial, final = 0.11608228 1.6570475e-05
  Final line search alpha, max atom move = 1.0000000 1.6570475e-05
  Iterations, force evaluations = 161 322

MPI task timing breakdown:
Section |  min time  |  avg time  |  max time  |%varavg| %total
---------------------------------------------------------------
Pair    | 0.48974    | 1.3501     | 1.7652     |  31.4 | 72.56
Neigh   | 0          | 0          | 0          |   0.0 |  0.00
Comm    | 0.028155   | 0.30484    | 0.91635    |  46.5 | 16.38
Output  | 0          | 0          | 0          |   0.0 |  0.00
Modify  | 1.9011e-05 | 0.0026413  | 0.00565    |   2.4 |  0.14
Other   |            | 0.2031     |            |       | 10.92

Nlocal:        2776.45 ave        3952 max           0 min
Histogram: 8 4 4 0 4 12 8 0 30 34
Nghost:        3879.01 ave        5425 max         232 min
Histogram: 8 0 8 0 16 0 8 8 16 40
Neighs:        79213.3 ave      115172 max           0 min
Histogram: 8 4 4 0 10 6 8 8 24 32

Total # of neighbors = 8238185
Ave neighs/atom = 28.530412
Neighbor list builds = 0
Dangerous builds = 0
The dot product: -1.01047637982235e-09
Setting atom values ...
  1 settings made for x
  1 settings made for y
  1 settings made for z
Setting up cg style minimization ...
  Unit style    : metal
  Current step  : 2751
Per MPI rank memory allocation (min/avg/max) = 5.441 | 5.816 | 6.074 Mbytes
Step PotEng KinEng TotEng v_fx v_fy v_fz 
    2751   -1152449.2            0   -1152449.2 -0.0036472503 -0.0090806013 -0.0069643011 
    2898   -1152449.2            0   -1152449.2 -1.2560322e-05 -3.3259134e-05 -2.0971825e-05 
Loop time of 1.70182 on 104 procs for 147 steps with 288751 atoms

99.9% CPU use with 104 MPI tasks x 1 OpenMP threads

Minimization stats:
  Stopping criterion = energy tolerance
  Energy initial, next-to-last, final = 
     -1152449.23741475  -1152449.23858642  -1152449.23858642
  Force two-norm initial, final = 0.16168938 0.000195244
  Force max component initial, final = 0.11740649 3.3259134e-05
  Final line search alpha, max atom move = 1.0000000 3.3259134e-05
  Iterations, force evaluations = 147 294

MPI task timing breakdown:
Section |  min time  |  avg time  |  max time  |%varavg| %total
---------------------------------------------------------------
Pair    | 0.44915    | 1.2322     | 1.614      |  29.9 | 72.41
Neigh   | 0          | 0          | 0          |   0.0 |  0.00
Comm    | 0.02558    | 0.2758     | 0.8368     |  44.4 | 16.21
Output  | 0          | 0          | 0          |   0.0 |  0.00
Modify  | 1.8033e-05 | 0.0024174  | 0.0051658  |   2.3 |  0.14
Other   |            | 0.1914     |            |       | 11.25

Nlocal:        2776.45 ave        3952 max           0 min
Histogram: 8 4 4 0 4 12 8 0 30 34
Nghost:        3879.09 ave        5425 max         232 min
Histogram: 8 0 8 0 16 0 8 8 16 40
Neighs:        79213.3 ave      115172 max           0 min
Histogram: 8 4 4 0 10 6 8 8 24 32

Total # of neighbors = 8238185
Ave neighs/atom = 28.530412
Neighbor list builds = 0
Dangerous builds = 0
The dot product: 3.66195186381968e-08
Setting atom values ...
  1 settings made for x
  1 settings made for y
  1 settings made for z
Setting up cg style minimization ...
  Unit style    : metal
  Current step  : 2898
Per MPI rank memory allocation (min/avg/max) = 5.441 | 5.816 | 6.074 Mbytes
Step PotEng KinEng TotEng v_fx v_fy v_fz 
    2898   -1152449.2            0   -1152449.2 -0.0052418331 -0.015966715 -0.0053200409 
    3000   -1152449.2            0   -1152449.2 2.5389578e-05 1.8120582e-05 0.00011568726 
    3019   -1152449.2            0   -1152449.2 -2.4910776e-06 -2.8076077e-06 -9.7869523e-06 
Loop time of 1.39843 on 104 procs for 121 steps with 288751 atoms

99.9% CPU use with 104 MPI tasks x 1 OpenMP threads

Minimization stats:
  Stopping criterion = energy tolerance
  Energy initial, next-to-last, final = 
     -1152449.21227464  -1152449.21348143  -1152449.21348143
  Force two-norm initial, final = 0.16479277 0.00022428041
  Force max component initial, final = 0.11908001 2.3927704e-05
  Final line search alpha, max atom move = 1.0000000 2.3927704e-05
  Iterations, force evaluations = 121 242

MPI task timing breakdown:
Section |  min time  |  avg time  |  max time  |%varavg| %total
---------------------------------------------------------------
Pair    | 0.36783    | 1.0173     | 1.326      |  27.2 | 72.75
Neigh   | 0          | 0          | 0          |   0.0 |  0.00
Comm    | 0.02141    | 0.22871    | 0.69022    |  40.3 | 16.35
Output  | 9.3685e-05 | 0.00010153 | 0.00022241 |   0.0 |  0.01
Modify  | 1.448e-05  | 0.0019873  | 0.0042592  |   2.1 |  0.14
Other   |            | 0.1503     |            |       | 10.75

Nlocal:        2776.45 ave        3952 max           0 min
Histogram: 8 4 4 0 4 12 8 0 30 34
Nghost:        3879.09 ave        5425 max         232 min
Histogram: 8 0 8 0 16 0 8 8 16 40
Neighs:        79213.3 ave      115182 max           0 min
Histogram: 8 4 4 0 10 6 8 8 24 32

Total # of neighbors = 8238186
Ave neighs/atom = 28.530415
Neighbor list builds = 0
Dangerous builds = 0
The dot product: 8.93882951140034e-09
Setting atom values ...
  1 settings made for x
  1 settings made for y
  1 settings made for z
Setting up cg style minimization ...
  Unit style    : metal
  Current step  : 3019
Per MPI rank memory allocation (min/avg/max) = 5.441 | 5.816 | 6.074 Mbytes
Step PotEng KinEng TotEng v_fx v_fy v_fz 
    3019   -1152449.2            0   -1152449.2 -0.007256696 -0.024124461 -0.0032288259 
    3162   -1152449.2            0   -1152449.2 1.8644448e-06 1.3447302e-05 -1.0470562e-05 
Loop time of 1.67535 on 104 procs for 143 steps with 288751 atoms

99.9% CPU use with 104 MPI tasks x 1 OpenMP threads

Minimization stats:
  Stopping criterion = energy tolerance
  Energy initial, next-to-last, final = 
     -1152449.18571247  -1152449.18698468  -1152449.18698468
  Force two-norm initial, final = 0.16876688 0.00020231128
  Force max component initial, final = 0.12118817 1.3447302e-05
  Final line search alpha, max atom move = 1.0000000 1.3447302e-05
  Iterations, force evaluations = 143 286

MPI task timing breakdown:
Section |  min time  |  avg time  |  max time  |%varavg| %total
---------------------------------------------------------------
Pair    | 0.43466    | 1.2018     | 1.5742     |  29.7 | 71.74
Neigh   | 0          | 0          | 0          |   0.0 |  0.00
Comm    | 0.025195   | 0.26985    | 0.81116    |  43.6 | 16.11
Output  | 0          | 0          | 0          |   0.0 |  0.00
Modify  | 1.7149e-05 | 0.0023525  | 0.0050511  |   2.3 |  0.14
Other   |            | 0.2013     |            |       | 12.02

Nlocal:        2776.45 ave        3951 max           0 min
Histogram: 8 4 4 0 4 12 8 0 30 34
Nghost:        3879.07 ave        5425 max         232 min
Histogram: 8 0 8 0 16 0 8 8 16 40
Neighs:        79213.3 ave      115156 max           0 min
Histogram: 8 4 4 0 10 6 8 8 24 32

Total # of neighbors = 8238184
Ave neighs/atom = 28.530409
Neighbor list builds = 0
Dangerous builds = 0
The dot product: -7.50484176047123e-08
Setting atom values ...
  1 settings made for x
  1 settings made for y
  1 settings made for z
Setting up cg style minimization ...
  Unit style    : metal
  Current step  : 3162
Per MPI rank memory allocation (min/avg/max) = 5.441 | 5.816 | 6.074 Mbytes
Step PotEng KinEng TotEng v_fx v_fy v_fz 
    3162   -1152449.2            0   -1152449.2 -0.010035613 -0.034900685 0.00082686617 
    3282   -1152449.2            0   -1152449.2 -2.2878428e-06 -3.190744e-05 3.9696578e-05 
Loop time of 1.39251 on 104 procs for 120 steps with 288751 atoms

99.9% CPU use with 104 MPI tasks x 1 OpenMP threads

Minimization stats:
  Stopping criterion = energy tolerance
  Energy initial, next-to-last, final = 
     -1152449.15780441  -1152449.15921349  -1152449.15921349
  Force two-norm initial, final = 0.17398012 0.00019754272
  Force max component initial, final = 0.12396697 4.0077480e-05
  Final line search alpha, max atom move = 1.0000000 4.0077480e-05
  Iterations, force evaluations = 120 240

MPI task timing breakdown:
Section |  min time  |  avg time  |  max time  |%varavg| %total
---------------------------------------------------------------
Pair    | 0.36662    | 1.0103     | 1.3196     |  27.2 | 72.55
Neigh   | 0          | 0          | 0          |   0.0 |  0.00
Comm    | 0.021591   | 0.22684    | 0.68443    |  40.3 | 16.29
Output  | 0          | 0          | 0          |   0.0 |  0.00
Modify  | 1.4474e-05 | 0.0019758  | 0.0042187  |   2.1 |  0.14
Other   |            | 0.1534     |            |       | 11.02

Nlocal:        2776.45 ave        3951 max           0 min
Histogram: 8 4 4 0 4 12 8 0 30 34
Nghost:        3879.07 ave        5425 max         232 min
Histogram: 8 0 8 0 16 0 8 8 16 40
Neighs:        79213.3 ave      115156 max           0 min
Histogram: 8 4 4 0 10 6 8 8 24 32

Total # of neighbors = 8238184
Ave neighs/atom = 28.530409
Neighbor list builds = 0
Dangerous builds = 0
The dot product: 3.70468458713558e-07
Setting atom values ...
  1 settings made for x
  1 settings made for y
  1 settings made for z
Setting up cg style minimization ...
  Unit style    : metal
  Current step  : 3282
Per MPI rank memory allocation (min/avg/max) = 5.441 | 5.816 | 6.074 Mbytes
Step PotEng KinEng TotEng v_fx v_fy v_fz 
    3282   -1152449.1            0   -1152449.1 -0.013025008 -0.048250733  0.013284575 
    3426   -1152449.1            0   -1152449.1 -6.8274453e-06 -2.0224413e-05 -2.3370664e-06 
Loop time of 1.68006 on 104 procs for 144 steps with 288751 atoms

99.9% CPU use with 104 MPI tasks x 1 OpenMP threads

Minimization stats:
  Stopping criterion = energy tolerance
  Energy initial, next-to-last, final = 
      -1152449.1285789  -1152449.13022762  -1152449.13022762
  Force two-norm initial, final = 0.18102174 0.00010516667
  Force max component initial, final = 0.1277637 2.0224413e-05
  Final line search alpha, max atom move = 1.0000000 2.0224413e-05
  Iterations, force evaluations = 144 288

MPI task timing breakdown:
Section |  min time  |  avg time  |  max time  |%varavg| %total
---------------------------------------------------------------
Pair    | 0.43937    | 1.2106     | 1.5875     |  29.5 | 72.06
Neigh   | 0          | 0          | 0          |   0.0 |  0.00
Comm    | 0.026197   | 0.27206    | 0.81858    |  43.7 | 16.19
Output  | 0          | 0          | 0          |   0.0 |  0.00
Modify  | 1.7029e-05 | 0.0023655  | 0.0050469  |   2.3 |  0.14
Other   |            | 0.195      |            |       | 11.61

Nlocal:        2776.45 ave        3950 max           0 min
Histogram: 8 4 4 0 4 12 8 0 26 38
Nghost:        3879.07 ave        5425 max         232 min
Histogram: 8 0 8 0 16 0 8 8 16 40
Neighs:        79213.3 ave      115132 max           0 min
Histogram: 8 4 4 0 10 6 8 8 24 32

Total # of neighbors = 8238184
Ave neighs/atom = 28.530409
Neighbor list builds = 0
Dangerous builds = 0
The dot product: 2.73857018248187e-07
Setting atom values ...
  1 settings made for x
  1 settings made for y
  1 settings made for z
Setting up cg style minimization ...
[...]

Nlocal:        2776.45 ave        3956 max           0 min
Histogram: 8 4 4 0 4 12 8 0 30 34
Nghost:        3879.14 ave        5424 max         232 min
Histogram: 8 0 8 0 16 0 8 8 16 40
Neighs:        79213.5 ave      115284 max           0 min
Histogram: 8 4 4 0 10 6 8 8 24 32

Total # of neighbors = 8238208
Ave neighs/atom = 28.530492
Neighbor list builds = 0
Dangerous builds = 0
The dot product: 1.31427782075284e-07
Setting atom values ...
  1 settings made for x
  1 settings made for y
  1 settings made for z
Setting up cg style minimization ...
  Unit style    : metal
  Current step  : 23447
Per MPI rank memory allocation (min/avg/max) = 5.441 | 5.816 | 6.074 Mbytes
Step PotEng KinEng TotEng v_fx v_fy v_fz 
   23447     -1152449            0     -1152449 0.0038722352 0.0043428398 0.0068278419 
   23738     -1152449            0     -1152449 3.7644233e-06 3.595216e-06 6.672833e-06 
Loop time of 3.38065 on 104 procs for 291 steps with 288751 atoms

99.9% CPU use with 104 MPI tasks x 1 OpenMP threads

Minimization stats:
  Stopping criterion = energy tolerance
  Energy initial, next-to-last, final = 
     -1152448.96131942  -1152448.96435214  -1152448.96435214
  Force two-norm initial, final = 0.13706911 6.8062726e-05
  Force max component initial, final = 0.06019804 2.1553122e-05
  Final line search alpha, max atom move = 1.0000000 2.1553122e-05
  Iterations, force evaluations = 291 582

MPI task timing breakdown:
Section |  min time  |  avg time  |  max time  |%varavg| %total
---------------------------------------------------------------
Pair    | 0.88787    | 2.4313     | 3.1684     |  41.9 | 71.92
Neigh   | 1.0968e-05 | 0.0029418  | 0.0042474  |   2.2 |  0.09
Comm    | 0.062894   | 0.54752    | 1.6452     |  61.8 | 16.20
Output  | 0          | 0          | 0          |   0.0 |  0.00
Modify  | 3.5798e-05 | 0.0047866  | 0.010172   |   3.3 |  0.14
Other   |            | 0.3941     |            |       | 11.66

Nlocal:        2776.45 ave        3955 max           0 min
Histogram: 8 4 4 0 4 12 8 0 30 34
Nghost:        3879.12 ave        5424 max         232 min
Histogram: 8 0 8 0 16 0 8 8 16 40
Neighs:        79213.5 ave      115219 max           0 min
Histogram: 8 4 4 0 10 6 8 8 24 32

Total # of neighbors = 8238208
Ave neighs/atom = 28.530492
Neighbor list builds = 1
Dangerous builds = 0
The dot product: 7.0986801521327e-07
Setting atom values ...
  1 settings made for x
  1 settings made for y
  1 settings made for z
Setting up cg style minimization ...
  Unit style    : metal
  Current step  : 23738
Per MPI rank memory allocation (min/avg/max) = 5.441 | 5.816 | 6.074 Mbytes
Step PotEng KinEng TotEng v_fx v_fy v_fz 
   23738     -1152449            0     -1152449 -0.0032900719 0.00083495615 -0.005646524 
   23902     -1152449            0     -1152449 -4.4363125e-06 -8.4152191e-06 -6.9237442e-06 
Loop time of 1.90253 on 104 procs for 164 steps with 288751 atoms

99.9% CPU use with 104 MPI tasks x 1 OpenMP threads

Minimization stats:
  Stopping criterion = energy tolerance
  Energy initial, next-to-last, final = 
     -1152448.96686841  -1152448.96792905  -1152448.96792905
  Force two-norm initial, final = 0.1371909 0.00022303456
  Force max component initial, final = 0.061153669 2.1175046e-05
  Final line search alpha, max atom move = 1.0000000 2.1175046e-05
  Iterations, force evaluations = 164 328

MPI task timing breakdown:
Section |  min time  |  avg time  |  max time  |%varavg| %total
---------------------------------------------------------------
Pair    | 0.49895    | 1.3769     | 1.7984     |  31.8 | 72.37
Neigh   | 0          | 0          | 0          |   0.0 |  0.00
Comm    | 0.031929   | 0.3115     | 0.94109    |  46.3 | 16.37
Output  | 0          | 0          | 0          |   0.0 |  0.00
Modify  | 2.0489e-05 | 0.0027067  | 0.0063082  |   2.5 |  0.14
Other   |            | 0.2114     |            |       | 11.11

Nlocal:        2776.45 ave        3955 max           0 min
Histogram: 8 4 4 0 4 12 8 0 30 34
Nghost:        3879.12 ave        5424 max         232 min
Histogram: 8 0 8 0 16 0 8 8 16 40
Neighs:        79213.5 ave      115236 max           0 min
Histogram: 8 4 4 0 10 6 8 8 24 32

Total # of neighbors = 8238202
Ave neighs/atom = 28.530471
Neighbor list builds = 0
Dangerous builds = 0
The dot product: -2.52618395933954e-08
Setting atom values ...
  1 settings made for x
  1 settings made for y
  1 settings made for z
Setting up cg style minimization ...
  Unit style    : metal
  Current step  : 23902
Per MPI rank memory allocation (min/avg/max) = 5.441 | 5.816 | 6.074 Mbytes
Step PotEng KinEng TotEng v_fx v_fy v_fz 
   23902     -1152449            0     -1152449 -0.00066859999 0.0024993937 -0.0013094908 
   24000     -1152449            0     -1152449 8.8313038e-05 0.00010670087 0.00014179091 
   24072     -1152449            0     -1152449 1.9071982e-05 2.1393422e-05 3.0738727e-05 
Loop time of 1.9588 on 104 procs for 170 steps with 288751 atoms

99.9% CPU use with 104 MPI tasks x 1 OpenMP threads

Minimization stats:
  Stopping criterion = energy tolerance
  Energy initial, next-to-last, final = 
      -1152448.9693043  -1152448.97039299  -1152448.97039299
  Force two-norm initial, final = 0.13775564 0.00022957877
  Force max component initial, final = 0.06093178 6.5732821e-05
  Final line search alpha, max atom move = 1.0000000 6.5732821e-05
  Iterations, force evaluations = 170 340

MPI task timing breakdown:
Section |  min time  |  avg time  |  max time  |%varavg| %total
---------------------------------------------------------------
Pair    | 0.5162     | 1.4222     | 1.8536     |  32.2 | 72.60
Neigh   | 0          | 0          | 0          |   0.0 |  0.00
Comm    | 0.030039   | 0.31879    | 0.95372    |  47.2 | 16.27
Output  | 0.00015686 | 0.00016021 | 0.00029609 |   0.0 |  0.01
Modify  | 2.0848e-05 | 0.0028004  | 0.0059651  |   2.5 |  0.14
Other   |            | 0.2149     |            |       | 10.97

Nlocal:        2776.45 ave        3955 max           0 min
Histogram: 8 4 4 0 4 12 8 0 30 34
Nghost:        3879.12 ave        5424 max         232 min
Histogram: 8 0 8 0 16 0 8 8 16 40
Neighs:        79213.5 ave      115240 max           0 min
Histogram: 8 4 4 0 10 6 8 8 24 32

Total # of neighbors = 8238204
Ave neighs/atom = 28.530478
Neighbor list builds = 0
Dangerous builds = 0
The dot product: 1.92125055973749e-07
Setting atom values ...
  1 settings made for x
  1 settings made for y
  1 settings made for z
Setting up cg style minimization ...
  Unit style    : metal
  Current step  : 24072
Per MPI rank memory allocation (min/avg/max) = 5.441 | 5.816 | 6.074 Mbytes
Step PotEng KinEng TotEng v_fx v_fy v_fz 
   24072     -1152449            0     -1152449 -0.0013814114 0.0019163335 -0.002460804 
   24252     -1152449            0     -1152449 7.4448708e-06 1.0090905e-05 1.1820244e-05 
Loop time of 2.07659 on 104 procs for 180 steps with 288751 atoms

99.9% CPU use with 104 MPI tasks x 1 OpenMP threads

Minimization stats:
  Stopping criterion = energy tolerance
  Energy initial, next-to-last, final = 
     -1152448.97065863  -1152448.97175921  -1152448.97175921
  Force two-norm initial, final = 0.13867887 0.00018099333
  Force max component initial, final = 0.060691628 3.7784126e-05
  Final line search alpha, max atom move = 1.0000000 3.7784126e-05
  Iterations, force evaluations = 180 360

MPI task timing breakdown:
Section |  min time  |  avg time  |  max time  |%varavg| %total
---------------------------------------------------------------
Pair    | 0.54813    | 1.5067     | 1.9684     |  33.1 | 72.55
Neigh   | 0          | 0          | 0          |   0.0 |  0.00
Comm    | 0.031774   | 0.33877    | 1.0162     |  48.7 | 16.31
Output  | 0          | 0          | 0          |   0.0 |  0.00
Modify  | 2.1921e-05 | 0.002963   | 0.0063057  |   2.6 |  0.14
Other   |            | 0.2282     |            |       | 10.99

Nlocal:        2776.45 ave        3954 max           0 min
Histogram: 8 4 4 0 4 12 8 0 30 34
Nghost:        3879.20 ave        5424 max         232 min
Histogram: 8 0 8 0 16 0 8 8 16 40
Neighs:        79213.5 ave      115213 max           0 min
Histogram: 8 4 4 0 10 6 8 8 24 32

Total # of neighbors = 8238201
Ave neighs/atom = 28.530467
Neighbor list builds = 0
Dangerous builds = 0
The dot product: 6.78395432674536e-08
Setting atom values ...
  1 settings made for x
  1 settings made for y
  1 settings made for z
Setting up cg style minimization ...
  Unit style    : metal
  Current step  : 24252
Per MPI rank memory allocation (min/avg/max) = 5.441 | 5.816 | 6.074 Mbytes
Step PotEng KinEng TotEng v_fx v_fy v_fz 
   24252     -1152449            0     -1152449 -0.0021970013 0.0011392141 -0.0037601158 
   24416     -1152449            0     -1152449 -3.8979582e-05 -4.922379e-05 -6.1877286e-05 
Loop time of 1.91126 on 104 procs for 164 steps with 288751 atoms

99.9% CPU use with 104 MPI tasks x 1 OpenMP threads

Minimization stats:
  Stopping criterion = energy tolerance
  Energy initial, next-to-last, final = 
     -1152448.97093787  -1152448.97218162  -1152448.97218162
  Force two-norm initial, final = 0.13994623 0.00027355951
  Force max component initial, final = 0.060385141 8.2122420e-05
  Final line search alpha, max atom move = 1.0000000 8.2122420e-05
  Iterations, force evaluations = 164 328

MPI task timing breakdown:
Section |  min time  |  avg time  |  max time  |%varavg| %total
---------------------------------------------------------------
Pair    | 0.49733    | 1.3726     | 1.8068     |  31.6 | 71.81
Neigh   | 0          | 0          | 0          |   0.0 |  0.00
Comm    | 0.02987    | 0.31066    | 0.92034    |  45.8 | 16.25
Output  | 0          | 0          | 0          |   0.0 |  0.00
Modify  | 2.0034e-05 | 0.0027018  | 0.005802   |   2.4 |  0.14
Other   |            | 0.2253     |            |       | 11.79

Nlocal:        2776.45 ave        3954 max           0 min
Histogram: 8 4 4 0 4 12 8 0 30 34
Nghost:        3879.24 ave        5424 max         232 min
Histogram: 8 0 8 0 16 0 8 8 16 40
Neighs:        79213.5 ave      115213 max           0 min
Histogram: 8 4 4 0 10 6 8 8 24 32

Total # of neighbors = 8238200
Ave neighs/atom = 28.530464
Neighbor list builds = 0
Dangerous builds = 0
The dot product: -5.74477680420878e-07
Setting atom values ...
  1 settings made for x
  1 settings made for y
  1 settings made for z
Setting up cg style minimization ...
  Unit style    : metal
  Current step  : 24416
Per MPI rank memory allocation (min/avg/max) = 5.441 | 5.816 | 6.074 Mbytes
Step PotEng KinEng TotEng v_fx v_fy v_fz 
   24416     -1152449            0     -1152449 -0.0046628486 -0.0020582208 -0.0076133868 
   24631     -1152449            0     -1152449 4.641538e-06 5.4379372e-06 7.3471965e-06 
Loop time of 2.48439 on 104 procs for 215 steps with 288751 atoms

99.9% CPU use with 104 MPI tasks x 1 OpenMP threads

Minimization stats:
  Stopping criterion = energy tolerance
  Energy initial, next-to-last, final = 
     -1152448.97036753  -1152448.97154692  -1152448.97154692
  Force two-norm initial, final = 0.1413064 5.1802006e-05
  Force max component initial, final = 0.060340841 1.2052855e-05
  Final line search alpha, max atom move = 1.0000000 1.2052855e-05
  Iterations, force evaluations = 215 430

MPI task timing breakdown:
Section |  min time  |  avg time  |  max time  |%varavg| %total
---------------------------------------------------------------
Pair    | 0.65398    | 1.8011     | 2.3496     |  36.3 | 72.50
Neigh   | 0          | 0          | 0          |   0.0 |  0.00
Comm    | 0.037875   | 0.40959    | 1.21       |  52.6 | 16.49
Output  | 0          | 0          | 0          |   0.0 |  0.00
Modify  | 2.6412e-05 | 0.0035336  | 0.0075332  |   2.8 |  0.14
Other   |            | 0.2702     |            |       | 10.88

Nlocal:        2776.45 ave        3953 max           0 min
Histogram: 8 4 4 0 4 12 8 0 30 34
Nghost:        3879.22 ave        5423 max         232 min
Histogram: 8 0 8 0 16 0 8 8 16 40
Neighs:        79213.5 ave      115169 max           0 min
Histogram: 8 4 4 0 10 6 8 8 24 32

Total # of neighbors = 8238205
Ave neighs/atom = 28.530481
Neighbor list builds = 0
Dangerous builds = 0
The dot product: 2.94197006768979e-08
Setting atom values ...
  1 settings made for x
  1 settings made for y
  1 settings made for z
Setting up cg style minimization ...
  Unit style    : metal
  Current step  : 24631
Per MPI rank memory allocation (min/avg/max) = 5.441 | 5.816 | 6.074 Mbytes
Step PotEng KinEng TotEng v_fx v_fy v_fz 
   24631     -1152449            0     -1152449 -0.0084038599 -0.0075039967 -0.013417692 
   24798     -1152449            0     -1152449 1.9937161e-05 2.6220016e-05 3.1280474e-05 
Loop time of 1.95141 on 104 procs for 167 steps with 288751 atoms

99.9% CPU use with 104 MPI tasks x 1 OpenMP threads

Minimization stats:
  Stopping criterion = energy tolerance
  Energy initial, next-to-last, final = 
     -1152448.96854767  -1152448.96985544  -1152448.96985544
  Force two-norm initial, final = 0.14375285 0.00020027677
  Force max component initial, final = 0.060156712 3.6525976e-05
  Final line search alpha, max atom move = 1.0000000 3.6525976e-05
  Iterations, force evaluations = 167 334

MPI task timing breakdown:
Section |  min time  |  avg time  |  max time  |%varavg| %total
---------------------------------------------------------------
Pair    | 0.50644    | 1.3999     | 1.8357     |  31.8 | 71.74
Neigh   | 0          | 0          | 0          |   0.0 |  0.00
Comm    | 0.03001    | 0.31601    | 0.94875    |  46.5 | 16.19
Output  | 0          | 0          | 0          |   0.0 |  0.00
Modify  | 2.0649e-05 | 0.0027558  | 0.0058492  |   2.5 |  0.14
Other   |            | 0.2328     |            |       | 11.93

Nlocal:        2776.45 ave        3953 max           0 min
Histogram: 8 4 4 0 4 12 8 0 30 34
Nghost:        3879.21 ave        5423 max         232 min
Histogram: 8 0 8 0 16 0 8 8 16 40
Neighs:        79213.4 ave      115167 max           0 min
Histogram: 8 4 4 0 10 6 8 8 24 32

Total # of neighbors = 8238197
Ave neighs/atom = 28.530454
Neighbor list builds = 0
Dangerous builds = 0
The dot product: 1.06817239057706e-07
Setting atom values ...
  1 settings made for x
  1 settings made for y
  1 settings made for z
Setting up cg style minimization ...
  Unit style    : metal
  Current step  : 24798
Per MPI rank memory allocation (min/avg/max) = 5.441 | 5.816 | 6.074 Mbytes
Step PotEng KinEng TotEng v_fx v_fy v_fz 
   24798     -1152449            0     -1152449 -0.011375532  -0.01099956 -0.018044872 
   25000     -1152449            0     -1152449 -8.9445118e-05 -0.00010187067 -0.00014095145 
   25116     -1152449            0     -1152449 -2.1733808e-05 -2.5792535e-05 -3.4185927e-05 
Loop time of 3.64924 on 104 procs for 318 steps with 288751 atoms

99.9% CPU use with 104 MPI tasks x 1 OpenMP threads

Minimization stats:
  Stopping criterion = energy tolerance
  Energy initial, next-to-last, final = 
     -1152448.96575191  -1152448.96790277  -1152448.96790277
  Force two-norm initial, final = 0.14725461 0.00017377307
  Force max component initial, final = 0.060280869 5.0107577e-05
  Final line search alpha, max atom move = 1.0000000 5.0107577e-05
  Iterations, force evaluations = 318 636

MPI task timing breakdown:
Section |  min time  |  avg time  |  max time  |%varavg| %total
---------------------------------------------------------------
Pair    | 0.96471    | 2.6616     | 3.4596     |  44.1 | 72.94
Neigh   | 0          | 0          | 0          |   0.0 |  0.00
Comm    | 0.055648   | 0.59646    | 1.7924     |  65.0 | 16.34
Output  | 0.00010093 | 0.0001079  | 0.00026352 |   0.0 |  0.00
Modify  | 3.9248e-05 | 0.0052237  | 0.011141   |   3.4 |  0.14
Other   |            | 0.3858     |            |       | 10.57

Nlocal:        2776.45 ave        3952 max           0 min
Histogram: 8 4 4 0 4 12 8 0 30 34
Nghost:        3879.21 ave        5423 max         232 min
Histogram: 8 0 8 0 16 0 8 8 16 40
Neighs:        79213.5 ave      115145 max           0 min
Histogram: 8 4 4 0 10 6 8 8 24 32

Total # of neighbors = 8238204
Ave neighs/atom = 28.530478
Neighbor list builds = 0
Dangerous builds = 0
The dot product: -8.12569336538294e-07
Setting atom values ...
  1 settings made for x
  1 settings made for y
  1 settings made for z
Setting up cg style minimization ...
  Unit style    : metal
  Current step  : 25116
Per MPI rank memory allocation (min/avg/max) = 5.441 | 5.816 | 6.074 Mbytes
Step PotEng KinEng TotEng v_fx v_fy v_fz 
   25116     -1152449            0     -1152449  -0.01491463 -0.012672065 -0.023335748 
   25335     -1152449            0     -1152449 5.1266404e-06 5.4293191e-06 7.9649573e-06 
Loop time of 2.52219 on 104 procs for 219 steps with 288751 atoms

99.9% CPU use with 104 MPI tasks x 1 OpenMP threads

Minimization stats:
  Stopping criterion = energy tolerance
  Energy initial, next-to-last, final = 
     -1152448.96343553  -1152448.96479918  -1152448.96479918
  Force two-norm initial, final = 0.1516289 6.7042002e-05
  Force max component initial, final = 0.062159892 1.3706009e-05
  Final line search alpha, max atom move = 1.0000000 1.3706009e-05
  Iterations, force evaluations = 219 438

MPI task timing breakdown:
Section |  min time  |  avg time  |  max time  |%varavg| %total
---------------------------------------------------------------
Pair    | 0.66694    | 1.8312     | 2.382      |  36.5 | 72.60
Neigh   | 0          | 0          | 0          |   0.0 |  0.00
Comm    | 0.038891   | 0.41282    | 1.2394     |  53.3 | 16.37
Output  | 0          | 0          | 0          |   0.0 |  0.00
Modify  | 2.6783e-05 | 0.0036024  | 0.0077138  |   2.8 |  0.14
Other   |            | 0.2746     |            |       | 10.89

Nlocal:        2776.45 ave        3947 max           0 min
Histogram: 8 4 4 0 4 12 8 0 28 36
Nghost:        3879.16 ave        5423 max         232 min
Histogram: 8 0 8 0 16 0 8 8 16 40
Neighs:        79213.6 ave      114965 max           0 min
Histogram: 8 4 4 0 10 6 8 8 24 32

Total # of neighbors = 8238211
Ave neighs/atom = 28.530502
Neighbor list builds = 0
Dangerous builds = 0
The dot product: 8.69068616611492e-12
Setting up cg style minimization ...
  Unit style    : metal
  Current step  : 25335
Per MPI rank memory allocation (min/avg/max) = 5.441 | 5.816 | 6.074 Mbytes
Step PotEng KinEng TotEng v_fx v_fy v_fz 
   25335     -1152449            0     -1152449    0.1592339 -0.0051833957  -0.09894258 
   25548     -1152449            0     -1152449 2.4332738e-05 3.3907781e-05 4.2044971e-05 
Loop time of 2.43993 on 104 procs for 213 steps with 288751 atoms

99.9% CPU use with 104 MPI tasks x 1 OpenMP threads

Minimization stats:
  Stopping criterion = energy tolerance
  Energy initial, next-to-last, final = 
     -1152448.96479918  -1152448.97218761  -1152448.97218761
  Force two-norm initial, final = 0.18754184 0.0002967324
  Force max component initial, final = 0.1592339 4.2044971e-05
  Final line search alpha, max atom move = 1.0000000 4.2044971e-05
  Iterations, force evaluations = 213 426

MPI task timing breakdown:
Section |  min time  |  avg time  |  max time  |%varavg| %total
---------------------------------------------------------------
Pair    | 0.64867    | 1.7833     | 2.314      |  36.0 | 73.09
Neigh   | 0          | 0          | 0          |   0.0 |  0.00
Comm    | 0.03712    | 0.39808    | 1.2062     |  53.5 | 16.32
Output  | 0          | 0          | 0          |   0.0 |  0.00
Modify  | 2.473e-05  | 0.002283   | 0.0058567  |   3.0 |  0.09
Other   |            | 0.2563     |            |       | 10.50

Nlocal:        2776.45 ave        3947 max           0 min
Histogram: 8 4 4 0 4 12 8 0 28 36
Nghost:        3879.20 ave        5423 max         232 min
Histogram: 8 0 8 0 16 0 8 8 16 40
Neighs:        79213.6 ave      114966 max           0 min
Histogram: 8 4 4 0 10 6 8 8 24 32

Total # of neighbors = 8238216
Ave neighs/atom = 28.530519
Neighbor list builds = 0
Dangerous builds = 0
