LAMMPS (29 Oct 2020)
OMP_NUM_THREADS environment is not set. Defaulting to 1 thread. (../comm.cpp:94)
  using 1 OpenMP thread(s) per MPI task
OMP_NUM_THREADS environment is not set. Defaulting to 1 thread. (../comm.cpp:94)
  using 1 OpenMP thread(s) per MPI task
Reading data file ...
  orthogonal box = (-122.39241 -121.13707 -37.090501) to (122.39241 121.13707 37.090501)
  13 by 4 by 2 MPI processor grid
  reading atoms ...
  288751 atoms
  read_data CPU = 0.367 seconds
199981 atoms in group inner
88770 atoms in group outer
1 atoms in group carbon
Neighbor list info ...
  update every 1 steps, delay 0 steps, check yes
  max neighbors/atom: 2000, page size: 100000
  master list distance cutoff = 5.6
  ghost atom cutoff = 5.6
  binsize = 2.8, bins = 88 87 27
  1 neighbor lists, perpetual/occasional/extra = 1 0 0
  (1) pair eam/alloy, perpetual
      attributes: half, newton on
      pair build: half/bin/atomonly/newton
      stencil: half/bin/3d/newton
      bin: standard
Setting up cg style minimization ...
  Unit style    : metal
  Current step  : 0
Per MPI rank memory allocation (min/avg/max) = 5.441 | 5.816 | 6.074 Mbytes
Step v_fx v_fy v_fz PotEng KinEng TotEng 
       0    25.849123    15.358226   -50.885447   -1152433.2            0   -1152433.2 
     181 -6.7058161e-07 -1.5139637e-06 -2.0234139e-06   -1152449.5            0   -1152449.5 
Loop time of 2.13205 on 104 procs for 181 steps with 288751 atoms

99.8% CPU use with 104 MPI tasks x 1 OpenMP threads

Minimization stats:
  Stopping criterion = energy tolerance
  Energy initial, next-to-last, final = 
     -1152433.16229294  -1152449.45035262  -1152449.45035262
  Force two-norm initial, final = 88.530901 5.0688143e-05
  Force max component initial, final = 58.038534 2.0234139e-06
  Final line search alpha, max atom move = 1.0000000 2.0234139e-06
  Iterations, force evaluations = 181 353

MPI task timing breakdown:
Section |  min time  |  avg time  |  max time  |%varavg| %total
---------------------------------------------------------------
Pair    | 0.56264    | 1.4967     | 1.9449     |  32.5 | 70.20
Neigh   | 5.1698e-05 | 0.014665   | 0.021549   |   5.0 |  0.69
Comm    | 0.035438   | 0.34193    | 0.99998    |  47.4 | 16.04
Output  | 0          | 0          | 0          |   0.0 |  0.00
Modify  | 2.0743e-05 | 0.0019135  | 0.0048618  |   2.7 |  0.09
Other   |            | 0.2768     |            |       | 12.98

Nlocal:        2776.45 ave        3958 max           0 min
Histogram: 8 4 4 0 4 12 8 2 28 34
Nghost:        3879.01 ave        5424 max         232 min
Histogram: 8 0 8 0 16 0 8 8 16 40
Neighs:        79213.5 ave      115370 max           0 min
Histogram: 8 4 4 0 10 6 8 8 24 32

Total # of neighbors = 8238207
Ave neighs/atom = 28.530488
Neighbor list builds = 5
Dangerous builds = 0
Setting atom values ...
  1 settings made for x
  1 settings made for y
  1 settings made for z
Setting up cg style minimization ...
  Unit style    : metal
  Current step  : 181
Per MPI rank memory allocation (min/avg/max) = 5.441 | 5.816 | 6.074 Mbytes
Step PotEng KinEng TotEng v_fx v_fy v_fz 
     181   -1152449.4            0   -1152449.4 -0.00064013112 0.0013174993  0.002610402 
     300   -1152449.5            0   -1152449.5 -2.3125464e-06 -3.2988877e-06 -1.6298466e-05 
Loop time of 1.4209 on 104 procs for 119 steps with 288751 atoms

99.9% CPU use with 104 MPI tasks x 1 OpenMP threads

Minimization stats:
  Stopping criterion = energy tolerance
  Energy initial, next-to-last, final = 
     -1152449.44942739  -1152449.45004196  -1152449.45004196
  Force two-norm initial, final = 0.11512518 0.00015045924
  Force max component initial, final = 0.053219495 1.6298466e-05
  Final line search alpha, max atom move = 1.0000000 1.6298466e-05
  Iterations, force evaluations = 119 238

MPI task timing breakdown:
Section |  min time  |  avg time  |  max time  |%varavg| %total
---------------------------------------------------------------
Pair    | 0.36742    | 1.0122     | 1.3171     |  27.1 | 71.23
Neigh   | 0          | 0          | 0          |   0.0 |  0.00
Comm    | 0.023512   | 0.23155    | 0.68306    |  39.3 | 16.30
Output  | 0          | 0          | 0          |   0.0 |  0.00
Modify  | 1.4129e-05 | 0.0019793  | 0.0047628  |   2.1 |  0.14
Other   |            | 0.1752     |            |       | 12.33

Nlocal:        2776.45 ave        3956 max           0 min
Histogram: 8 4 4 0 4 12 8 0 30 34
Nghost:        3879.01 ave        5424 max         232 min
Histogram: 8 0 8 0 16 0 8 8 16 40
Neighs:        79213.4 ave      115310 max           0 min
Histogram: 8 4 4 0 10 6 8 8 24 32

Total # of neighbors = 8238197
Ave neighs/atom = 28.530454
Neighbor list builds = 0
Dangerous builds = 0
Setting atom values ...
  1 settings made for x
  1 settings made for y
  1 settings made for z
Setting up cg style minimization ...
  Unit style    : metal
  Current step  : 300
Per MPI rank memory allocation (min/avg/max) = 5.441 | 5.816 | 6.074 Mbytes
Step PotEng KinEng TotEng v_fx v_fy v_fz 
     300   -1152449.4            0   -1152449.4 -0.0048933062 0.0043549018 0.0031874389 
     418   -1152449.4            0   -1152449.4 7.2438053e-06  1.83472e-05 8.9199742e-05 
Loop time of 1.39915 on 104 procs for 118 steps with 288751 atoms

99.9% CPU use with 104 MPI tasks x 1 OpenMP threads

Minimization stats:
  Stopping criterion = energy tolerance
  Energy initial, next-to-last, final = 
     -1152449.44646501   -1152449.4481609   -1152449.4481609
  Force two-norm initial, final = 0.19156256 0.0002885579
  Force max component initial, final = 0.088736035 8.9199742e-05
  Final line search alpha, max atom move = 1.0000000 8.9199742e-05
  Iterations, force evaluations = 118 236

MPI task timing breakdown:
Section |  min time  |  avg time  |  max time  |%varavg| %total
---------------------------------------------------------------
Pair    | 0.36025    | 0.99577    | 1.2936     |  27.0 | 71.17
Neigh   | 0          | 0          | 0          |   0.0 |  0.00
Comm    | 0.027289   | 0.22627    | 0.6735     |  39.4 | 16.17
Output  | 0          | 0          | 0          |   0.0 |  0.00
Modify  | 1.461e-05  | 0.0019627  | 0.0041477  |   2.1 |  0.14
Other   |            | 0.1751     |            |       | 12.52

Nlocal:        2776.45 ave        3955 max           0 min
Histogram: 8 4 4 0 4 12 8 0 30 34
Nghost:        3879.01 ave        5424 max         232 min
Histogram: 8 0 8 0 16 0 8 8 16 40
Neighs:        79213.4 ave      115277 max           0 min
Histogram: 8 4 4 0 10 6 8 8 24 32

Total # of neighbors = 8238196
Ave neighs/atom = 28.530450
Neighbor list builds = 0
Dangerous builds = 0
The dot product: -7.59235618423752e-08
Setting atom values ...
  1 settings made for x
  1 settings made for y
  1 settings made for z
Setting up cg style minimization ...
  Unit style    : metal
  Current step  : 418
Per MPI rank memory allocation (min/avg/max) = 5.441 | 5.816 | 6.074 Mbytes
Step PotEng KinEng TotEng v_fx v_fy v_fz 
     418   -1152449.4            0   -1152449.4 -0.011914129 0.0087516774 0.00078701937 
     544   -1152449.4            0   -1152449.4 7.9259207e-06 4.6167404e-06 4.4693816e-05 
Loop time of 1.50299 on 104 procs for 126 steps with 288751 atoms

99.9% CPU use with 104 MPI tasks x 1 OpenMP threads

Minimization stats:
  Stopping criterion = energy tolerance
  Energy initial, next-to-last, final = 
     -1152449.44295183  -1152449.44465854  -1152449.44465854
  Force two-norm initial, final = 0.19229315 0.00022494245
  Force max component initial, final = 0.088292776 5.6940865e-05
  Final line search alpha, max atom move = 1.0000000 5.6940865e-05
  Iterations, force evaluations = 126 252

MPI task timing breakdown:
Section |  min time  |  avg time  |  max time  |%varavg| %total
---------------------------------------------------------------
Pair    | 0.38459    | 1.0698     | 1.4078     |  27.9 | 71.18
Neigh   | 0          | 0          | 0          |   0.0 |  0.00
Comm    | 0.021758   | 0.24499    | 0.72851    |  40.6 | 16.30
Output  | 0          | 0          | 0          |   0.0 |  0.00
Modify  | 1.5105e-05 | 0.0020869  | 0.0044571  |   2.2 |  0.14
Other   |            | 0.1861     |            |       | 12.38

Nlocal:        2776.45 ave        3954 max           0 min
Histogram: 8 4 4 0 4 12 8 0 30 34
Nghost:        3879.01 ave        5424 max         232 min
Histogram: 8 0 8 0 16 0 8 8 16 40
Neighs:        79213.4 ave      115277 max           0 min
Histogram: 8 4 4 0 10 6 8 8 24 32

Total # of neighbors = 8238197
Ave neighs/atom = 28.530454
Neighbor list builds = 0
Dangerous builds = 0
The dot product: -6.09388144955608e-08
Setting atom values ...
  1 settings made for x
  1 settings made for y
  1 settings made for z
Setting up cg style minimization ...
  Unit style    : metal
  Current step  : 544
Per MPI rank memory allocation (min/avg/max) = 5.441 | 5.816 | 6.074 Mbytes
Step PotEng KinEng TotEng v_fx v_fy v_fz 
     544   -1152449.4            0   -1152449.4 -0.017522843  0.013658134 -8.4307278e-06 
     667   -1152449.4            0   -1152449.4 -9.574953e-09 1.8669547e-06 8.942392e-06 
Loop time of 1.44409 on 104 procs for 123 steps with 288751 atoms

99.9% CPU use with 104 MPI tasks x 1 OpenMP threads

Minimization stats:
  Stopping criterion = energy tolerance
  Energy initial, next-to-last, final = 
      -1152449.4380523  -1152449.43977404  -1152449.43977404
  Force two-norm initial, final = 0.19284588 0.00015537651
  Force max component initial, final = 0.087461607 9.9878351e-06
  Final line search alpha, max atom move = 1.0000000 9.9878351e-06
  Iterations, force evaluations = 123 246

MPI task timing breakdown:
Section |  min time  |  avg time  |  max time  |%varavg| %total
---------------------------------------------------------------
Pair    | 0.37649    | 1.0355     | 1.3445     |  27.4 | 71.70
Neigh   | 0          | 0          | 0          |   0.0 |  0.00
Comm    | 0.023364   | 0.23287    | 0.69391    |  40.3 | 16.13
Output  | 0          | 0          | 0          |   0.0 |  0.00
Modify  | 1.5205e-05 | 0.002037   | 0.0043286  |   2.1 |  0.14
Other   |            | 0.1737     |            |       | 12.03

Nlocal:        2776.45 ave        3952 max           0 min
Histogram: 8 4 4 0 4 12 8 0 30 34
Nghost:        3879.01 ave        5424 max         232 min
Histogram: 8 0 8 0 16 0 8 8 16 40
Neighs:        79213.4 ave      115220 max           0 min
Histogram: 8 4 4 0 10 6 8 8 24 32

Total # of neighbors = 8238196
Ave neighs/atom = 28.530450
Neighbor list builds = 0
Dangerous builds = 0
The dot product: -6.76656777358819e-09
Setting atom values ...
  1 settings made for x
  1 settings made for y
  1 settings made for z
Setting up cg style minimization ...
  Unit style    : metal
  Current step  : 667
Per MPI rank memory allocation (min/avg/max) = 5.441 | 5.816 | 6.074 Mbytes
Step PotEng KinEng TotEng v_fx v_fy v_fz 
     667   -1152449.4            0   -1152449.4 -0.018110855  0.016042529   0.00203949 
     797   -1152449.4            0   -1152449.4 -1.6142191e-06 1.3556801e-07 -6.4946878e-06 
Loop time of 1.53032 on 104 procs for 130 steps with 288751 atoms

99.9% CPU use with 104 MPI tasks x 1 OpenMP threads

Minimization stats:
  Stopping criterion = energy tolerance
  Energy initial, next-to-last, final = 
     -1152449.43189556  -1152449.43361218  -1152449.43361218
  Force two-norm initial, final = 0.19222048 0.00011192322
  Force max component initial, final = 0.086332928 1.6886847e-05
  Final line search alpha, max atom move = 1.0000000 1.6886847e-05
  Iterations, force evaluations = 130 260

MPI task timing breakdown:
Section |  min time  |  avg time  |  max time  |%varavg| %total
---------------------------------------------------------------
Pair    | 0.39519    | 1.0988     | 1.4312     |  28.2 | 71.80
Neigh   | 0          | 0          | 0          |   0.0 |  0.00
Comm    | 0.024862   | 0.24603    | 0.73308    |  41.7 | 16.08
Output  | 0          | 0          | 0          |   0.0 |  0.00
Modify  | 1.6157e-05 | 0.0021527  | 0.0045729  |   2.2 |  0.14
Other   |            | 0.1833     |            |       | 11.98

Nlocal:        2776.45 ave        3952 max           0 min
Histogram: 8 4 4 0 4 12 8 0 30 34
Nghost:        3879.01 ave        5424 max         232 min
Histogram: 8 0 8 0 16 0 8 8 16 40
Neighs:        79213.4 ave      115181 max           0 min
Histogram: 8 4 4 0 10 6 8 8 24 32

Total # of neighbors = 8238198
Ave neighs/atom = 28.530457
Neighbor list builds = 0
Dangerous builds = 0
The dot product: 9.48865504410101e-09
Setting atom values ...
  1 settings made for x
  1 settings made for y
  1 settings made for z
Setting up cg style minimization ...
  Unit style    : metal
  Current step  : 797
Per MPI rank memory allocation (min/avg/max) = 5.441 | 5.816 | 6.074 Mbytes
Step PotEng KinEng TotEng v_fx v_fy v_fz 
     797   -1152449.4            0   -1152449.4 -0.015926524  0.015761507 0.0049742103 
     952   -1152449.4            0   -1152449.4 1.4852816e-07 -1.0993051e-06 -5.09509e-06 
Loop time of 1.81218 on 104 procs for 155 steps with 288751 atoms

99.9% CPU use with 104 MPI tasks x 1 OpenMP threads

Minimization stats:
  Stopping criterion = energy tolerance
  Energy initial, next-to-last, final = 
     -1152449.42448848  -1152449.42618225  -1152449.42618225
  Force two-norm initial, final = 0.19086001 0.00010709801
  Force max component initial, final = 0.085762753 5.0950900e-06
  Final line search alpha, max atom move = 1.0000000 5.0950900e-06
  Iterations, force evaluations = 155 310

MPI task timing breakdown:
Section |  min time  |  avg time  |  max time  |%varavg| %total
---------------------------------------------------------------
Pair    | 0.47102    | 1.3026     | 1.6943     |  30.8 | 71.88
Neigh   | 0          | 0          | 0          |   0.0 |  0.00
Comm    | 0.029331   | 0.29324    | 0.876      |  45.3 | 16.18
Output  | 0          | 0          | 0          |   0.0 |  0.00
Modify  | 1.9044e-05 | 0.0025632  | 0.0054528  |   2.4 |  0.14
Other   |            | 0.2138     |            |       | 11.80

Nlocal:        2776.45 ave        3951 max           0 min
Histogram: 8 4 4 0 4 12 8 0 30 34
Nghost:        3879.01 ave        5424 max         232 min
Histogram: 8 0 8 0 16 0 8 8 16 40
Neighs:        79213.4 ave      115181 max           0 min
Histogram: 8 4 4 0 10 6 8 8 24 32

Total # of neighbors = 8238198
Ave neighs/atom = 28.530457
Neighbor list builds = 0
Dangerous builds = 0
The dot product: -1.48654839336616e-09
Setting atom values ...
  1 settings made for x
  1 settings made for y
  1 settings made for z
Setting up cg style minimization ...
  Unit style    : metal
  Current step  : 952
Per MPI rank memory allocation (min/avg/max) = 5.441 | 5.816 | 6.074 Mbytes
Step PotEng KinEng TotEng v_fx v_fy v_fz 
     952   -1152449.4            0   -1152449.4 -0.012782635  0.013902447 0.0078394371 
    1000   -1152449.4            0   -1152449.4 2.9938922e-05 4.5179226e-05 0.00038839785 
    1074   -1152449.4            0   -1152449.4 -4.4812116e-06 -6.6664325e-06 -5.7632892e-05 
Loop time of 1.43786 on 104 procs for 122 steps with 288751 atoms

99.9% CPU use with 104 MPI tasks x 1 OpenMP threads

Minimization stats:
  Stopping criterion = energy tolerance
  Energy initial, next-to-last, final = 
     -1152449.41577526  -1152449.41744804  -1152449.41744804
  Force two-norm initial, final = 0.18934193 0.00016226477
  Force max component initial, final = 0.085996969 5.7632892e-05
  Final line search alpha, max atom move = 1.0000000 5.7632892e-05
  Iterations, force evaluations = 122 244

MPI task timing breakdown:
Section |  min time  |  avg time  |  max time  |%varavg| %total
---------------------------------------------------------------
Pair    | 0.37229    | 1.032      | 1.3471     |  27.4 | 71.77
Neigh   | 0          | 0          | 0          |   0.0 |  0.00
Comm    | 0.025057   | 0.23298    | 0.69237    |  40.2 | 16.20
Output  | 0.00019815 | 0.00020043 | 0.00029825 |   0.0 |  0.01
Modify  | 1.5152e-05 | 0.0020154  | 0.0043106  |   2.1 |  0.14
Other   |            | 0.1707     |            |       | 11.87

Nlocal:        2776.45 ave        3952 max           0 min
Histogram: 8 4 4 0 4 12 8 1 29 34
Nghost:        3879.01 ave        5424 max         232 min
Histogram: 8 0 8 0 16 0 8 8 16 40
Neighs:        79213.5 ave      115213 max           0 min
Histogram: 8 4 4 0 10 6 8 8 24 32

Total # of neighbors = 8238202
Ave neighs/atom = 28.530471
Neighbor list builds = 0
Dangerous builds = 0
The dot product: -3.90660154514231e-08
Setting atom values ...
  1 settings made for x
  1 settings made for y
  1 settings made for z
Setting up cg style minimization ...
  Unit style    : metal
  Current step  : 1074
Per MPI rank memory allocation (min/avg/max) = 5.441 | 5.816 | 6.074 Mbytes
Step PotEng KinEng TotEng v_fx v_fy v_fz 
    1074   -1152449.4            0   -1152449.4 -0.0093216354   0.01124915  0.010257376 
    1183   -1152449.4            0   -1152449.4 -6.0857342e-06 -1.562101e-05 -0.00010830898 
Loop time of 1.26991 on 104 procs for 109 steps with 288751 atoms

99.9% CPU use with 104 MPI tasks x 1 OpenMP threads

Minimization stats:
  Stopping criterion = energy tolerance
  Energy initial, next-to-last, final = 
     -1152449.40572278  -1152449.40739088  -1152449.40739088
  Force two-norm initial, final = 0.18791626 0.00028719578
  Force max component initial, final = 0.086939823 0.00010830898
  Final line search alpha, max atom move = 1.0000000 0.00010830898
  Iterations, force evaluations = 109 218

MPI task timing breakdown:
Section |  min time  |  avg time  |  max time  |%varavg| %total
---------------------------------------------------------------
Pair    | 0.33292    | 0.91754    | 1.1893     |  25.8 | 72.25
Neigh   | 0          | 0          | 0          |   0.0 |  0.00
Comm    | 0.020909   | 0.20523    | 0.61692    |  38.2 | 16.16
Output  | 0          | 0          | 0          |   0.0 |  0.00
Modify  | 1.3457e-05 | 0.0018059  | 0.0038442  |   2.0 |  0.14
Other   |            | 0.1453     |            |       | 11.44

Nlocal:        2776.45 ave        3947 max           0 min
Histogram: 8 4 4 0 4 12 8 1 27 36
Nghost:        3879.01 ave        5424 max         232 min
Histogram: 8 0 8 0 16 0 8 8 16 40
Neighs:        79213.5 ave      115056 max           0 min
Histogram: 8 4 4 0 10 6 8 8 24 32

Total # of neighbors = 8238206
Ave neighs/atom = 28.530485
Neighbor list builds = 0
Dangerous builds = 0
The dot product: -1.655941861417e-07
Setting atom values ...
  1 settings made for x
  1 settings made for y
  1 settings made for z
Setting up cg style minimization ...
  Unit style    : metal
  Current step  : 1183
Per MPI rank memory allocation (min/avg/max) = 5.441 | 5.816 | 6.074 Mbytes
Step PotEng KinEng TotEng v_fx v_fy v_fz 
    1183   -1152449.4            0   -1152449.4 -0.0057048085 0.0083252908  0.012634369 
    1395   -1152449.4            0   -1152449.4 9.9444156e-08 -6.1048926e-08 1.7288036e-07 
Loop time of 2.51327 on 104 procs for 212 steps with 288751 atoms

99.9% CPU use with 104 MPI tasks x 1 OpenMP threads

Minimization stats:
  Stopping criterion = energy tolerance
  Energy initial, next-to-last, final = 
     -1152449.39433792  -1152449.39603239  -1152449.39603239
  Force two-norm initial, final = 0.18663914 3.1909871e-05
  Force max component initial, final = 0.088542392 7.7380499e-07
  Final line search alpha, max atom move = 1.0000000 7.7380499e-07
  Iterations, force evaluations = 212 424

MPI task timing breakdown:
Section |  min time  |  avg time  |  max time  |%varavg| %total
---------------------------------------------------------------
Pair    | 0.65254    | 1.7963     | 2.3482     |  35.9 | 71.47
Neigh   | 0          | 0          | 0          |   0.0 |  0.00
Comm    | 0.038709   | 0.4118     | 1.2251     |  52.8 | 16.39
Output  | 0          | 0          | 0          |   0.0 |  0.00
Modify  | 2.5608e-05 | 0.003499   | 0.007521   |   2.8 |  0.14
Other   |            | 0.3017     |            |       | 12.00

Nlocal:        2776.45 ave        3947 max           0 min
Histogram: 8 4 4 0 4 12 8 2 26 36
Nghost:        3878.99 ave        5424 max         232 min
Histogram: 8 0 8 0 16 0 8 8 16 40
Neighs:        79213.5 ave      115050 max           0 min
Histogram: 8 4 4 0 10 6 8 8 24 32

Total # of neighbors = 8238204
Ave neighs/atom = 28.530478
Neighbor list builds = 0
Dangerous builds = 0
The dot product: 7.12778383183479e-10
Setting atom values ...
  1 settings made for x
  1 settings made for y
  1 settings made for z
Setting up cg style minimization ...
  Unit style    : metal
  Current step  : 1395
Per MPI rank memory allocation (min/avg/max) = 5.441 | 5.816 | 6.074 Mbytes
Step PotEng KinEng TotEng v_fx v_fy v_fz 
    1395   -1152449.4            0   -1152449.4 -0.0013966404 0.0054215132  0.017058676 
    1587   -1152449.4            0   -1152449.4 3.5330848e-06 3.3463092e-06 2.8403207e-05 
Loop time of 2.26397 on 104 procs for 192 steps with 288751 atoms

99.9% CPU use with 104 MPI tasks x 1 OpenMP threads

Minimization stats:
  Stopping criterion = energy tolerance
  Energy initial, next-to-last, final = 
     -1152449.38171236  -1152449.38356135  -1152449.38356135
  Force two-norm initial, final = 0.18538954 8.4371592e-05
  Force max component initial, final = 0.090703381 2.8403207e-05
  Final line search alpha, max atom move = 1.0000000 2.8403207e-05
  Iterations, force evaluations = 192 384

MPI task timing breakdown:
Section |  min time  |  avg time  |  max time  |%varavg| %total
---------------------------------------------------------------
Pair    | 0.59168    | 1.6209     | 2.1005     |  34.2 | 71.60
Neigh   | 0          | 0          | 0          |   0.0 |  0.00
Comm    | 0.03572    | 0.36627    | 1.0891     |  50.4 | 16.18
Output  | 0          | 0          | 0          |   0.0 |  0.00
Modify  | 2.297e-05  | 0.0031715  | 0.0067515  |   2.7 |  0.14
Other   |            | 0.2736     |            |       | 12.09

Nlocal:        2776.45 ave        3947 max           0 min
Histogram: 8 4 4 0 4 12 8 2 26 36
Nghost:        3879.03 ave        5424 max         232 min
Histogram: 8 0 8 0 16 0 8 8 16 40
Neighs:        79213.5 ave      115048 max           0 min
Histogram: 8 4 4 0 10 6 8 8 24 32

Total # of neighbors = 8238203
Ave neighs/atom = 28.530474
Neighbor list builds = 0
Dangerous builds = 0
The dot product: 1.88170820188502e-07
Setting atom values ...
  1 settings made for x
  1 settings made for y
  1 settings made for z
Setting up cg style minimization ...
  Unit style    : metal
  Current step  : 1587
Per MPI rank memory allocation (min/avg/max) = 5.441 | 5.816 | 6.074 Mbytes
Step PotEng KinEng TotEng v_fx v_fy v_fz 
    1587   -1152449.4            0   -1152449.4 0.0044555576 0.0030070261  0.025428895 
    1768   -1152449.4            0   -1152449.4 -7.4234697e-06 -8.2212578e-06 -5.3713636e-05 
Loop time of 2.12568 on 104 procs for 181 steps with 288751 atoms

99.9% CPU use with 104 MPI tasks x 1 OpenMP threads

Minimization stats:
  Stopping criterion = energy tolerance
  Energy initial, next-to-last, final = 
     -1152449.36816031  -1152449.37002514  -1152449.37002514
  Force two-norm initial, final = 0.18428624 0.00016633771
  Force max component initial, final = 0.093918451 5.3713636e-05
  Final line search alpha, max atom move = 1.0000000 5.3713636e-05
  Iterations, force evaluations = 181 362

MPI task timing breakdown:
Section |  min time  |  avg time  |  max time  |%varavg| %total
---------------------------------------------------------------
Pair    | 0.5494     | 1.5301     | 1.9917     |  33.4 | 71.98
Neigh   | 0          | 0          | 0          |   0.0 |  0.00
Comm    | 0.035502   | 0.34727    | 1.0336     |  49.0 | 16.34
Output  | 0          | 0          | 0          |   0.0 |  0.00
Modify  | 2.2311e-05 | 0.002992   | 0.0064059  |   2.6 |  0.14
Other   |            | 0.2454     |            |       | 11.54

Nlocal:        2776.45 ave        3946 max           0 min
Histogram: 8 4 4 0 4 12 8 2 26 36
Nghost:        3879.03 ave        5424 max         232 min
Histogram: 8 0 8 0 16 0 8 8 16 40
Neighs:        79213.5 ave      115012 max           0 min
Histogram: 8 4 4 0 10 6 8 8 24 32

Total # of neighbors = 8238205
Ave neighs/atom = 28.530481
Neighbor list builds = 0
Dangerous builds = 0
The dot product: -4.6073826526117e-07
Setting atom values ...
  1 settings made for x
  1 settings made for y
  1 settings made for z
Setting up cg style minimization ...
  Unit style    : metal
  Current step  : 1768
Per MPI rank memory allocation (min/avg/max) = 5.441 | 5.816 | 6.074 Mbytes
Step PotEng KinEng TotEng v_fx v_fy v_fz 
    1768   -1152449.4            0   -1152449.4 0.0080393655 0.0019886673  0.027745185 
    1936   -1152449.4            0   -1152449.4 1.0446972e-06 2.2755086e-06 9.6353596e-06 
Loop time of 1.97837 on 104 procs for 168 steps with 288751 atoms

99.9% CPU use with 104 MPI tasks x 1 OpenMP threads

Minimization stats:
  Stopping criterion = energy tolerance
  Energy initial, next-to-last, final = 
     -1152449.35354693  -1152449.35549466  -1152449.35549466
  Force two-norm initial, final = 0.18289621 0.00024484877
  Force max component initial, final = 0.097936834 2.8888622e-05
  Final line search alpha, max atom move = 1.0000000 2.8888622e-05
  Iterations, force evaluations = 168 336

MPI task timing breakdown:
Section |  min time  |  avg time  |  max time  |%varavg| %total
---------------------------------------------------------------
Pair    | 0.51218    | 1.4112     | 1.8314     |  32.0 | 71.33
Neigh   | 0          | 0          | 0          |   0.0 |  0.00
Comm    | 0.03255    | 0.31918    | 0.95115    |  46.9 | 16.13
Output  | 0          | 0          | 0          |   0.0 |  0.00
Modify  | 2.0049e-05 | 0.0027875  | 0.0058962  |   2.5 |  0.14
Other   |            | 0.2452     |            |       | 12.39

Nlocal:        2776.45 ave        3946 max           0 min
Histogram: 8 4 4 0 4 12 8 2 26 36
Nghost:        3879.05 ave        5424 max         232 min
Histogram: 8 0 8 0 16 0 8 8 16 40
Neighs:        79213.5 ave      115011 max           0 min
Histogram: 8 4 4 0 10 6 8 8 24 32

Total # of neighbors = 8238203
Ave neighs/atom = 28.530474
Neighbor list builds = 0
Dangerous builds = 0
The dot product: 8.97711045067177e-08
Setting atom values ...
  1 settings made for x
  1 settings made for y
  1 settings made for z
Setting up cg style minimization ...
  Unit style    : metal
  Current step  : 1936
Per MPI rank memory allocation (min/avg/max) = 5.441 | 5.816 | 6.074 Mbytes
Step PotEng KinEng TotEng v_fx v_fy v_fz 
    1936   -1152449.3            0   -1152449.3 0.0098004509 0.0018004735  0.026849951 
    2000   -1152449.3            0   -1152449.3 5.1808795e-05 7.190237e-05 0.00030341041 
    2115   -1152449.3            0   -1152449.3 -5.4890253e-06 -6.316321e-06 -2.8776744e-05 
Loop time of 2.10208 on 104 procs for 179 steps with 288751 atoms

99.9% CPU use with 104 MPI tasks x 1 OpenMP threads

Minimization stats:
  Stopping criterion = energy tolerance
  Energy initial, next-to-last, final = 
     -1152449.33793898  -1152449.33977974  -1152449.33977974
  Force two-norm initial, final = 0.18115372 0.00018700401
  Force max component initial, final = 0.10196193 3.1507985e-05
  Final line search alpha, max atom move = 1.0000000 3.1507985e-05
  Iterations, force evaluations = 179 358

MPI task timing breakdown:
Section |  min time  |  avg time  |  max time  |%varavg| %total
---------------------------------------------------------------
Pair    | 0.54227    | 1.5095     | 1.9697     |  33.1 | 71.81
Neigh   | 0          | 0          | 0          |   0.0 |  0.00
Comm    | 0.032607   | 0.33989    | 1.0191     |  48.9 | 16.17
Output  | 0.00024091 | 0.00024944 | 0.00035766 |   0.0 |  0.01
Modify  | 2.2109e-05 | 0.0029532  | 0.0063031  |   2.6 |  0.14
Other   |            | 0.2495     |            |       | 11.87

Nlocal:        2776.45 ave        3945 max           0 min
Histogram: 8 4 4 0 4 12 8 2 26 36
Nghost:        3879.07 ave        5424 max         232 min
Histogram: 8 0 8 0 16 0 8 8 16 40
Neighs:        79213.5 ave      114973 max           0 min
Histogram: 8 4 4 0 10 6 8 8 24 32

Total # of neighbors = 8238207
Ave neighs/atom = 28.530488
Neighbor list builds = 0
Dangerous builds = 0
The dot product: -2.53722309070273e-07
Setting atom values ...
  1 settings made for x
  1 settings made for y
  1 settings made for z
Setting up cg style minimization ...
  Unit style    : metal
  Current step  : 2115
Per MPI rank memory allocation (min/avg/max) = 5.441 | 5.816 | 6.074 Mbytes
Step PotEng KinEng TotEng v_fx v_fy v_fz 
    2115   -1152449.3            0   -1152449.3 0.0085522537 0.0017920157  0.021070384 
    2320   -1152449.3            0   -1152449.3 -2.2096417e-07 -4.9977197e-07 -1.6005092e-06 
Loop time of 2.36718 on 104 procs for 205 steps with 288751 atoms

99.9% CPU use with 104 MPI tasks x 1 OpenMP threads

Minimization stats:
  Stopping criterion = energy tolerance
  Energy initial, next-to-last, final = 
     -1152449.32099231  -1152449.32276638  -1152449.32276638
  Force two-norm initial, final = 0.17905109 8.5212651e-05
  Force max component initial, final = 0.10573227 7.7018624e-06
  Final line search alpha, max atom move = 1.0000000 7.7018624e-06
  Iterations, force evaluations = 205 410

MPI task timing breakdown:
Section |  min time  |  avg time  |  max time  |%varavg| %total
---------------------------------------------------------------
Pair    | 0.62594    | 1.7202     | 2.2296     |  35.3 | 72.67
Neigh   | 0          | 0          | 0          |   0.0 |  0.00
Comm    | 0.038144   | 0.3828     | 1.1531     |  52.6 | 16.17
Output  | 0          | 0          | 0          |   0.0 |  0.00
Modify  | 2.4847e-05 | 0.0033753  | 0.0071788  |   2.7 |  0.14
Other   |            | 0.2608     |            |       | 11.02

Nlocal:        2776.45 ave        3944 max           0 min
Histogram: 8 4 4 0 4 12 8 2 26 36
Nghost:        3879.07 ave        5424 max         232 min
Histogram: 8 0 8 0 16 0 8 8 16 40
Neighs:        79213.6 ave      114930 max           0 min
Histogram: 8 4 4 0 10 6 8 8 22 34

Total # of neighbors = 8238210
Ave neighs/atom = 28.530499
Neighbor list builds = 0
Dangerous builds = 0
The dot product: -1.22686535631527e-08
Setting atom values ...
  1 settings made for x
  1 settings made for y
  1 settings made for z
Setting up cg style minimization ...
  Unit style    : metal
  Current step  : 2320
Per MPI rank memory allocation (min/avg/max) = 5.441 | 5.816 | 6.074 Mbytes
Step PotEng KinEng TotEng v_fx v_fy v_fz 
    2320   -1152449.3            0   -1152449.3 0.0068375822 0.0018995918  0.016248827 
    2521   -1152449.3            0   -1152449.3 7.557752e-07 5.6536924e-06 1.3497347e-05 
Loop time of 2.38014 on 104 procs for 201 steps with 288751 atoms

99.9% CPU use with 104 MPI tasks x 1 OpenMP threads

Minimization stats:
  Stopping criterion = energy tolerance
  Energy initial, next-to-last, final = 
     -1152449.30269909  -1152449.30445005  -1152449.30445005
  Force two-norm initial, final = 0.17736396 9.8231219e-05
  Force max component initial, final = 0.10895037 1.3497347e-05
  Final line search alpha, max atom move = 1.0000000 1.3497347e-05
  Iterations, force evaluations = 201 402

MPI task timing breakdown:
Section |  min time  |  avg time  |  max time  |%varavg| %total
---------------------------------------------------------------
Pair    | 0.60596    | 1.694      | 2.2135     |  35.2 | 71.17
Neigh   | 0          | 0          | 0          |   0.0 |  0.00
Comm    | 0.038708   | 0.38245    | 1.1362     |  51.6 | 16.07
Output  | 0          | 0          | 0          |   0.0 |  0.00
Modify  | 2.4078e-05 | 0.0033209  | 0.0071012  |   2.7 |  0.14
Other   |            | 0.3004     |            |       | 12.62

Nlocal:        2776.45 ave        3943 max           0 min
Histogram: 8 4 4 0 4 12 8 2 26 36
Nghost:        3879.07 ave        5424 max         232 min
Histogram: 8 0 8 0 16 0 8 8 16 40
Neighs:        79213.6 ave      114894 max           0 min
Histogram: 8 4 4 0 10 6 8 8 22 34

Total # of neighbors = 8238211
Ave neighs/atom = 28.530502
Neighbor list builds = 0
Dangerous builds = 0
The dot product: 9.58329749666401e-08
Setting atom values ...
  1 settings made for x
  1 settings made for y
  1 settings made for z
Setting up cg style minimization ...
  Unit style    : metal
  Current step  : 2521
Per MPI rank memory allocation (min/avg/max) = 5.441 | 5.816 | 6.074 Mbytes
Step PotEng KinEng TotEng v_fx v_fy v_fz 
    2521   -1152449.3            0   -1152449.3 0.0060146239 0.0020908062  0.014004747 
    2705   -1152449.3            0   -1152449.3 4.1318159e-06 1.0652737e-05 2.8138049e-05 
Loop time of 2.14081 on 104 procs for 184 steps with 288751 atoms

99.9% CPU use with 104 MPI tasks x 1 OpenMP threads

Minimization stats:
  Stopping criterion = energy tolerance
  Energy initial, next-to-last, final = 
     -1152449.28312129  -1152449.28490656  -1152449.28490656
  Force two-norm initial, final = 0.17604865 0.0001604356
  Force max component initial, final = 0.11174109 3.0032803e-05
  Final line search alpha, max atom move = 1.0000000 3.0032803e-05
  Iterations, force evaluations = 184 368

MPI task timing breakdown:
Section |  min time  |  avg time  |  max time  |%varavg| %total
---------------------------------------------------------------
Pair    | 0.56215    | 1.545      | 2.0039     |  33.5 | 72.17
Neigh   | 0          | 0          | 0          |   0.0 |  0.00
Comm    | 0.034343   | 0.34577    | 1.0352     |  49.4 | 16.15
Output  | 0          | 0          | 0          |   0.0 |  0.00
Modify  | 2.2383e-05 | 0.0030376  | 0.0064796  |   2.6 |  0.14
Other   |            | 0.247      |            |       | 11.54

Nlocal:        2776.45 ave        3942 max           0 min
Histogram: 8 4 4 0 4 12 8 2 26 36
Nghost:        3879.09 ave        5424 max         232 min
Histogram: 8 0 8 0 16 0 8 8 16 40
Neighs:        79213.6 ave      114864 max           0 min
Histogram: 8 4 4 0 10 6 8 8 22 34

Total # of neighbors = 8238215
Ave neighs/atom = 28.530516
Neighbor list builds = 0
Dangerous builds = 0
The dot product: 2.25381583520958e-07
Setting atom values ...
  1 settings made for x
  1 settings made for y
  1 settings made for z
Setting up cg style minimization ...
  Unit style    : metal
  Current step  : 2705
Per MPI rank memory allocation (min/avg/max) = 5.441 | 5.816 | 6.074 Mbytes
Step PotEng KinEng TotEng v_fx v_fy v_fz 
    2705   -1152449.3            0   -1152449.3 0.0065286292  0.002560022  0.014620904 
    2873   -1152449.3            0   -1152449.3 2.629513e-06 -2.7748076e-06 -1.2783068e-06 
Loop time of 1.97428 on 104 procs for 168 steps with 288751 atoms

99.9% CPU use with 104 MPI tasks x 1 OpenMP threads

Minimization stats:
  Stopping criterion = energy tolerance
  Energy initial, next-to-last, final = 
     -1152449.26239831  -1152449.26417773  -1152449.26417773
  Force two-norm initial, final = 0.17497477 0.00024596008
  Force max component initial, final = 0.11428384 3.2801483e-05
  Final line search alpha, max atom move = 1.0000000 3.2801483e-05
  Iterations, force evaluations = 168 336

MPI task timing breakdown:
Section |  min time  |  avg time  |  max time  |%varavg| %total
---------------------------------------------------------------
Pair    | 0.50903    | 1.421      | 1.8558     |  32.2 | 71.98
Neigh   | 0          | 0          | 0          |   0.0 |  0.00
Comm    | 0.029271   | 0.32331    | 0.96245    |  47.2 | 16.38
Output  | 0          | 0          | 0          |   0.0 |  0.00
Modify  | 1.9905e-05 | 0.0027775  | 0.0058904  |   2.5 |  0.14
Other   |            | 0.2272     |            |       | 11.51

Nlocal:        2776.45 ave        3940 max           0 min
Histogram: 8 4 4 0 4 12 8 2 26 36
Nghost:        3879.12 ave        5424 max         232 min
Histogram: 8 0 8 0 16 0 8 8 16 40
Neighs:        79213.6 ave      114813 max           0 min
Histogram: 8 4 4 0 10 6 8 8 22 34

Total # of neighbors = 8238215
Ave neighs/atom = 28.530516
Neighbor list builds = 0
Dangerous builds = 0
The dot product: -2.1646351117914e-09
Setting atom values ...
  1 settings made for x
  1 settings made for y
  1 settings made for z
Setting up cg style minimization ...
  Unit style    : metal
  Current step  : 2873
Per MPI rank memory allocation (min/avg/max) = 5.441 | 5.816 | 6.074 Mbytes
Step PotEng KinEng TotEng v_fx v_fy v_fz 
    2873   -1152449.2            0   -1152449.2 0.0073987957 0.0027216989  0.015105735 
    3000   -1152449.2            0   -1152449.2 -3.7243364e-05 -7.2853812e-05 -0.00018085587 
    3119   -1152449.2            0   -1152449.2 -5.7272773e-07 -1.4353943e-06 -3.3394551e-06 
Loop time of 2.86081 on 104 procs for 246 steps with 288751 atoms

99.9% CPU use with 104 MPI tasks x 1 OpenMP threads

Minimization stats:
  Stopping criterion = energy tolerance
  Energy initial, next-to-last, final = 
     -1152449.24047783  -1152449.24228251  -1152449.24228251
  Force two-norm initial, final = 0.17415573 1.6536123e-05
  Force max component initial, final = 0.11694153 3.3394551e-06
  Final line search alpha, max atom move = 1.0000000 3.3394551e-06
  Iterations, force evaluations = 246 492

MPI task timing breakdown:
Section |  min time  |  avg time  |  max time  |%varavg| %total
---------------------------------------------------------------
Pair    | 0.74334    | 2.0671     | 2.6844     |  38.9 | 72.26
Neigh   | 0          | 0          | 0          |   0.0 |  0.00
Comm    | 0.043993   | 0.46608    | 1.3967     |  57.5 | 16.29
Output  | 0.00023991 | 0.00025158 | 0.00038496 |   0.0 |  0.01
Modify  | 2.9592e-05 | 0.0040556  | 0.0086902  |   3.0 |  0.14
Other   |            | 0.3233     |            |       | 11.30

Nlocal:        2776.45 ave        3940 max           0 min
Histogram: 8 4 4 0 4 12 8 2 26 36
Nghost:        3879.12 ave        5424 max         232 min
Histogram: 8 0 8 0 16 0 8 8 16 40
Neighs:        79213.6 ave      114812 max           0 min
Histogram: 8 4 4 0 10 6 8 8 22 34

Total # of neighbors = 8238215
Ave neighs/atom = 28.530516
Neighbor list builds = 0
Dangerous builds = 0
The dot product: -3.19038985983803e-08
Setting atom values ...
  1 settings made for x
  1 settings made for y
  1 settings made for z
Setting up cg style minimization ...
  Unit style    : metal
  Current step  : 3119
Per MPI rank memory allocation (min/avg/max) = 5.441 | 5.816 | 6.074 Mbytes
Step PotEng KinEng TotEng v_fx v_fy v_fz 
    3119   -1152449.2            0   -1152449.2 0.0099669832  0.002894531  0.017637637 
    3303   -1152449.2            0   -1152449.2 -5.0863881e-07 -9.5523704e-06 -1.657894e-05 
Loop time of 2.16578 on 104 procs for 184 steps with 288751 atoms

99.9% CPU use with 104 MPI tasks x 1 OpenMP threads

Minimization stats:
  Stopping criterion = energy tolerance
  Energy initial, next-to-last, final = 
     -1152449.21746108  -1152449.21944768  -1152449.21944768
  Force two-norm initial, final = 0.17367874 0.0001671112
  Force max component initial, final = 0.11948444 3.1063007e-05
  Final line search alpha, max atom move = 1.0000000 3.1063007e-05
  Iterations, force evaluations = 184 368

MPI task timing breakdown:
Section |  min time  |  avg time  |  max time  |%varavg| %total
---------------------------------------------------------------
Pair    | 0.55856    | 1.556      | 2.0351     |  33.6 | 71.84
Neigh   | 0          | 0          | 0          |   0.0 |  0.00
Comm    | 0.032182   | 0.3556     | 1.0596     |  49.4 | 16.42
Output  | 0          | 0          | 0          |   0.0 |  0.00
Modify  | 2.2326e-05 | 0.0030453  | 0.0065026  |   2.6 |  0.14
Other   |            | 0.2512     |            |       | 11.60

Nlocal:        2776.45 ave        3939 max           0 min
Histogram: 8 4 4 0 4 12 8 2 26 36
Nghost:        3879.11 ave        5424 max         232 min
Histogram: 8 0 8 0 16 0 8 8 16 40
Neighs:        79213.6 ave      114788 max           0 min
Histogram: 8 4 4 0 10 6 8 8 22 34

Total # of neighbors = 8238212
Ave neighs/atom = 28.530506
Neighbor list builds = 0
Dangerous builds = 0
The dot product: -1.97697082214097e-07
Setting atom values ...
  1 settings made for x
  1 settings made for y
  1 settings made for z
Setting up cg style minimization ...
  Unit style    : metal
  Current step  : 3303
Per MPI rank memory allocation (min/avg/max) = 5.441 | 5.816 | 6.074 Mbytes
Step PotEng KinEng TotEng v_fx v_fy v_fz 
    3303   -1152449.2            0   -1152449.2   0.01643936 0.0036456541  0.024870066 
    3519   -1152449.2            0   -1152449.2 7.0194851e-07 -2.2567907e-06 -2.6831451e-06 
Loop time of 2.49859 on 104 procs for 216 steps with 288751 atoms

99.9% CPU use with 104 MPI tasks x 1 OpenMP threads

Minimization stats:
  Stopping criterion = energy tolerance
  Energy initial, next-to-last, final = 
      -1152449.1938163  -1152449.19600006  -1152449.19600006
  Force two-norm initial, final = 0.17403369 6.8882550e-05
  Force max component initial, final = 0.12198678 1.0826532e-05
  Final line search alpha, max atom move = 1.0000000 1.0826532e-05
  Iterations, force evaluations = 216 432

MPI task timing breakdown:
Section |  min time  |  avg time  |  max time  |%varavg| %total
---------------------------------------------------------------
Pair    | 0.65405    | 1.8179     | 2.3508     |  36.5 | 72.76
Neigh   | 0          | 0          | 0          |   0.0 |  0.00
Comm    | 0.039353   | 0.4064     | 1.2293     |  54.3 | 16.27
Output  | 0          | 0          | 0          |   0.0 |  0.00
Modify  | 2.5961e-05 | 0.0035657  | 0.0076468  |   2.8 |  0.14
Other   |            | 0.2707     |            |       | 10.84

Nlocal:        2776.45 ave        3940 max           0 min
Histogram: 8 4 4 0 4 12 8 2 26 36
Nghost:        3879.09 ave        5424 max         232 min
Histogram: 8 0 8 0 16 0 8 8 16 40
Neighs:        79213.6 ave      114811 max           0 min
Histogram: 8 4 4 0 10 6 8 8 22 34

Total # of neighbors = 8238212
Ave neighs/atom = 28.530506
Neighbor list builds = 0
Dangerous builds = 0
The dot product: -3.39036256244722e-08
Setting atom values ...
  1 settings made for x
  1 settings made for y
  1 settings made for z
Setting up cg style minimization ...
  Unit style    : metal
  Current step  : 3519
Per MPI rank memory allocation (min/avg/max) = 5.441 | 5.816 | 6.074 Mbytes
Step PotEng KinEng TotEng v_fx v_fy v_fz 
    3519   -1152449.2            0   -1152449.2  0.021980067 0.0047393004  0.029876125 
    3686   -1152449.2            0   -1152449.2 8.7161302e-07 -8.9643261e-06 -1.1971518e-05 
Loop time of 1.93746 on 104 procs for 167 steps with 288751 atoms

99.9% CPU use with 104 MPI tasks x 1 OpenMP threads

Minimization stats:
  Stopping criterion = energy tolerance
  Energy initial, next-to-last, final = 
     -1152449.16971586  -1152449.17184698  -1152449.17184698
  Force two-norm initial, final = 0.17453837 0.00021452318
  Force max component initial, final = 0.12451 3.3075739e-05
  Final line search alpha, max atom move = 1.0000000 3.3075739e-05
  Iterations, force evaluations = 167 334

MPI task timing breakdown:
Section |  min time  |  avg time  |  max time  |%varavg| %total
---------------------------------------------------------------
Pair    | 0.5042     | 1.4044     | 1.8246     |  31.9 | 72.48
Neigh   | 0          | 0          | 0          |   0.0 |  0.00
Comm    | 0.029504   | 0.31352    | 0.94362    |  47.4 | 16.18
Output  | 0          | 0          | 0          |   0.0 |  0.00
Modify  | 2.0675e-05 | 0.0027544  | 0.0059274  |   2.5 |  0.14
Other   |            | 0.2168     |            |       | 11.19

Nlocal:        2776.45 ave        3940 max           0 min
Histogram: 8 4 4 0 4 12 8 2 26 36
Nghost:        3879.14 ave        5425 max         232 min
Histogram: 8 0 8 0 16 0 8 8 16 40
Neighs:        79213.6 ave      114812 max           0 min
Histogram: 8 4 4 0 10 6 8 8 22 34

Total # of neighbors = 8238216
Ave neighs/atom = 28.530519
Neighbor list builds = 0
Dangerous builds = 0
The dot product: -1.63761155947906e-07
Setting atom values ...
  1 settings made for x
  1 settings made for y
  1 settings made for z
Setting up cg style minimization ...
  Unit style    : metal
  Current step  : 3686
Per MPI rank memory allocation (min/avg/max) = 5.441 | 5.816 | 6.074 Mbytes
Step PotEng KinEng TotEng v_fx v_fy v_fz 
    3686   -1152449.1            0   -1152449.1  0.022275144 0.0046867727  0.027462072 
    3939   -1152449.1            0   -1152449.1 -3.9926601e-07 -1.7676538e-06 -2.7533703e-06 
Loop time of 2.92949 on 104 procs for 253 steps with 288751 atoms

99.9% CPU use with 104 MPI tasks x 1 OpenMP threads

Minimization stats:
  Stopping criterion = energy tolerance
  Energy initial, next-to-last, final = 
     -1152449.14469207  -1152449.14670245  -1152449.14670245
  Force two-norm initial, final = 0.17404457 1.0452591e-05
  Force max component initial, final = 0.12743253 2.7533703e-06
  Final line search alpha, max atom move = 1.0000000 2.7533703e-06
  Iterations, force evaluations = 253 506

MPI task timing breakdown:
Section |  min time  |  avg time  |  max time  |%varavg| %total
---------------------------------------------------------------
Pair    | 0.76961    | 2.1226     | 2.7508     |  39.3 | 72.46
Neigh   | 0          | 0          | 0          |   0.0 |  0.00
Comm    | 0.050081   | 0.4748     | 1.434      |  58.4 | 16.21
Output  | 0          | 0          | 0          |   0.0 |  0.00
Modify  | 3.0411e-05 | 0.0041653  | 0.0088806  |   3.0 |  0.14
Other   |            | 0.3279     |            |       | 11.19

Nlocal:        2776.45 ave        3941 max           0 min
Histogram: 8 4 4 0 4 12 8 2 26 36
Nghost:        3879.12 ave        5425 max         232 min
Histogram: 8 0 8 0 16 0 8 8 16 40
Neighs:        79213.6 ave      114829 max           0 min
Histogram: 8 4 4 0 10 6 8 8 22 34

Total # of neighbors = 8238215
Ave neighs/atom = 28.530516
Neighbor list builds = 0
Dangerous builds = 0
The dot product: -3.84630005556686e-08
Setting atom values ...
  1 settings made for x
  1 settings made for y
  1 settings made for z
Setting up cg style minimization ...
  Unit style    : metal
  Current step  : 3939
Per MPI rank memory allocation (min/avg/max) = 5.441 | 5.816 | 6.074 Mbytes
Step PotEng KinEng TotEng v_fx v_fy v_fz 
    3939   -1152449.1            0   -1152449.1  0.019790446   0.00439923  0.022862952 
    4000   -1152449.1            0   -1152449.1 1.1191176e-05 8.9952719e-05 0.00012387533 
    4126   -1152449.1            0   -1152449.1 2.5644148e-06 6.5747823e-06 1.057937e-05 
Loop time of 2.17115 on 104 procs for 187 steps with 288751 atoms

99.9% CPU use with 104 MPI tasks x 1 OpenMP threads

Minimization stats:
  Stopping criterion = energy tolerance
  Energy initial, next-to-last, final = 
     -1152449.11855483  -1152449.12038954  -1152449.12038954
  Force two-norm initial, final = 0.17336283 0.00011859852
  Force max component initial, final = 0.13022132 1.4014409e-05
  Final line search alpha, max atom move = 1.0000000 1.4014409e-05
  Iterations, force evaluations = 187 374

MPI task timing breakdown:
Section |  min time  |  avg time  |  max time  |%varavg| %total
---------------------------------------------------------------
Pair    | 0.56619    | 1.5756     | 2.0458     |  33.8 | 72.57
Neigh   | 0          | 0          | 0          |   0.0 |  0.00
Comm    | 0.036303   | 0.35056    | 1.0533     |  50.3 | 16.15
Output  | 0.0001514  | 0.00015635 | 0.00026368 |   0.0 |  0.01
Modify  | 2.272e-05  | 0.0030887  | 0.006607   |   2.6 |  0.14
Other   |            | 0.2418     |            |       | 11.14

Nlocal:        2776.45 ave        3941 max           0 min
Histogram: 8 4 4 0 4 12 8 2 26 36
Nghost:        3879.12 ave        5425 max         232 min
Histogram: 8 0 8 0 16 0 8 8 16 40
Neighs:        79213.6 ave      114826 max           0 min
Histogram: 8 4 4 0 10 6 8 8 22 34

Total # of neighbors = 8238212
Ave neighs/atom = 28.530506
Neighbor list builds = 0
Dangerous builds = 0
The dot product: 1.31994428840714e-07
Setting atom values ...
  1 settings made for x
  1 settings made for y
  1 settings made for z
Setting up cg style minimization ...
  Unit style    : metal
  Current step  : 4126
Per MPI rank memory allocation (min/avg/max) = 5.441 | 5.816 | 6.074 Mbytes
Step PotEng KinEng TotEng v_fx v_fy v_fz 
    4126   -1152449.1            0   -1152449.1  0.015619265 0.0034536768  0.016943919 
    4325   -1152449.1            0   -1152449.1 3.8289629e-06 1.4481271e-05 2.0683559e-05 
Loop time of 2.30964 on 104 procs for 199 steps with 288751 atoms

99.9% CPU use with 104 MPI tasks x 1 OpenMP threads

Minimization stats:
  Stopping criterion = energy tolerance
  Energy initial, next-to-last, final = 
     -1152449.09108896  -1152449.09280348  -1152449.09280348
  Force two-norm initial, final = 0.17300136 9.7338105e-05
  Force max component initial, final = 0.13299013 2.0683559e-05
  Final line search alpha, max atom move = 1.0000000 2.0683559e-05
  Iterations, force evaluations = 199 398

MPI task timing breakdown:
Section |  min time  |  avg time  |  max time  |%varavg| %total
---------------------------------------------------------------
Pair    | 0.60429    | 1.6706     | 2.1676     |  34.8 | 72.33
Neigh   | 0          | 0          | 0          |   0.0 |  0.00
Comm    | 0.039091   | 0.37325    | 1.1194     |  51.6 | 16.16
Output  | 0          | 0          | 0          |   0.0 |  0.00
Modify  | 2.4129e-05 | 0.0032886  | 0.0069821  |   2.7 |  0.14
Other   |            | 0.2625     |            |       | 11.36

Nlocal:        2776.45 ave        3941 max           0 min
Histogram: 8 4 4 0 4 12 8 2 26 36
Nghost:        3879.12 ave        5425 max         232 min
Histogram: 8 0 8 0 16 0 8 8 16 40
Neighs:        79213.6 ave      114827 max           0 min
Histogram: 8 4 4 0 10 6 8 8 22 34

Total # of neighbors = 8238212
Ave neighs/atom = 28.530506
Neighbor list builds = 0
Dangerous builds = 0
The dot product: 2.14280119223508e-07
Setting atom values ...
  1 settings made for x
  1 settings made for y
  1 settings made for z
Setting up cg style minimization ...
  Unit style    : metal
  Current step  : 4325
Per MPI rank memory allocation (min/avg/max) = 5.441 | 5.816 | 6.074 Mbytes
Step PotEng KinEng TotEng v_fx v_fy v_fz 
    4325   -1152449.1            0   -1152449.1  0.011149274 0.0026151827  0.011708404 
    4535   -1152449.1            0   -1152449.1 -4.1776067e-06 -9.0994768e-06 -1.3882685e-05 
Loop time of 2.47155 on 104 procs for 210 steps with 288751 atoms

99.9% CPU use with 104 MPI tasks x 1 OpenMP threads

Minimization stats:
  Stopping criterion = energy tolerance
  Energy initial, next-to-last, final = 
     -1152449.06228955  -1152449.06393559  -1152449.06393559
  Force two-norm initial, final = 0.1731807 6.8791315e-05
  Force max component initial, final = 0.13555612 1.7118985e-05
  Final line search alpha, max atom move = 1.0000000 1.7118985e-05
  Iterations, force evaluations = 210 420

MPI task timing breakdown:
Section |  min time  |  avg time  |  max time  |%varavg| %total
---------------------------------------------------------------
Pair    | 0.63432    | 1.7779     | 2.3264     |  36.1 | 71.93
Neigh   | 0          | 0          | 0          |   0.0 |  0.00
Comm    | 0.037859   | 0.40313    | 1.2049     |  53.0 | 16.31
Output  | 0          | 0          | 0          |   0.0 |  0.00
Modify  | 2.4732e-05 | 0.003464   | 0.0074199  |   2.8 |  0.14
Other   |            | 0.2871     |            |       | 11.61

Nlocal:        2776.45 ave        3940 max           0 min
Histogram: 8 4 4 0 4 12 8 2 26 36
Nghost:        3879.12 ave        5425 max         232 min
Histogram: 8 0 8 0 16 0 8 8 16 40
Neighs:        79213.6 ave      114805 max           0 min
Histogram: 8 4 4 0 10 6 8 8 22 34

Total # of neighbors = 8238214
Ave neighs/atom = 28.530512
Neighbor list builds = 0
Dangerous builds = 0
The dot product: -1.26838424765426e-07
Setting atom values ...
  1 settings made for x
  1 settings made for y
  1 settings made for z
Setting up cg style minimization ...
  Unit style    : metal
  Current step  : 4535
Per MPI rank memory allocation (min/avg/max) = 5.441 | 5.816 | 6.074 Mbytes
Step PotEng KinEng TotEng v_fx v_fy v_fz 
    4535     -1152449            0     -1152449 0.0071331223 0.0019400097  0.007525034 
    4747     -1152449            0     -1152449 -5.0047335e-06 -1.4567637e-05 -2.0277193e-05 
Loop time of 2.49014 on 104 procs for 212 steps with 288751 atoms

99.9% CPU use with 104 MPI tasks x 1 OpenMP threads

Minimization stats:
  Stopping criterion = energy tolerance
  Energy initial, next-to-last, final = 
     -1152449.03220449  -1152449.03383507  -1152449.03383507
  Force two-norm initial, final = 0.17380641 7.6593875e-05
  Force max component initial, final = 0.13794391 2.0277193e-05
  Final line search alpha, max atom move = 1.0000000 2.0277193e-05
  Iterations, force evaluations = 212 424

MPI task timing breakdown:
Section |  min time  |  avg time  |  max time  |%varavg| %total
---------------------------------------------------------------
Pair    | 0.64566    | 1.7826     | 2.3061     |  36.0 | 71.59
Neigh   | 0          | 0          | 0          |   0.0 |  0.00
Comm    | 0.04179    | 0.40009    | 1.1936     |  52.9 | 16.07
Output  | 0          | 0          | 0          |   0.0 |  0.00
Modify  | 2.5229e-05 | 0.0034932  | 0.0074427  |   2.8 |  0.14
Other   |            | 0.304      |            |       | 12.21

Nlocal:        2776.45 ave        3940 max           0 min
Histogram: 8 4 4 0 4 12 8 2 26 36
Nghost:        3879.14 ave        5425 max         232 min
Histogram: 8 0 8 0 16 0 8 8 16 40
Neighs:        79213.6 ave      114799 max           0 min
Histogram: 8 4 4 0 10 6 8 8 22 34

Total # of neighbors = 8238218
Ave neighs/atom = 28.530526
Neighbor list builds = 0
Dangerous builds = 0
The dot product: -1.63326953652522e-07
Setting atom values ...
  1 settings made for x
  1 settings made for y
  1 settings made for z
Setting up cg style minimization ...
  Unit style    : metal
  Current step  : 4747
Per MPI rank memory allocation (min/avg/max) = 5.441 | 5.816 | 6.074 Mbytes
Step PotEng KinEng TotEng v_fx v_fy v_fz 
    4747     -1152449            0     -1152449 0.0041592173 0.0014627836 0.0046287427 
    4920     -1152449            0     -1152449 1.2304067e-05 3.046896e-05  4.26395e-05 
Loop time of 2.04207 on 104 procs for 173 steps with 288751 atoms

99.9% CPU use with 104 MPI tasks x 1 OpenMP threads

Minimization stats:
  Stopping criterion = energy tolerance
  Energy initial, next-to-last, final = 
     -1152449.00097119  -1152449.00261622  -1152449.00261622
  Force two-norm initial, final = 0.17459896 0.00020420058
  Force max component initial, final = 0.14004578 4.2639500e-05
  Final line search alpha, max atom move = 1.0000000 4.2639500e-05
  Iterations, force evaluations = 173 346

MPI task timing breakdown:
Section |  min time  |  avg time  |  max time  |%varavg| %total
---------------------------------------------------------------
Pair    | 0.5257     | 1.4622     | 1.9246     |  32.7 | 71.60
Neigh   | 0          | 0          | 0          |   0.0 |  0.00
Comm    | 0.031149   | 0.33623    | 0.99198    |  47.4 | 16.46
Output  | 0          | 0          | 0          |   0.0 |  0.00
Modify  | 2.1199e-05 | 0.0028558  | 0.0061283  |   2.5 |  0.14
Other   |            | 0.2408     |            |       | 11.79

Nlocal:        2776.45 ave        3939 max           0 min
Histogram: 8 4 4 0 4 12 8 2 26 36
Nghost:        3879.18 ave        5426 max         232 min
Histogram: 8 0 8 0 16 0 8 8 16 40
Neighs:        79213.6 ave      114755 max           0 min
Histogram: 8 4 4 0 10 6 8 8 22 34

Total # of neighbors = 8238218
Ave neighs/atom = 28.530526
Neighbor list builds = 0
Dangerous builds = 0
The dot product: 3.13222786263498e-07
Setting atom values ...
  1 settings made for x
  1 settings made for y
  1 settings made for z
Setting up cg style minimization ...
  Unit style    : metal
  Current step  : 4920
Per MPI rank memory allocation (min/avg/max) = 5.441 | 5.816 | 6.074 Mbytes
Step PotEng KinEng TotEng v_fx v_fy v_fz 
    4920     -1152449            0     -1152449 0.0019437305 0.00080505048 0.0022437407 
    5000     -1152449            0     -1152449 -1.6200508e-05 -8.1520326e-05 -9.9722864e-05 
    5136     -1152449            0     -1152449 -1.5051794e-06 -6.4770844e-06 -8.0771954e-06 
Loop time of 2.5158 on 104 procs for 216 steps with 288751 atoms

99.9% CPU use with 104 MPI tasks x 1 OpenMP threads

Minimization stats:
  Stopping criterion = energy tolerance
  Energy initial, next-to-last, final = 
      -1152448.9686827  -1152448.97033455  -1152448.97033455
  Force two-norm initial, final = 0.17545128 7.1779329e-05
  Force max component initial, final = 0.14191449 8.0771954e-06
  Final line search alpha, max atom move = 1.0000000 8.0771954e-06
  Iterations, force evaluations = 216 432

MPI task timing breakdown:
Section |  min time  |  avg time  |  max time  |%varavg| %total
---------------------------------------------------------------
Pair    | 0.651      | 1.8169     | 2.3579     |  36.5 | 72.22
Neigh   | 0          | 0          | 0          |   0.0 |  0.00
Comm    | 0.03861    | 0.40807    | 1.2381     |  54.2 | 16.22
Output  | 0.00021813 | 0.00022656 | 0.00034468 |   0.0 |  0.01
Modify  | 2.6407e-05 | 0.0035606  | 0.0075878  |   2.8 |  0.14
Other   |            | 0.2871     |            |       | 11.41

Nlocal:        2776.45 ave        3938 max           0 min
Histogram: 8 4 4 0 4 12 8 2 26 36
Nghost:        3879.18 ave        5426 max         232 min
Histogram: 8 0 8 0 16 0 8 8 16 40
Neighs:        79213.6 ave      114702 max           0 min
Histogram: 8 4 4 0 9 7 8 8 22 34

Total # of neighbors = 8238219
Ave neighs/atom = 28.530530
Neighbor list builds = 0
Dangerous builds = 0
The dot product: -5.52585935415409e-08
Setting atom values ...
  1 settings made for x
  1 settings made for y
  1 settings made for z
Setting up cg style minimization ...
  Unit style    : metal
  Current step  : 5136
Per MPI rank memory allocation (min/avg/max) = 5.441 | 5.816 | 6.074 Mbytes
Step PotEng KinEng TotEng v_fx v_fy v_fz 
    5136   -1152448.9            0   -1152448.9 0.00041069898 -5.3643297e-05 0.00022699961 
    5328   -1152448.9            0   -1152448.9 -9.2754269e-06 -2.7359322e-05 -3.5456619e-05 
Loop time of 2.22661 on 104 procs for 192 steps with 288751 atoms

99.9% CPU use with 104 MPI tasks x 1 OpenMP threads

Minimization stats:
  Stopping criterion = energy tolerance
  Energy initial, next-to-last, final = 
       -1152448.935414  -1152448.93712842  -1152448.93712842
  Force two-norm initial, final = 0.17633201 0.00013774034
  Force max component initial, final = 0.14363403 3.5456619e-05
  Final line search alpha, max atom move = 1.0000000 3.5456619e-05
  Iterations, force evaluations = 192 384

MPI task timing breakdown:
Section |  min time  |  avg time  |  max time  |%varavg| %total
---------------------------------------------------------------
Pair    | 0.57903    | 1.6189     | 2.0937     |  34.3 | 72.71
Neigh   | 0          | 0          | 0          |   0.0 |  0.00
Comm    | 0.036283   | 0.3627     | 1.0914     |  51.0 | 16.29
Output  | 0          | 0          | 0          |   0.0 |  0.00
Modify  | 2.3167e-05 | 0.0031706  | 0.006778   |   2.7 |  0.14
Other   |            | 0.2419     |            |       | 10.86

Nlocal:        2776.45 ave        3938 max           0 min
Histogram: 8 4 4 0 4 12 8 2 26 36
Nghost:        3879.19 ave        5426 max         232 min
Histogram: 8 0 8 0 16 0 8 8 16 40
Neighs:        79213.6 ave      114700 max           0 min
Histogram: 8 4 4 0 9 7 8 8 22 34

Total # of neighbors = 8238216
Ave neighs/atom = 28.530519
Neighbor list builds = 0
Dangerous builds = 0
The dot product: -2.33819746410137e-07
Setting atom values ...
  1 settings made for x
  1 settings made for y
  1 settings made for z
Setting up cg style minimization ...
  Unit style    : metal
  Current step  : 5328
Per MPI rank memory allocation (min/avg/max) = 5.441 | 5.816 | 6.074 Mbytes
Step PotEng KinEng TotEng v_fx v_fy v_fz 
    5328   -1152448.9            0   -1152448.9 -0.00059010568 -0.00099317226 -0.0014356314 
    5506   -1152448.9            0   -1152448.9 -7.1723391e-06 -2.3957499e-05 -2.9834838e-05 
Loop time of 2.07331 on 104 procs for 178 steps with 288751 atoms

99.9% CPU use with 104 MPI tasks x 1 OpenMP threads

Minimization stats:
  Stopping criterion = energy tolerance
  Energy initial, next-to-last, final = 
     -1152448.90133846  -1152448.90298363  -1152448.90298363
  Force two-norm initial, final = 0.17704348 0.00019676323
  Force max component initial, final = 0.14504574 2.9834838e-05
  Final line search alpha, max atom move = 1.0000000 2.9834838e-05
  Iterations, force evaluations = 178 356

MPI task timing breakdown:
Section |  min time  |  avg time  |  max time  |%varavg| %total
---------------------------------------------------------------
Pair    | 0.54134    | 1.4964     | 1.9372     |  33.0 | 72.17
Neigh   | 0          | 0          | 0          |   0.0 |  0.00
Comm    | 0.03216    | 0.3351     | 1.0062     |  48.8 | 16.16
Output  | 0          | 0          | 0          |   0.0 |  0.00
Modify  | 2.1219e-05 | 0.0029341  | 0.0062657  |   2.6 |  0.14
Other   |            | 0.2389     |            |       | 11.52

Nlocal:        2776.45 ave        3938 max           0 min
Histogram: 8 4 4 0 4 12 8 2 26 36
Nghost:        3879.19 ave        5426 max         232 min
Histogram: 8 0 8 0 16 0 8 8 16 40
Neighs:        79213.6 ave      114694 max           0 min
Histogram: 8 4 4 0 8 8 8 8 22 34

Total # of neighbors = 8238214
Ave neighs/atom = 28.530512
Neighbor list builds = 0
Dangerous builds = 0
The dot product: -1.68373666433537e-07
Setting atom values ...
  1 settings made for x
  1 settings made for y
  1 settings made for z
Setting up cg style minimization ...
  Unit style    : metal
  Current step  : 5506
Per MPI rank memory allocation (min/avg/max) = 5.441 | 5.816 | 6.074 Mbytes
Step PotEng KinEng TotEng v_fx v_fy v_fz 
    5506   -1152448.9            0   -1152448.9 -0.0019368334 -0.0029452044 -0.004319318 
    5757   -1152448.9            0   -1152448.9 2.5218452e-07 6.4682835e-07 8.3263193e-07 
Loop time of 2.91607 on 104 procs for 251 steps with 288751 atoms

99.9% CPU use with 104 MPI tasks x 1 OpenMP threads

Minimization stats:
  Stopping criterion = energy tolerance
  Energy initial, next-to-last, final = 
     -1152448.86617795  -1152448.86778652  -1152448.86778652
  Force two-norm initial, final = 0.17824197 1.2844962e-05
  Force max component initial, final = 0.14670903 1.6906643e-06
  Final line search alpha, max atom move = 1.0000000 1.6906643e-06
  Iterations, force evaluations = 251 502

MPI task timing breakdown:
Section |  min time  |  avg time  |  max time  |%varavg| %total
---------------------------------------------------------------
Pair    | 0.76106    | 2.1142     | 2.7409     |  39.1 | 72.50
Neigh   | 0          | 0          | 0          |   0.0 |  0.00
Comm    | 0.05089    | 0.47352    | 1.4181     |  58.1 | 16.24
Output  | 0          | 0          | 0          |   0.0 |  0.00
Modify  | 2.928e-05  | 0.0041344  | 0.0088536  |   3.0 |  0.14
Other   |            | 0.3242     |            |       | 11.12

Nlocal:        2776.45 ave        3938 max           0 min
Histogram: 8 4 4 0 4 12 8 2 26 36
Nghost:        3879.18 ave        5425 max         232 min
Histogram: 8 0 8 0 16 0 8 8 16 40
Neighs:        79213.6 ave      114692 max           0 min
Histogram: 8 4 4 0 8 8 8 8 22 34

Total # of neighbors = 8238213
Ave neighs/atom = 28.530509
Neighbor list builds = 0
Dangerous builds = 0
The dot product: 3.8509198611313e-09
Setting atom values ...
  1 settings made for x
  1 settings made for y
  1 settings made for z
Setting up cg style minimization ...
  Unit style    : metal
  Current step  : 5757
Per MPI rank memory allocation (min/avg/max) = 5.441 | 5.816 | 6.074 Mbytes
Step PotEng KinEng TotEng v_fx v_fy v_fz 
    5757   -1152448.8            0   -1152448.8 -0.0031054653 -0.0051220953 -0.0072503043 
    5936   -1152448.8            0   -1152448.8 1.8055487e-07 1.8334583e-05 1.8704104e-05 
Loop time of 2.0652 on 104 procs for 179 steps with 288751 atoms

99.9% CPU use with 104 MPI tasks x 1 OpenMP threads

Minimization stats:
  Stopping criterion = energy tolerance
  Energy initial, next-to-last, final = 
     -1152448.82993185  -1152448.83163201  -1152448.83163201
  Force two-norm initial, final = 0.17953623 0.00027842732
  Force max component initial, final = 0.14831002 5.3878301e-05
  Final line search alpha, max atom move = 1.0000000 5.3878301e-05
  Iterations, force evaluations = 179 358

MPI task timing breakdown:
Section |  min time  |  avg time  |  max time  |%varavg| %total
---------------------------------------------------------------
Pair    | 0.54347    | 1.5012     | 1.9416     |  32.9 | 72.69
Neigh   | 0          | 0          | 0          |   0.0 |  0.00
Comm    | 0.03256    | 0.33399    | 1.0081     |  49.2 | 16.17
Output  | 0          | 0          | 0          |   0.0 |  0.00
Modify  | 2.1747e-05 | 0.0029479  | 0.0062868  |   2.6 |  0.14
Other   |            | 0.2271     |            |       | 10.99

Nlocal:        2776.45 ave        3936 max           0 min
Histogram: 8 4 4 0 4 12 8 0 28 36
Nghost:        3879.12 ave        5424 max         232 min
Histogram: 8 0 8 0 16 0 8 8 16 40
Neighs:        79213.6 ave      114616 max           0 min
Histogram: 8 4 4 0 8 8 8 8 20 36

Total # of neighbors = 8238216
Ave neighs/atom = 28.530519
Neighbor list builds = 0
Dangerous builds = 0
The dot product: 8.31084060372545e-08
Setting atom values ...
  1 settings made for x
  1 settings made for y
  1 settings made for z
Setting up cg style minimization ...
  Unit style    : metal
  Current step  : 5936
Per MPI rank memory allocation (min/avg/max) = 5.441 | 5.816 | 6.074 Mbytes
Step PotEng KinEng TotEng v_fx v_fy v_fz 
    5936   -1152448.8            0   -1152448.8 -0.0036917722 -0.0068054261 -0.0092489472 
    6000   -1152448.8            0   -1152448.8 7.1438203e-05 0.00013301539 0.00018030249 
    6127   -1152448.8            0   -1152448.8 -7.3613341e-06 -1.6072065e-05 -2.0950765e-05 
Loop time of 2.23741 on 104 procs for 191 steps with 288751 atoms

99.9% CPU use with 104 MPI tasks x 1 OpenMP threads

Minimization stats:
  Stopping criterion = energy tolerance
  Energy initial, next-to-last, final = 
      -1152448.7929589  -1152448.79458652  -1152448.79458652
  Force two-norm initial, final = 0.18007491 0.00012830648
  Force max component initial, final = 0.14929261 2.7725142e-05
  Final line search alpha, max atom move = 1.0000000 2.7725142e-05
  Iterations, force evaluations = 191 382

MPI task timing breakdown:
Section |  min time  |  avg time  |  max time  |%varavg| %total
---------------------------------------------------------------
Pair    | 0.57705    | 1.615      | 2.1081     |  34.4 | 72.18
Neigh   | 0          | 0          | 0          |   0.0 |  0.00
Comm    | 0.034357   | 0.36375    | 1.0861     |  50.6 | 16.26
Output  | 0.00014825 | 0.00015578 | 0.00028511 |   0.0 |  0.01
Modify  | 2.2102e-05 | 0.0031551  | 0.0067164  |   2.6 |  0.14
Other   |            | 0.2554     |            |       | 11.41

Nlocal:        2776.45 ave        3935 max           0 min
Histogram: 8 4 4 0 4 12 8 0 28 36
Nghost:        3879.10 ave        5424 max         232 min
Histogram: 8 0 8 0 16 0 8 8 16 40
Neighs:        79213.6 ave      114579 max           0 min
Histogram: 8 4 4 0 8 8 8 8 20 36

Total # of neighbors = 8238215
Ave neighs/atom = 28.530516
Neighbor list builds = 0
Dangerous builds = 0
The dot product: -6.24819924279631e-08
Setting atom values ...
  1 settings made for x
  1 settings made for y
  1 settings made for z
Setting up cg style minimization ...
  Unit style    : metal
  Current step  : 6127
Per MPI rank memory allocation (min/avg/max) = 5.441 | 5.816 | 6.074 Mbytes
Step PotEng KinEng TotEng v_fx v_fy v_fz 
    6127   -1152448.8            0   -1152448.8 -0.0046464242 -0.0096866474 -0.012674816 
    6306   -1152448.8            0   -1152448.8 2.5544666e-06 8.5041373e-06 1.0130563e-05 
Loop time of 2.11577 on 104 procs for 179 steps with 288751 atoms

99.9% CPU use with 104 MPI tasks x 1 OpenMP threads

Minimization stats:
  Stopping criterion = energy tolerance
  Energy initial, next-to-last, final = 
     -1152448.75489922  -1152448.75652579  -1152448.75652579
  Force two-norm initial, final = 0.18114842 0.00017954084
  Force max component initial, final = 0.15070861 1.6326213e-05
  Final line search alpha, max atom move = 1.0000000 1.6326213e-05
  Iterations, force evaluations = 179 358

MPI task timing breakdown:
Section |  min time  |  avg time  |  max time  |%varavg| %total
---------------------------------------------------------------
Pair    | 0.54137    | 1.5049     | 1.9581     |  33.2 | 71.13
Neigh   | 0          | 0          | 0          |   0.0 |  0.00
Comm    | 0.033102   | 0.34087    | 1.0142     |  48.6 | 16.11
Output  | 0          | 0          | 0          |   0.0 |  0.00
Modify  | 2.0922e-05 | 0.0029556  | 0.0063404  |   2.6 |  0.14
Other   |            | 0.267      |            |       | 12.62

Nlocal:        2776.45 ave        3935 max           0 min
Histogram: 8 4 4 0 4 12 8 0 28 36
Nghost:        3879.11 ave        5424 max         232 min
Histogram: 8 0 8 0 16 0 8 8 16 40
Neighs:        79213.6 ave      114578 max           0 min
Histogram: 8 4 4 0 8 8 8 8 20 36

Total # of neighbors = 8238212
Ave neighs/atom = 28.530506
Neighbor list builds = 0
Dangerous builds = 0
The dot product: 1.88708504871573e-08
Setting atom values ...
  1 settings made for x
  1 settings made for y
  1 settings made for z
Setting up cg style minimization ...
  Unit style    : metal
  Current step  : 6306
Per MPI rank memory allocation (min/avg/max) = 5.441 | 5.816 | 6.074 Mbytes
Step PotEng KinEng TotEng v_fx v_fy v_fz 
    6306   -1152448.7            0   -1152448.7 -0.0052754794 -0.012551439 -0.015870162 
    6490   -1152448.7            0   -1152448.7 -5.9887749e-06 -6.8882499e-06 -1.0728215e-05 
Loop time of 2.15798 on 104 procs for 184 steps with 288751 atoms

99.9% CPU use with 104 MPI tasks x 1 OpenMP threads

Minimization stats:
  Stopping criterion = energy tolerance
  Energy initial, next-to-last, final = 
     -1152448.71589018  -1152448.71765956  -1152448.71765956
  Force two-norm initial, final = 0.18168532 0.00015706344
  Force max component initial, final = 0.1518178 2.5835132e-05
  Final line search alpha, max atom move = 1.0000000 2.5835132e-05
  Iterations, force evaluations = 184 368

MPI task timing breakdown:
Section |  min time  |  avg time  |  max time  |%varavg| %total
---------------------------------------------------------------
Pair    | 0.55748    | 1.5563     | 2.0299     |  33.7 | 72.12
Neigh   | 0          | 0          | 0          |   0.0 |  0.00
Comm    | 0.032172   | 0.35024    | 1.0498     |  49.8 | 16.23
Output  | 0          | 0          | 0          |   0.0 |  0.00
Modify  | 2.2622e-05 | 0.0030391  | 0.006495   |   2.6 |  0.14
Other   |            | 0.2484     |            |       | 11.51

Nlocal:        2776.45 ave        3935 max           0 min
Histogram: 8 4 4 0 4 12 8 0 28 36
Nghost:        3879.11 ave        5424 max         232 min
Histogram: 8 0 8 0 16 0 8 8 16 40
Neighs:        79213.6 ave      114578 max           0 min
Histogram: 8 4 4 0 8 8 8 8 20 36

Total # of neighbors = 8238212
Ave neighs/atom = 28.530506
Neighbor list builds = 0
Dangerous builds = 0
The dot product: -1.05781756719873e-08
Setting atom values ...
  1 settings made for x
  1 settings made for y
  1 settings made for z
Setting up cg style minimization ...
  Unit style    : metal
  Current step  : 6490
Per MPI rank memory allocation (min/avg/max) = 5.441 | 5.816 | 6.074 Mbytes
Step PotEng KinEng TotEng v_fx v_fy v_fz 
    6490   -1152448.7            0   -1152448.7 -0.005636737 -0.014578972  -0.01806303 
    6673   -1152448.7            0   -1152448.7 -6.1406211e-06 -2.6658443e-05 -3.0310196e-05 
Loop time of 2.11099 on 104 procs for 183 steps with 288751 atoms

99.9% CPU use with 104 MPI tasks x 1 OpenMP threads

Minimization stats:
  Stopping criterion = energy tolerance
  Energy initial, next-to-last, final = 
     -1152448.67653367  -1152448.67827235  -1152448.67827235
  Force two-norm initial, final = 0.18064078 0.00017015235
  Force max component initial, final = 0.15188402 4.2561781e-05
  Final line search alpha, max atom move = 1.0000000 4.2561781e-05
  Iterations, force evaluations = 183 366

MPI task timing breakdown:
Section |  min time  |  avg time  |  max time  |%varavg| %total
---------------------------------------------------------------
Pair    | 0.55643    | 1.5371     | 1.9909     |  33.4 | 72.82
Neigh   | 0          | 0          | 0          |   0.0 |  0.00
Comm    | 0.033342   | 0.34204    | 1.03       |  49.8 | 16.20
Output  | 0          | 0          | 0          |   0.0 |  0.00
Modify  | 2.227e-05  | 0.0030203  | 0.006465   |   2.6 |  0.14
Other   |            | 0.2288     |            |       | 10.84

Nlocal:        2776.45 ave        3935 max           0 min
Histogram: 8 4 4 0 4 12 8 0 28 36
Nghost:        3879.11 ave        5424 max         232 min
Histogram: 8 0 8 0 16 0 8 8 16 40
Neighs:        79213.5 ave      114573 max           0 min
Histogram: 8 4 4 0 8 8 8 8 20 36

Total # of neighbors = 8238205
Ave neighs/atom = 28.530481
Neighbor list builds = 0
Dangerous builds = 0
The dot product: 8.57457047735821e-10
Setting atom values ...
  1 settings made for x
  1 settings made for y
  1 settings made for z
Setting up cg style minimization ...
  Unit style    : metal
  Current step  : 6673
Per MPI rank memory allocation (min/avg/max) = 5.441 | 5.816 | 6.074 Mbytes
Step PotEng KinEng TotEng v_fx v_fy v_fz 
    6673   -1152448.6            0   -1152448.6 -0.0058842405 -0.017571792 -0.021183122 
    6909   -1152448.6            0   -1152448.6 -5.0184673e-06 1.9525864e-06 -1.3616338e-06 
Loop time of 2.76345 on 104 procs for 236 steps with 288751 atoms

99.9% CPU use with 104 MPI tasks x 1 OpenMP threads

Minimization stats:
  Stopping criterion = energy tolerance
  Energy initial, next-to-last, final = 
     -1152448.63677748   -1152448.6387304   -1152448.6387304
  Force two-norm initial, final = 0.17979822 0.0001756784
  Force max component initial, final = 0.15181489 2.3438104e-05
  Final line search alpha, max atom move = 1.0000000 2.3438104e-05
  Iterations, force evaluations = 236 472

MPI task timing breakdown:
Section |  min time  |  avg time  |  max time  |%varavg| %total
---------------------------------------------------------------
Pair    | 0.71755    | 1.9915     | 2.5978     |  38.0 | 72.07
Neigh   | 0          | 0          | 0          |   0.0 |  0.00
Comm    | 0.042031   | 0.45034    | 1.3476     |  56.0 | 16.30
Output  | 0          | 0          | 0          |   0.0 |  0.00
Modify  | 2.8388e-05 | 0.0038921  | 0.0083236  |   2.9 |  0.14
Other   |            | 0.3177     |            |       | 11.50

Nlocal:        2776.45 ave        3934 max           0 min
Histogram: 8 4 4 0 4 12 8 0 28 36
Nghost:        3879.14 ave        5424 max         232 min
Histogram: 8 0 8 0 16 0 8 8 16 40
Neighs:        79213.5 ave      114538 max           0 min
Histogram: 8 4 4 0 8 8 8 8 20 36

Total # of neighbors = 8238200
Ave neighs/atom = 28.530464
Neighbor list builds = 0
Dangerous builds = 0
The dot product: 9.39714751422131e-09
Setting atom values ...
  1 settings made for x
  1 settings made for y
  1 settings made for z
Setting up cg style minimization ...
  Unit style    : metal
  Current step  : 6909
Per MPI rank memory allocation (min/avg/max) = 5.441 | 5.816 | 6.074 Mbytes
Step PotEng KinEng TotEng v_fx v_fy v_fz 
    6909   -1152448.6            0   -1152448.6 -0.0090981855 -0.018806748 -0.024550927 
    7000   -1152448.6            0   -1152448.6 8.0949142e-05 0.00020909243 0.00025963885 
    7138   -1152448.6            0   -1152448.6 4.8368125e-06 6.9365955e-06 1.0031475e-05 
Loop time of 2.65841 on 104 procs for 229 steps with 288751 atoms

99.9% CPU use with 104 MPI tasks x 1 OpenMP threads

Minimization stats:
  Stopping criterion = energy tolerance
  Energy initial, next-to-last, final = 
     -1152448.59791461  -1152448.60002972  -1152448.60002972
  Force two-norm initial, final = 0.17776988 6.8836963e-05
  Force max component initial, final = 0.14935791 1.0031475e-05
  Final line search alpha, max atom move = 1.0000000 1.0031475e-05
  Iterations, force evaluations = 229 458

MPI task timing breakdown:
Section |  min time  |  avg time  |  max time  |%varavg| %total
---------------------------------------------------------------
Pair    | 0.69407    | 1.927      | 2.5008     |  37.5 | 72.49
Neigh   | 0          | 0          | 0          |   0.0 |  0.00
Comm    | 0.041349   | 0.43375    | 1.2983     |  55.5 | 16.32
Output  | 0.00015628 | 0.00015877 | 0.00029986 |   0.0 |  0.01
Modify  | 2.7038e-05 | 0.0037732  | 0.0080302  |   2.9 |  0.14
Other   |            | 0.2937     |            |       | 11.05

Nlocal:        2776.45 ave        3934 max           0 min
Histogram: 8 4 4 0 4 12 8 0 28 36
Nghost:        3879.14 ave        5424 max         232 min
Histogram: 8 0 8 0 16 0 8 8 16 40
Neighs:        79213.5 ave      114568 max           0 min
Histogram: 8 4 4 0 8 8 8 8 20 36

Total # of neighbors = 8238205
Ave neighs/atom = 28.530481
Neighbor list builds = 0
Dangerous builds = 0
The dot product: -1.0646710077328e-08
Setting atom values ...
  1 settings made for x
  1 settings made for y
  1 settings made for z
Setting up cg style minimization ...
  Unit style    : metal
  Current step  : 7138
Per MPI rank memory allocation (min/avg/max) = 5.441 | 5.816 | 6.074 Mbytes
Step PotEng KinEng TotEng v_fx v_fy v_fz 
    7138   -1152448.6            0   -1152448.6 -0.011443746 -0.018983501 -0.026323193 
    7447   -1152448.6            0   -1152448.6 -7.0817791e-07 -1.7365946e-06 -2.1832583e-06 
Loop time of 3.59061 on 104 procs for 309 steps with 288751 atoms

99.9% CPU use with 104 MPI tasks x 1 OpenMP threads

Minimization stats:
  Stopping criterion = energy tolerance
  Energy initial, next-to-last, final = 
     -1152448.56072014  -1152448.57174218  -1152448.57174218
  Force two-norm initial, final = 0.18336955 1.1319463e-05
  Force max component initial, final = 0.14679806 2.1832583e-06
  Final line search alpha, max atom move = 1.0000000 2.1832583e-06
  Iterations, force evaluations = 309 618

MPI task timing breakdown:
Section |  min time  |  avg time  |  max time  |%varavg| %total
---------------------------------------------------------------
Pair    | 0.9411     | 2.6088     | 3.3764     |  43.4 | 72.66
Neigh   | 1.0176e-05 | 0.0029365  | 0.0042694  |   2.2 |  0.08
Comm    | 0.061049   | 0.58585    | 1.7553     |  64.5 | 16.32
Output  | 0          | 0          | 0          |   0.0 |  0.00
Modify  | 3.7254e-05 | 0.0050959  | 0.010888   |   3.4 |  0.14
Other   |            | 0.3879     |            |       | 10.80

Nlocal:        2776.45 ave        3934 max           0 min
Histogram: 8 4 4 0 4 12 8 0 28 36
Nghost:        3879.14 ave        5425 max         232 min
Histogram: 8 0 8 0 16 0 8 8 16 40
Neighs:        79213.4 ave      114565 max           0 min
Histogram: 8 4 4 0 8 8 8 8 20 36

Total # of neighbors = 8238194
Ave neighs/atom = 28.530443
Neighbor list builds = 1
Dangerous builds = 0
The dot product: -4.06150020978356e-08
Setting atom values ...
  1 settings made for x
  1 settings made for y
  1 settings made for z
Setting up cg style minimization ...
  Unit style    : metal
  Current step  : 7447
Per MPI rank memory allocation (min/avg/max) = 5.441 | 5.816 | 6.074 Mbytes
Step PotEng KinEng TotEng v_fx v_fy v_fz 
    7447   -1152448.5            0   -1152448.5 -0.0056602882 -0.013067913 -0.016042982 
    7648   -1152448.5            0   -1152448.5 8.2033245e-06 1.8966674e-05 2.3276937e-05 
[...]
Histogram: 8 4 4 0 4 12 8 0 28 36
Nghost:        3878.78 ave        5422 max         232 min
Histogram: 8 0 8 0 16 0 8 8 16 40
Neighs:        79213.5 ave      115011 max           0 min
Histogram: 8 4 4 0 10 6 8 8 24 32

Total # of neighbors = 8238200
Ave neighs/atom = 28.530464
Neighbor list builds = 0
Dangerous builds = 0
The dot product: 2.53846414722503e-07
Setting atom values ...
  1 settings made for x
  1 settings made for y
  1 settings made for z
Setting up cg style minimization ...
  Unit style    : metal
  Current step  : 27369
Per MPI rank memory allocation (min/avg/max) = 5.441 | 5.816 | 6.074 Mbytes
Step PotEng KinEng TotEng v_fx v_fy v_fz 
   27369   -1152449.4            0   -1152449.4 -0.023925087  0.019433275  0.040991967 
   27551   -1152449.4            0   -1152449.4 1.5371471e-05 1.1918939e-05 3.7918112e-06 
Loop time of 2.11174 on 104 procs for 182 steps with 288751 atoms

99.9% CPU use with 104 MPI tasks x 1 OpenMP threads

Minimization stats:
  Stopping criterion = energy tolerance
  Energy initial, next-to-last, final = 
     -1152449.42934114  -1152449.43075476  -1152449.43075476
  Force two-norm initial, final = 0.17167824 0.0001413084
  Force max component initial, final = 0.073764328 1.5371471e-05
  Final line search alpha, max atom move = 1.0000000 1.5371471e-05
  Iterations, force evaluations = 182 364

MPI task timing breakdown:
Section |  min time  |  avg time  |  max time  |%varavg| %total
---------------------------------------------------------------
Pair    | 0.54869    | 1.5324     | 1.9851     |  33.5 | 72.56
Neigh   | 0          | 0          | 0          |   0.0 |  0.00
Comm    | 0.030323   | 0.34764    | 1.0658     |  49.6 | 16.46
Output  | 0          | 0          | 0          |   0.0 |  0.00
Modify  | 2.228e-05  | 0.0030029  | 0.0063759  |   2.6 |  0.14
Other   |            | 0.2287     |            |       | 10.83

Nlocal:        2776.45 ave        3943 max           0 min
Histogram: 8 4 4 0 4 12 8 0 28 36
Nghost:        3878.78 ave        5422 max         232 min
Histogram: 8 0 8 0 16 0 8 8 16 40
Neighs:        79213.5 ave      114983 max           0 min
Histogram: 8 4 4 0 10 6 8 8 24 32

Total # of neighbors = 8238204
Ave neighs/atom = 28.530478
Neighbor list builds = 0
Dangerous builds = 0
The dot product: 2.82646127445803e-08
Setting atom values ...
  1 settings made for x
  1 settings made for y
  1 settings made for z
Setting up cg style minimization ...
  Unit style    : metal
  Current step  : 27551
Per MPI rank memory allocation (min/avg/max) = 5.441 | 5.816 | 6.074 Mbytes
Step PotEng KinEng TotEng v_fx v_fy v_fz 
   27551   -1152449.4            0   -1152449.4 -0.027043978  0.015830521  0.038847823 
   27789   -1152449.4            0   -1152449.4 2.3034124e-06 3.8870483e-06 3.1711814e-06 
Loop time of 2.76607 on 104 procs for 238 steps with 288751 atoms

99.9% CPU use with 104 MPI tasks x 1 OpenMP threads

Minimization stats:
  Stopping criterion = energy tolerance
  Energy initial, next-to-last, final = 
     -1152449.42261142  -1152449.42397182  -1152449.42397182
  Force two-norm initial, final = 0.16891118 1.6075431e-05
  Force max component initial, final = 0.072942621 3.8870483e-06
  Final line search alpha, max atom move = 1.0000000 3.8870483e-06
  Iterations, force evaluations = 238 476

MPI task timing breakdown:
Section |  min time  |  avg time  |  max time  |%varavg| %total
---------------------------------------------------------------
Pair    | 0.71662    | 1.9959     | 2.6078     |  38.2 | 72.16
Neigh   | 0          | 0          | 0          |   0.0 |  0.00
Comm    | 0.042368   | 0.45013    | 1.3523     |  56.1 | 16.27
Output  | 0          | 0          | 0          |   0.0 |  0.00
Modify  | 3.0185e-05 | 0.0039283  | 0.0084069  |   3.0 |  0.14
Other   |            | 0.3161     |            |       | 11.43

Nlocal:        2776.45 ave        3945 max           0 min
Histogram: 8 4 4 0 4 12 8 0 28 36
Nghost:        3878.79 ave        5423 max         232 min
Histogram: 8 0 8 0 16 0 8 8 16 40
Neighs:        79213.5 ave      115047 max           0 min
Histogram: 8 4 4 0 10 6 8 8 24 32

Total # of neighbors = 8238205
Ave neighs/atom = 28.530481
Neighbor list builds = 0
Dangerous builds = 0
The dot product: 1.26363965306907e-08
Setting atom values ...
  1 settings made for x
  1 settings made for y
  1 settings made for z
Setting up cg style minimization ...
  Unit style    : metal
  Current step  : 27789
Per MPI rank memory allocation (min/avg/max) = 5.441 | 5.816 | 6.074 Mbytes
Step PotEng KinEng TotEng v_fx v_fy v_fz 
   27789   -1152449.4            0   -1152449.4 -0.030924853  0.011474712  0.036298378 
   27969   -1152449.4            0   -1152449.4 1.6495904e-05 3.5474694e-05 3.2238761e-05 
Loop time of 2.08712 on 104 procs for 180 steps with 288751 atoms

99.9% CPU use with 104 MPI tasks x 1 OpenMP threads

Minimization stats:
  Stopping criterion = energy tolerance
  Energy initial, next-to-last, final = 
     -1152449.41432703  -1152449.41563271  -1152449.41563271
  Force two-norm initial, final = 0.16645735 0.00015601826
  Force max component initial, final = 0.072121239 3.8761276e-05
  Final line search alpha, max atom move = 1.0000000 3.8761276e-05
  Iterations, force evaluations = 180 360

MPI task timing breakdown:
Section |  min time  |  avg time  |  max time  |%varavg| %total
---------------------------------------------------------------
Pair    | 0.54377    | 1.5139     | 1.9688     |  33.3 | 72.54
Neigh   | 0          | 0          | 0          |   0.0 |  0.00
Comm    | 0.031577   | 0.34068    | 1.0229     |  48.9 | 16.32
Output  | 0          | 0          | 0          |   0.0 |  0.00
Modify  | 2.2436e-05 | 0.0029774  | 0.006397   |   2.6 |  0.14
Other   |            | 0.2295     |            |       | 11.00

Nlocal:        2776.45 ave        3944 max           0 min
Histogram: 8 4 4 0 4 12 8 0 28 36
Nghost:        3878.80 ave        5423 max         232 min
Histogram: 8 0 8 0 16 0 8 8 16 40
Neighs:        79213.5 ave      115018 max           0 min
Histogram: 8 4 4 0 10 6 8 8 24 32

Total # of neighbors = 8238207
Ave neighs/atom = 28.530488
Neighbor list builds = 0
Dangerous builds = 0
The dot product: 9.50699786948274e-08
Setting atom values ...
  1 settings made for x
  1 settings made for y
  1 settings made for z
Setting up cg style minimization ...
  Unit style    : metal
  Current step  : 27969
Per MPI rank memory allocation (min/avg/max) = 5.441 | 5.816 | 6.074 Mbytes
Step PotEng KinEng TotEng v_fx v_fy v_fz 
   27969   -1152449.4            0   -1152449.4 -0.036794707  0.004898687  0.032404844 
   28000   -1152449.4            0   -1152449.4 0.00018445283 -0.00022146412 -0.00040718945 
   28135   -1152449.4            0   -1152449.4 2.4081785e-05 4.9378637e-05 4.4150982e-05 
Loop time of 1.93487 on 104 procs for 166 steps with 288751 atoms

99.9% CPU use with 104 MPI tasks x 1 OpenMP threads

Minimization stats:
  Stopping criterion = energy tolerance
  Energy initial, next-to-last, final = 
     -1152449.40463091  -1152449.40588894  -1152449.40588894
  Force two-norm initial, final = 0.16485663 0.00022165569
  Force max component initial, final = 0.071596683 5.8557989e-05
  Final line search alpha, max atom move = 1.0000000 5.8557989e-05
  Iterations, force evaluations = 166 332

MPI task timing breakdown:
Section |  min time  |  avg time  |  max time  |%varavg| %total
---------------------------------------------------------------
Pair    | 0.50167    | 1.3948     | 1.8165     |  31.7 | 72.09
Neigh   | 0          | 0          | 0          |   0.0 |  0.00
Comm    | 0.03063    | 0.31357    | 0.93991    |  46.9 | 16.21
Output  | 0.00014431 | 0.00015774 | 0.00027621 |   0.0 |  0.01
Modify  | 2.0605e-05 | 0.0027424  | 0.0058216  |   2.5 |  0.14
Other   |            | 0.2236     |            |       | 11.56

Nlocal:        2776.45 ave        3945 max           0 min
Histogram: 8 4 4 0 4 12 8 0 28 36
Nghost:        3878.80 ave        5423 max         232 min
Histogram: 8 0 8 0 16 0 8 8 16 40
Neighs:        79213.5 ave      115045 max           0 min
Histogram: 8 4 4 0 10 6 8 8 24 32

Total # of neighbors = 8238204
Ave neighs/atom = 28.530478
Neighbor list builds = 0
Dangerous builds = 0
The dot product: 2.80868931659824e-08
Setting atom values ...
  1 settings made for x
  1 settings made for y
  1 settings made for z
Setting up cg style minimization ...
  Unit style    : metal
  Current step  : 28135
Per MPI rank memory allocation (min/avg/max) = 5.441 | 5.816 | 6.074 Mbytes
Step PotEng KinEng TotEng v_fx v_fy v_fz 
   28135   -1152449.4            0   -1152449.4 -0.044316185 -0.0035077126  0.027436611 
   28240   -1152449.4            0   -1152449.4 -7.5309398e-06 -8.0213659e-06 -4.5778323e-06 
Loop time of 1.24449 on 104 procs for 105 steps with 288751 atoms

99.9% CPU use with 104 MPI tasks x 1 OpenMP threads

Minimization stats:
  Stopping criterion = energy tolerance
  Energy initial, next-to-last, final = 
     -1152449.39386428  -1152449.39525357  -1152449.39525357
  Force two-norm initial, final = 0.16651016 0.0002126891
  Force max component initial, final = 0.071457867 3.7873853e-05
  Final line search alpha, max atom move = 1.0000000 3.7873853e-05
  Iterations, force evaluations = 105 210

MPI task timing breakdown:
Section |  min time  |  avg time  |  max time  |%varavg| %total
---------------------------------------------------------------
Pair    | 0.31825    | 0.88569    | 1.1498     |  25.4 | 71.17
Neigh   | 0          | 0          | 0          |   0.0 |  0.00
Comm    | 0.018623   | 0.20018    | 0.60514    |  37.5 | 16.09
Output  | 0          | 0          | 0          |   0.0 |  0.00
Modify  | 1.3067e-05 | 0.00174    | 0.0036975  |   2.0 |  0.14
Other   |            | 0.1569     |            |       | 12.61

Nlocal:        2776.45 ave        3945 max           0 min
Histogram: 8 4 4 0 4 12 8 0 28 36
Nghost:        3878.84 ave        5424 max         232 min
Histogram: 8 0 8 0 16 0 8 8 16 40
Neighs:        79213.5 ave      115034 max           0 min
Histogram: 8 4 4 0 10 6 8 8 24 32

Total # of neighbors = 8238203
Ave neighs/atom = 28.530474
Neighbor list builds = 0
Dangerous builds = 0
The dot product: 7.26220422158851e-08
Setting atom values ...
  1 settings made for x
  1 settings made for y
  1 settings made for z
Setting up cg style minimization ...
  Unit style    : metal
  Current step  : 28240
Per MPI rank memory allocation (min/avg/max) = 5.441 | 5.816 | 6.074 Mbytes
Step PotEng KinEng TotEng v_fx v_fy v_fz 
   28240   -1152449.4            0   -1152449.4 -0.052232753 -0.012097596  0.022676523 
   28412   -1152449.4            0   -1152449.4 -2.6724116e-06 2.2237457e-05 2.9580142e-05 
Loop time of 2.00872 on 104 procs for 172 steps with 288751 atoms

99.9% CPU use with 104 MPI tasks x 1 OpenMP threads

Minimization stats:
  Stopping criterion = energy tolerance
  Energy initial, next-to-last, final = 
     -1152449.38306005  -1152449.38501787  -1152449.38501787
  Force two-norm initial, final = 0.17092024 0.00016813908
  Force max component initial, final = 0.070527828 3.6078823e-05
  Final line search alpha, max atom move = 1.0000000 3.6078823e-05
  Iterations, force evaluations = 172 344

MPI task timing breakdown:
Section |  min time  |  avg time  |  max time  |%varavg| %total
---------------------------------------------------------------
Pair    | 0.51821    | 1.4445     | 1.8894     |  32.4 | 71.91
Neigh   | 0          | 0          | 0          |   0.0 |  0.00
Comm    | 0.030458   | 0.32459    | 0.96922    |  47.5 | 16.16
Output  | 0          | 0          | 0          |   0.0 |  0.00
Modify  | 2.1415e-05 | 0.002837   | 0.0060258  |   2.5 |  0.14
Other   |            | 0.2368     |            |       | 11.79

Nlocal:        2776.45 ave        3945 max           0 min
Histogram: 8 4 4 0 4 12 8 0 28 36
Nghost:        3878.80 ave        5424 max         232 min
Histogram: 8 0 8 0 16 0 8 8 16 40
Neighs:        79213.5 ave      115035 max           0 min
Histogram: 8 4 4 0 10 6 8 8 24 32

Total # of neighbors = 8238205
Ave neighs/atom = 28.530481
Neighbor list builds = 0
Dangerous builds = 0
The dot product: -1.58480165357183e-07
Setting atom values ...
  1 settings made for x
  1 settings made for y
  1 settings made for z
Setting up cg style minimization ...
  Unit style    : metal
  Current step  : 28412
Per MPI rank memory allocation (min/avg/max) = 5.441 | 5.816 | 6.074 Mbytes
Step PotEng KinEng TotEng v_fx v_fy v_fz 
   28412   -1152449.4            0   -1152449.4   -0.0533887 -0.013736527  0.022003486 
   28502   -1152449.4            0   -1152449.4 -7.5137484e-06 1.1147244e-05 1.9293675e-05 
Loop time of 1.05144 on 104 procs for 90 steps with 288751 atoms

99.9% CPU use with 104 MPI tasks x 1 OpenMP threads

Minimization stats:
  Stopping criterion = energy tolerance
  Energy initial, next-to-last, final = 
     -1152449.37375771   -1152449.3754626   -1152449.3754626
  Force two-norm initial, final = 0.16832159 0.00021324694
  Force max component initial, final = 0.070142595 3.0304232e-05
  Final line search alpha, max atom move = 1.0000000 3.0304232e-05
  Iterations, force evaluations = 90 180

MPI task timing breakdown:
Section |  min time  |  avg time  |  max time  |%varavg| %total
---------------------------------------------------------------
Pair    | 0.27162    | 0.75926    | 0.98865    |  23.6 | 72.21
Neigh   | 0          | 0          | 0          |   0.0 |  0.00
Comm    | 0.015126   | 0.1728     | 0.51928    |  34.4 | 16.43
Output  | 0          | 0          | 0          |   0.0 |  0.00
Modify  | 1.1573e-05 | 0.0014909  | 0.0032038  |   1.8 |  0.14
Other   |            | 0.1179     |            |       | 11.21

Nlocal:        2776.45 ave        3945 max           0 min
Histogram: 8 4 4 0 4 12 8 0 28 36
Nghost:        3878.84 ave        5424 max         232 min
Histogram: 8 0 8 0 16 0 8 8 16 40
Neighs:        79213.5 ave      115034 max           0 min
Histogram: 8 4 4 0 10 6 8 8 24 32

Total # of neighbors = 8238205
Ave neighs/atom = 28.530481
Neighbor list builds = 0
Dangerous builds = 0
The dot product: 1.84942401973106e-08
Setting atom values ...
  1 settings made for x
  1 settings made for y
  1 settings made for z
Setting up cg style minimization ...
  Unit style    : metal
  Current step  : 28502
Per MPI rank memory allocation (min/avg/max) = 5.441 | 5.816 | 6.074 Mbytes
Step PotEng KinEng TotEng v_fx v_fy v_fz 
   28502   -1152449.4            0   -1152449.4 -0.050604725 -0.012175477  0.022283052 
   28565   -1152449.4            0   -1152449.4 -2.6512031e-05 -4.1946407e-05 -3.2241529e-05 
Loop time of 0.742291 on 104 procs for 63 steps with 288751 atoms

99.9% CPU use with 104 MPI tasks x 1 OpenMP threads

Minimization stats:
  Stopping criterion = energy tolerance
  Energy initial, next-to-last, final = 
     -1152449.36443436  -1152449.36590556  -1152449.36590556
  Force two-norm initial, final = 0.16377602 0.00021076623
  Force max component initial, final = 0.069887137 4.1946407e-05
  Final line search alpha, max atom move = 1.0000000 4.1946407e-05
  Iterations, force evaluations = 63 126

MPI task timing breakdown:
Section |  min time  |  avg time  |  max time  |%varavg| %total
---------------------------------------------------------------
Pair    | 0.18992    | 0.53208    | 0.69861    |  19.7 | 71.68
Neigh   | 0          | 0          | 0          |   0.0 |  0.00
Comm    | 0.011069   | 0.11998    | 0.35619    |  28.8 | 16.16
Output  | 0          | 0          | 0          |   0.0 |  0.00
Modify  | 8.0782e-06 | 0.0010457  | 0.0022183  |   1.5 |  0.14
Other   |            | 0.08919    |            |       | 12.02

Nlocal:        2776.45 ave        3945 max           0 min
Histogram: 8 4 4 0 4 12 8 0 28 36
Nghost:        3878.84 ave        5424 max         232 min
Histogram: 8 0 8 0 16 0 8 8 16 40
Neighs:        79213.5 ave      115048 max           0 min
Histogram: 8 4 4 0 10 6 8 8 24 32

Total # of neighbors = 8238206
Ave neighs/atom = 28.530485
Neighbor list builds = 0
Dangerous builds = 0
The dot product: 3.89915128651317e-07
Setting atom values ...
  1 settings made for x
  1 settings made for y
  1 settings made for z
Setting up cg style minimization ...
  Unit style    : metal
  Current step  : 28565
Per MPI rank memory allocation (min/avg/max) = 5.441 | 5.816 | 6.074 Mbytes
Step PotEng KinEng TotEng v_fx v_fy v_fz 
   28565   -1152449.4            0   -1152449.4 -0.048817571 -0.011567703  0.021986054 
   28741   -1152449.4            0   -1152449.4 2.1707872e-06 1.3933651e-05 1.5562715e-05 
Loop time of 2.05184 on 104 procs for 176 steps with 288751 atoms

99.9% CPU use with 104 MPI tasks x 1 OpenMP threads

Minimization stats:
  Stopping criterion = energy tolerance
  Energy initial, next-to-last, final = 
     -1152449.35461047  -1152449.35598918  -1152449.35598918
  Force two-norm initial, final = 0.16049778 6.9461037e-05
  Force max component initial, final = 0.069343205 1.5562715e-05
  Final line search alpha, max atom move = 1.0000000 1.5562715e-05
  Iterations, force evaluations = 176 352

MPI task timing breakdown:
Section |  min time  |  avg time  |  max time  |%varavg| %total
---------------------------------------------------------------
Pair    | 0.52903    | 1.4834     | 1.9307     |  33.0 | 72.29
Neigh   | 0          | 0          | 0          |   0.0 |  0.00
Comm    | 0.030462   | 0.33611    | 1.0114     |  48.3 | 16.38
Output  | 0          | 0          | 0          |   0.0 |  0.00
Modify  | 2.1986e-05 | 0.0029075  | 0.0061839  |   2.5 |  0.14
Other   |            | 0.2295     |            |       | 11.18

Nlocal:        2776.45 ave        3945 max           0 min
Histogram: 8 4 4 0 4 12 8 0 28 36
Nghost:        3878.84 ave        5424 max         232 min
Histogram: 8 0 8 0 16 0 8 8 16 40
Neighs:        79213.5 ave      115047 max           0 min
Histogram: 8 4 4 0 10 6 8 8 24 32

Total # of neighbors = 8238204
Ave neighs/atom = 28.530478
Neighbor list builds = 0
Dangerous builds = 0
The dot product: -5.54711748419867e-08
Setting atom values ...
  1 settings made for x
  1 settings made for y
  1 settings made for z
Setting up cg style minimization ...
  Unit style    : metal
  Current step  : 28741
Per MPI rank memory allocation (min/avg/max) = 5.441 | 5.816 | 6.074 Mbytes
Step PotEng KinEng TotEng v_fx v_fy v_fz 
   28741   -1152449.3            0   -1152449.3 -0.048767553  -0.01288784  0.020551741 
   28813   -1152449.3            0   -1152449.3 1.4960189e-05 7.319006e-05 7.8925148e-05 
Loop time of 0.841639 on 104 procs for 72 steps with 288751 atoms

99.9% CPU use with 104 MPI tasks x 1 OpenMP threads

Minimization stats:
  Stopping criterion = energy tolerance
  Energy initial, next-to-last, final = 
     -1152449.34426921  -1152449.34564425  -1152449.34564425
  Force two-norm initial, final = 0.15872931 0.00034625662
  Force max component initial, final = 0.068686108 7.8925148e-05
  Final line search alpha, max atom move = 1.0000000 7.8925148e-05
  Iterations, force evaluations = 72 144

MPI task timing breakdown:
Section |  min time  |  avg time  |  max time  |%varavg| %total
---------------------------------------------------------------
Pair    | 0.21764    | 0.6073     | 0.79284    |  21.1 | 72.16
Neigh   | 0          | 0          | 0          |   0.0 |  0.00
Comm    | 0.012643   | 0.13682    | 0.41051    |  30.9 | 16.26
Output  | 0          | 0          | 0          |   0.0 |  0.00
Modify  | 9.5748e-06 | 0.0011989  | 0.0025528  |   1.6 |  0.14
Other   |            | 0.09632    |            |       | 11.44

Nlocal:        2776.45 ave        3945 max           0 min
Histogram: 8 4 4 0 4 12 8 0 28 36
Nghost:        3878.80 ave        5424 max         232 min
Histogram: 8 0 8 0 16 0 8 8 16 40
Neighs:        79213.5 ave      115033 max           0 min
Histogram: 8 4 4 0 10 6 8 8 24 32

Total # of neighbors = 8238205
Ave neighs/atom = 28.530481
Neighbor list builds = 0
Dangerous builds = 0
The dot product: -3.32724815329524e-07
