LAMMPS (29 Oct 2020)
OMP_NUM_THREADS environment is not set. Defaulting to 1 thread. (../comm.cpp:94)
  using 1 OpenMP thread(s) per MPI task
OMP_NUM_THREADS environment is not set. Defaulting to 1 thread. (../comm.cpp:94)
  using 1 OpenMP thread(s) per MPI task
Reading data file ...
  orthogonal box = (-122.39241 -121.13707 -37.090501) to (122.39241 121.13707 37.090501)
  13 by 4 by 1 MPI processor grid
  reading atoms ...
  288751 atoms
  read_data CPU = 0.455 seconds
199981 atoms in group inner
88770 atoms in group outer
1 atoms in group carbon
Neighbor list info ...
  update every 1 steps, delay 0 steps, check yes
  max neighbors/atom: 2000, page size: 100000
  master list distance cutoff = 5.6
  ghost atom cutoff = 5.6
  binsize = 2.8, bins = 88 87 27
  1 neighbor lists, perpetual/occasional/extra = 1 0 0
  (1) pair eam/alloy, perpetual
      attributes: half, newton on
      pair build: half/bin/atomonly/newton
      stencil: half/bin/3d/newton
      bin: standard
Setting up cg style minimization ...
  Unit style    : metal
  Current step  : 0
Per MPI rank memory allocation (min/avg/max) = 5.465 | 6.344 | 6.728 Mbytes
Step v_fx v_fy v_fz PotEng KinEng TotEng 
       0   -26.358471  -0.83124381    7.8022384   -1152441.8            0   -1152441.8 
     210 -9.1070373e-05 -1.2109763e-05 8.8396811e-05     -1152449            0     -1152449 
Loop time of 4.74173 on 52 procs for 210 steps with 288751 atoms

99.9% CPU use with 52 MPI tasks x 1 OpenMP threads

Minimization stats:
  Stopping criterion = energy tolerance
  Energy initial, next-to-last, final = 
     -1152441.81605114  -1152448.97218885  -1152448.97218885
  Force two-norm initial, final = 45.108469 0.00040059308
  Force max component initial, final = 34.006003 0.00011333821
  Final line search alpha, max atom move = 1.0000000 0.00011333821
  Iterations, force evaluations = 210 416

MPI task timing breakdown:
Section |  min time  |  avg time  |  max time  |%varavg| %total
---------------------------------------------------------------
Pair    | 1.2764     | 3.3465     | 4.3787     |  48.7 | 70.58
Neigh   | 0.00018812 | 0.054462   | 0.076823   |   9.8 |  1.15
Comm    | 0.084244   | 0.75801    | 2.3381     |  75.6 | 15.99
Output  | 0          | 0          | 0          |   0.0 |  0.00
Modify  | 7.2483e-05 | 0.0046366  | 0.011709   |   4.1 |  0.10
Other   |            | 0.5781     |            |       | 12.19

Nlocal:        5552.90 ave        7897 max           0 min
Histogram: 4 2 2 0 2 6 4 0 14 18
Nghost:        6213.62 ave        8769 max         412 min
Histogram: 4 0 4 0 8 0 4 5 7 20
Neighs:       158427.0 ave      230071 max           0 min
Histogram: 4 2 2 0 5 3 4 4 12 16

Total # of neighbors = 8238213
Ave neighs/atom = 28.530509
Neighbor list builds = 9
Dangerous builds = 0
Setting atom values ...
  1 settings made for x
  1 settings made for y
  1 settings made for z
Setting up cg style minimization ...
  Unit style    : metal
  Current step  : 210
Per MPI rank memory allocation (min/avg/max) = 5.465 | 6.344 | 6.728 Mbytes
Step PotEng KinEng TotEng v_fx v_fy v_fz 
     210     -1152449            0     -1152449 -0.0017207127 0.0027964082  0.005100014 
     367     -1152449            0     -1152449 5.830683e-06 -1.2339456e-07 -9.281074e-06 
Loop time of 3.56018 on 52 procs for 157 steps with 288751 atoms

99.9% CPU use with 52 MPI tasks x 1 OpenMP threads

Minimization stats:
  Stopping criterion = linesearch alpha is zero
  Energy initial, next-to-last, final = 
     -1152448.97154921  -1152448.97202218  -1152448.97202218
  Force two-norm initial, final = 0.08775622 0.00010788536
  Force max component initial, final = 0.041853667 3.0084456e-05
  Final line search alpha, max atom move = 0.5 1.5042228e-05
  Iterations, force evaluations = 157 315

MPI task timing breakdown:
Section |  min time  |  avg time  |  max time  |%varavg| %total
---------------------------------------------------------------
Pair    | 0.89976    | 2.5164     | 3.3443     |  43.8 | 70.68
Neigh   | 0          | 0          | 0          |   0.0 |  0.00
Comm    | 0.052696   | 0.56915    | 1.7612     |  66.0 | 15.99
Output  | 0          | 0          | 0          |   0.0 |  0.00
Modify  | 7.5015e-05 | 0.005316   | 0.01121    |   3.4 |  0.15
Other   |            | 0.4693     |            |       | 13.18

Nlocal:        5552.90 ave        7900 max           0 min
Histogram: 4 2 2 0 2 6 4 0 14 18
Nghost:        6213.69 ave        8768 max         412 min
Histogram: 4 0 4 0 8 0 4 5 7 20
Neighs:       158427.0 ave      230170 max           0 min
Histogram: 4 2 2 0 5 3 4 4 12 16

Total # of neighbors = 8238206
Ave neighs/atom = 28.530485
Neighbor list builds = 0
Dangerous builds = 0
Setting atom values ...
  1 settings made for x
  1 settings made for y
  1 settings made for z
Setting up cg style minimization ...
  Unit style    : metal
  Current step  : 367
Per MPI rank memory allocation (min/avg/max) = 5.465 | 6.344 | 6.728 Mbytes
Step PotEng KinEng TotEng v_fx v_fy v_fz 
     367     -1152449            0     -1152449 0.0058889273     0.019748  0.001845272 
     545     -1152449            0     -1152449 4.0634633e-05 7.9088936e-06 -3.7699369e-05 
Loop time of 3.97327 on 52 procs for 178 steps with 288751 atoms

99.9% CPU use with 52 MPI tasks x 1 OpenMP threads

Minimization stats:
  Stopping criterion = energy tolerance
  Energy initial, next-to-last, final = 
     -1152448.96937601  -1152448.97109768  -1152448.97109768
  Force two-norm initial, final = 0.15685435 0.00021895777
  Force max component initial, final = 0.089828004 4.4569541e-05
  Final line search alpha, max atom move = 1.0000000 4.4569541e-05
  Iterations, force evaluations = 178 356

MPI task timing breakdown:
Section |  min time  |  avg time  |  max time  |%varavg| %total
---------------------------------------------------------------
Pair    | 1.0168     | 2.8359     | 3.7408     |  46.4 | 71.38
Neigh   | 0          | 0          | 0          |   0.0 |  0.00
Comm    | 0.054834   | 0.63466    | 1.9873     |  70.8 | 15.97
Output  | 0          | 0          | 0          |   0.0 |  0.00
Modify  | 7.5598e-05 | 0.0060069  | 0.012658   |   3.6 |  0.15
Other   |            | 0.4967     |            |       | 12.50

Nlocal:        5552.90 ave        7900 max           0 min
Histogram: 4 2 2 0 2 6 4 0 14 18
Nghost:        6213.69 ave        8768 max         412 min
Histogram: 4 0 4 0 8 0 4 5 7 20
Neighs:       158427.0 ave      230180 max           0 min
Histogram: 4 2 2 0 5 3 4 4 12 16

Total # of neighbors = 8238203
Ave neighs/atom = 28.530474
Neighbor list builds = 0
Dangerous builds = 0
The dot product: -4.77586209365371e-07
Setting atom values ...
  1 settings made for x
  1 settings made for y
  1 settings made for z
Setting up cg style minimization ...
  Unit style    : metal
  Current step  : 545
Per MPI rank memory allocation (min/avg/max) = 5.465 | 6.344 | 6.728 Mbytes
Step PotEng KinEng TotEng v_fx v_fy v_fz 
     545     -1152449            0     -1152449  0.016161785  0.033589927 -0.0043254329 
     705     -1152449            0     -1152449 9.8382013e-05 2.7165412e-08 -5.3743304e-05 
Loop time of 3.56267 on 52 procs for 160 steps with 288751 atoms

99.9% CPU use with 52 MPI tasks x 1 OpenMP threads

Minimization stats:
  Stopping criterion = energy tolerance
  Energy initial, next-to-last, final = 
     -1152448.96765695     -1152448.96948     -1152448.96948
  Force two-norm initial, final = 0.16337292 0.00037792778
  Force max component initial, final = 0.096690323 0.00013898977
  Final line search alpha, max atom move = 1.0000000 0.00013898977
  Iterations, force evaluations = 160 320

MPI task timing breakdown:
Section |  min time  |  avg time  |  max time  |%varavg| %total
---------------------------------------------------------------
Pair    | 0.91592    | 2.5579     | 3.3614     |  44.1 | 71.80
Neigh   | 0          | 0          | 0          |   0.0 |  0.00
Comm    | 0.049075   | 0.57072    | 1.7947     |  67.5 | 16.02
Output  | 0          | 0          | 0          |   0.0 |  0.00
Modify  | 6.8915e-05 | 0.0054039  | 0.011366   |   3.4 |  0.15
Other   |            | 0.4287     |            |       | 12.03

Nlocal:        5552.90 ave        7901 max           0 min
Histogram: 4 2 2 0 2 6 4 0 15 17
Nghost:        6213.65 ave        8768 max         412 min
Histogram: 4 0 4 0 8 0 4 5 7 20
Neighs:       158427.0 ave      230187 max           0 min
Histogram: 4 2 2 0 5 3 4 4 12 16

Total # of neighbors = 8238201
Ave neighs/atom = 28.530467
Neighbor list builds = 0
Dangerous builds = 0
The dot product: -1.12908394177538e-06
Setting atom values ...
  1 settings made for x
  1 settings made for y
  1 settings made for z
Setting up cg style minimization ...
  Unit style    : metal
  Current step  : 705
Per MPI rank memory allocation (min/avg/max) = 5.465 | 6.344 | 6.728 Mbytes
Step PotEng KinEng TotEng v_fx v_fy v_fz 
     705     -1152449            0     -1152449  0.029162903  0.038016673 -0.0087643593 
     883     -1152449            0     -1152449 -3.8887474e-05 -2.0526424e-06 1.2564475e-05 
Loop time of 3.99823 on 52 procs for 178 steps with 288751 atoms

99.9% CPU use with 52 MPI tasks x 1 OpenMP threads

Minimization stats:
  Stopping criterion = linesearch alpha is zero
  Energy initial, next-to-last, final = 
     -1152448.96521888   -1152448.9675892   -1152448.9675892
  Force two-norm initial, final = 0.17308907 0.00012616575
  Force max component initial, final = 0.095704503 3.8887474e-05
  Final line search alpha, max atom move = 0.5 1.9443737e-05
  Iterations, force evaluations = 178 357

MPI task timing breakdown:
Section |  min time  |  avg time  |  max time  |%varavg| %total
---------------------------------------------------------------
Pair    | 1.0206     | 2.8434     | 3.7521     |  46.4 | 71.12
Neigh   | 0          | 0          | 0          |   0.0 |  0.00
Comm    | 0.056504   | 0.63749    | 1.995      |  70.8 | 15.94
Output  | 0          | 0          | 0          |   0.0 |  0.00
Modify  | 8.1205e-05 | 0.0060263  | 0.012717   |   3.6 |  0.15
Other   |            | 0.5114     |            |       | 12.79

Nlocal:        5552.90 ave        7901 max           0 min
Histogram: 4 2 2 0 2 6 4 0 15 17
Nghost:        6213.65 ave        8768 max         412 min
Histogram: 4 0 4 0 8 0 4 5 7 20
Neighs:       158427.0 ave      230206 max           0 min
Histogram: 4 2 2 0 5 3 4 4 12 16

Total # of neighbors = 8238206
Ave neighs/atom = 28.530485
Neighbor list builds = 0
Dangerous builds = 0
The dot product: 9.50766884059894e-07
Setting atom values ...
  1 settings made for x
  1 settings made for y
  1 settings made for z
Setting up cg style minimization ...
  Unit style    : metal
  Current step  : 883
Per MPI rank memory allocation (min/avg/max) = 5.465 | 6.344 | 6.728 Mbytes
Step PotEng KinEng TotEng v_fx v_fy v_fz 
     883     -1152449            0     -1152449   0.03477652  0.034087616 -0.00094536047 
    1000     -1152449            0     -1152449 -0.00010260245 -1.2257336e-05 1.0911494e-06 
    1029     -1152449            0     -1152449 1.5671835e-05 1.5431916e-06 -1.6033942e-07 
Loop time of 3.28449 on 52 procs for 146 steps with 288751 atoms

99.9% CPU use with 52 MPI tasks x 1 OpenMP threads

Minimization stats:
  Stopping criterion = energy tolerance
  Energy initial, next-to-last, final = 
     -1152448.96331994  -1152448.96593115  -1152448.96593115
  Force two-norm initial, final = 0.19173768 0.00011919242
  Force max component initial, final = 0.082567884 2.9858809e-05
  Final line search alpha, max atom move = 1.0000000 2.9858809e-05
  Iterations, force evaluations = 146 292

MPI task timing breakdown:
Section |  min time  |  avg time  |  max time  |%varavg| %total
---------------------------------------------------------------
Pair    | 0.8334     | 2.3293     | 3.0977     |  42.1 | 70.92
Neigh   | 0          | 0          | 0          |   0.0 |  0.00
Comm    | 0.047471   | 0.52472    | 1.6253     |  63.8 | 15.98
Output  | 0.00031441 | 0.0003193  | 0.00049466 |   0.0 |  0.01
Modify  | 6.307e-05  | 0.0049268  | 0.010334   |   3.2 |  0.15
Other   |            | 0.4253     |            |       | 12.95

Nlocal:        5552.90 ave        7902 max           0 min
Histogram: 4 2 2 0 2 6 4 0 15 17
Nghost:        6213.69 ave        8769 max         412 min
Histogram: 4 0 4 0 8 0 4 5 7 20
Neighs:       158427.0 ave      230263 max           0 min
Histogram: 4 2 2 0 5 3 4 4 12 16

Total # of neighbors = 8238212
Ave neighs/atom = 28.530506
Neighbor list builds = 0
Dangerous builds = 0
The dot product: -2.3606998547734e-07
Setting atom values ...
  1 settings made for x
  1 settings made for y
  1 settings made for z
Setting up cg style minimization ...
  Unit style    : metal
  Current step  : 1029
Per MPI rank memory allocation (min/avg/max) = 5.465 | 6.344 | 6.728 Mbytes
Step PotEng KinEng TotEng v_fx v_fy v_fz 
    1029     -1152449            0     -1152449  0.047435333  0.032168212 0.0060396714 
    1264     -1152449            0     -1152449 1.5072677e-05  1.08335e-06 2.1729385e-06 
Loop time of 5.23627 on 52 procs for 235 steps with 288751 atoms

99.9% CPU use with 52 MPI tasks x 1 OpenMP threads

Minimization stats:
  Stopping criterion = linesearch alpha is zero
  Energy initial, next-to-last, final = 
     -1152448.96135819  -1152448.96446558  -1152448.96446558
  Force two-norm initial, final = 0.20502724 7.8243270e-05
  Force max component initial, final = 0.099019436 1.5072677e-05
  Final line search alpha, max atom move = 0.5 7.5363386e-06
  Iterations, force evaluations = 235 471

MPI task timing breakdown:
Section |  min time  |  avg time  |  max time  |%varavg| %total
---------------------------------------------------------------
Pair    | 1.3482     | 3.7484     | 4.9329     |  53.2 | 71.59
Neigh   | 0          | 0          | 0          |   0.0 |  0.00
Comm    | 0.06927    | 0.83868    | 2.6293     |  81.4 | 16.02
Output  | 0          | 0          | 0          |   0.0 |  0.00
Modify  | 9.3778e-05 | 0.007933   | 0.016835   |   4.1 |  0.15
Other   |            | 0.6413     |            |       | 12.25

Nlocal:        5552.90 ave        7903 max           0 min
Histogram: 4 2 2 0 2 6 4 0 15 17
Nghost:        6213.69 ave        8769 max         412 min
Histogram: 4 0 4 0 8 0 4 5 7 20
Neighs:       158427.0 ave      230299 max           0 min
Histogram: 4 2 2 0 5 3 4 4 12 16

Total # of neighbors = 8238215
Ave neighs/atom = 28.530516
Neighbor list builds = 0
Dangerous builds = 0
The dot product: -1.86632349828847e-07
Setting atom values ...
  1 settings made for x
  1 settings made for y
  1 settings made for z
Setting up cg style minimization ...
  Unit style    : metal
  Current step  : 1264
Per MPI rank memory allocation (min/avg/max) = 5.465 | 6.344 | 6.728 Mbytes
Step PotEng KinEng TotEng v_fx v_fy v_fz 
    1264     -1152449            0     -1152449  0.052773837  0.030254639  0.012618405 
    1426     -1152449            0     -1152449 2.2531256e-05 2.0929599e-06 5.640847e-06 
Loop time of 3.67704 on 52 procs for 162 steps with 288751 atoms

99.9% CPU use with 52 MPI tasks x 1 OpenMP threads

Minimization stats:
  Stopping criterion = linesearch alpha is zero
  Energy initial, next-to-last, final = 
     -1152448.96033802  -1152448.96295848  -1152448.96295848
  Force two-norm initial, final = 0.21456017 0.00019196187
  Force max component initial, final = 0.10958097 5.0439235e-05
  Final line search alpha, max atom move = 0.25 1.2609809e-05
  Iterations, force evaluations = 162 327

MPI task timing breakdown:
Section |  min time  |  avg time  |  max time  |%varavg| %total
---------------------------------------------------------------
Pair    | 0.93415    | 2.6103     | 3.4644     |  44.5 | 70.99
Neigh   | 0          | 0          | 0          |   0.0 |  0.00
Comm    | 0.047745   | 0.58563    | 1.8208     |  67.9 | 15.93
Output  | 0          | 0          | 0          |   0.0 |  0.00
Modify  | 7.5548e-05 | 0.0055008  | 0.011612   |   3.4 |  0.15
Other   |            | 0.4756     |            |       | 12.93

Nlocal:        5552.90 ave        7903 max           0 min
Histogram: 4 2 2 0 2 6 4 0 15 17
Nghost:        6213.62 ave        8769 max         412 min
Histogram: 4 0 4 0 8 0 4 5 7 20
Neighs:       158427.0 ave      230291 max           0 min
Histogram: 4 2 2 0 5 3 4 4 12 16

Total # of neighbors = 8238214
Ave neighs/atom = 28.530512
Neighbor list builds = 0
Dangerous builds = 0
The dot product: 1.81521687499431e-08
Setting atom values ...
  1 settings made for x
  1 settings made for y
  1 settings made for z
Setting up cg style minimization ...
  Unit style    : metal
  Current step  : 1426
Per MPI rank memory allocation (min/avg/max) = 5.465 | 6.344 | 6.728 Mbytes
Step PotEng KinEng TotEng v_fx v_fy v_fz 
    1426     -1152449            0     -1152449  0.062112576  0.032569992   0.01431015 
    1633     -1152449            0     -1152449 5.1234484e-06 3.8301686e-07 1.2552653e-06 
Loop time of 4.61657 on 52 procs for 207 steps with 288751 atoms

99.9% CPU use with 52 MPI tasks x 1 OpenMP threads

Minimization stats:
  Stopping criterion = linesearch alpha is zero
  Energy initial, next-to-last, final = 
     -1152448.95832834  -1152448.96079902  -1152448.96079902
  Force two-norm initial, final = 0.21720221 7.6102856e-05
  Force max component initial, final = 0.11006655 1.5463259e-05
  Final line search alpha, max atom move = 0.5 7.7316293e-06
  Iterations, force evaluations = 207 415

MPI task timing breakdown:
Section |  min time  |  avg time  |  max time  |%varavg| %total
---------------------------------------------------------------
Pair    | 1.1886     | 3.3033     | 4.3545     |  50.0 | 71.55
Neigh   | 0          | 0          | 0          |   0.0 |  0.00
Comm    | 0.06133    | 0.73752    | 2.3142     |  76.5 | 15.98
Output  | 0          | 0          | 0          |   0.0 |  0.00
Modify  | 8.5615e-05 | 0.0069993  | 0.014822   |   3.9 |  0.15
Other   |            | 0.5688     |            |       | 12.32

Nlocal:        5552.90 ave        7905 max           0 min
Histogram: 4 2 2 0 2 6 4 0 15 17
Nghost:        6213.62 ave        8769 max         412 min
Histogram: 4 0 4 0 8 0 4 5 7 20
Neighs:       158427.0 ave      230363 max           0 min
Histogram: 4 2 2 0 5 3 4 4 12 16

Total # of neighbors = 8238212
Ave neighs/atom = 28.530506
Neighbor list builds = 0
Dangerous builds = 0
The dot product: 2.72385061205519e-08
Setting atom values ...
  1 settings made for x
  1 settings made for y
  1 settings made for z
Setting up cg style minimization ...
  Unit style    : metal
  Current step  : 1633
Per MPI rank memory allocation (min/avg/max) = 5.465 | 6.344 | 6.728 Mbytes
Step PotEng KinEng TotEng v_fx v_fy v_fz 
    1633     -1152449            0     -1152449  0.069434019  0.034988827  0.013303854 
    1795     -1152449            0     -1152449 1.7168737e-07 8.5949547e-08 3.2921564e-08 
Loop time of 3.69085 on 52 procs for 162 steps with 288751 atoms

99.8% CPU use with 52 MPI tasks x 1 OpenMP threads

Minimization stats:
  Stopping criterion = linesearch alpha is zero
  Energy initial, next-to-last, final = 
     -1152448.95557598  -1152448.95817616  -1152448.95817616
  Force two-norm initial, final = 0.21717192 0.00012134335
  Force max component initial, final = 0.10761355 2.0694069e-05
  Final line search alpha, max atom move = 0.5 1.0347034e-05
  Iterations, force evaluations = 162 325

MPI task timing breakdown:
Section |  min time  |  avg time  |  max time  |%varavg| %total
---------------------------------------------------------------
Pair    | 0.94162    | 2.6099     | 3.4619     |  44.4 | 70.71
Neigh   | 0          | 0          | 0          |   0.0 |  0.00
Comm    | 0.050644   | 0.59335    | 1.8293     |  66.9 | 16.08
Output  | 0          | 0          | 0          |   0.0 |  0.00
Modify  | 7.0555e-05 | 0.0054879  | 0.011701   |   3.4 |  0.15
Other   |            | 0.4821     |            |       | 13.06

Nlocal:        5552.90 ave        7906 max           0 min
Histogram: 4 2 2 0 2 6 4 0 15 17
Nghost:        6213.62 ave        8769 max         412 min
Histogram: 4 0 4 0 8 0 4 5 7 20
Neighs:       158427.0 ave      230406 max           0 min
Histogram: 4 2 2 0 5 3 4 4 12 16

Total # of neighbors = 8238208
Ave neighs/atom = 28.530492
Neighbor list builds = 0
Dangerous builds = 0
The dot product: 9.26601241021555e-10
Setting atom values ...
  1 settings made for x
  1 settings made for y
  1 settings made for z
Setting up cg style minimization ...
  Unit style    : metal
  Current step  : 1795
Per MPI rank memory allocation (min/avg/max) = 5.465 | 6.344 | 6.728 Mbytes
Step PotEng KinEng TotEng v_fx v_fy v_fz 
    1795     -1152449            0     -1152449  0.072359473  0.036771746  0.011630271 
    1958     -1152449            0     -1152449 5.4413487e-05 4.3153946e-06 1.0094436e-05 
Loop time of 3.6257 on 52 procs for 163 steps with 288751 atoms

99.9% CPU use with 52 MPI tasks x 1 OpenMP threads

Minimization stats:
  Stopping criterion = energy tolerance
  Energy initial, next-to-last, final = 
     -1152448.95266631  -1152448.95497879  -1152448.95497879
  Force two-norm initial, final = 0.21632806 0.00026619051
  Force max component initial, final = 0.10563024 8.7522467e-05
  Final line search alpha, max atom move = 1.0000000 8.7522467e-05
  Iterations, force evaluations = 163 326

MPI task timing breakdown:
Section |  min time  |  avg time  |  max time  |%varavg| %total
---------------------------------------------------------------
Pair    | 0.93131    | 2.598      | 3.425      |  44.4 | 71.66
Neigh   | 0          | 0          | 0          |   0.0 |  0.00
Comm    | 0.048966   | 0.5781     | 1.8172     |  68.1 | 15.94
Output  | 0          | 0          | 0          |   0.0 |  0.00
Modify  | 7.2538e-05 | 0.0055024  | 0.011698   |   3.4 |  0.15
Other   |            | 0.4441     |            |       | 12.25

Nlocal:        5552.90 ave        7906 max           0 min
Histogram: 4 2 2 0 2 6 4 0 15 17
Nghost:        6213.62 ave        8769 max         412 min
Histogram: 4 0 4 0 8 0 4 5 7 20
Neighs:       158427.0 ave      230400 max           0 min
Histogram: 4 2 2 0 5 3 4 4 12 16

Total # of neighbors = 8238204
Ave neighs/atom = 28.530478
Neighbor list builds = 0
Dangerous builds = 0
The dot product: 3.53644892035228e-07
Setting atom values ...
  1 settings made for x
  1 settings made for y
  1 settings made for z
Setting up cg style minimization ...
  Unit style    : metal
  Current step  : 1958
Per MPI rank memory allocation (min/avg/max) = 5.465 | 6.344 | 6.728 Mbytes
Step PotEng KinEng TotEng v_fx v_fy v_fz 
    1958   -1152448.9            0   -1152448.9  0.077453803   0.03879863 0.0094742821 
    2000     -1152449            0     -1152449 -0.00021257374 -1.3532593e-05 -3.2662883e-05 
    2125     -1152449            0     -1152449 2.926699e-05 2.7792455e-06 4.4313577e-06 
Loop time of 3.72785 on 52 procs for 167 steps with 288751 atoms

99.9% CPU use with 52 MPI tasks x 1 OpenMP threads

Minimization stats:
  Stopping criterion = energy tolerance
  Energy initial, next-to-last, final = 
     -1152448.94874736  -1152448.95098849  -1152448.95098849
  Force two-norm initial, final = 0.21548366 0.00018408681
  Force max component initial, final = 0.1026638 5.9508449e-05
  Final line search alpha, max atom move = 1.0000000 5.9508449e-05
  Iterations, force evaluations = 167 334

MPI task timing breakdown:
Section |  min time  |  avg time  |  max time  |%varavg| %total
---------------------------------------------------------------
Pair    | 0.95462    | 2.6652     | 3.5175     |  45.0 | 71.49
Neigh   | 0          | 0          | 0          |   0.0 |  0.00
Comm    | 0.049585   | 0.59633    | 1.8657     |  68.6 | 16.00
Output  | 0.00026769 | 0.00027183 | 0.0004387  |   0.0 |  0.01
Modify  | 7.236e-05  | 0.0056359  | 0.011906   |   3.5 |  0.15
Other   |            | 0.4604     |            |       | 12.35

Nlocal:        5552.90 ave        7907 max           0 min
Histogram: 4 2 2 0 2 6 4 0 15 17
Nghost:        6213.62 ave        8769 max         412 min
Histogram: 4 0 4 0 8 0 4 5 7 20
Neighs:       158427.0 ave      230456 max           0 min
Histogram: 4 2 2 0 5 3 4 4 12 16

Total # of neighbors = 8238200
Ave neighs/atom = 28.530464
Neighbor list builds = 0
Dangerous builds = 0
The dot product: 2.32206556121937e-07
Setting atom values ...
  1 settings made for x
  1 settings made for y
  1 settings made for z
Setting up cg style minimization ...
  Unit style    : metal
  Current step  : 2125
Per MPI rank memory allocation (min/avg/max) = 5.465 | 6.344 | 6.728 Mbytes
Step PotEng KinEng TotEng v_fx v_fy v_fz 
    2125   -1152448.9            0   -1152448.9  0.081634836  0.040044983 0.0066491823 
    2286   -1152448.9            0   -1152448.9 5.5690933e-05 7.6299872e-06 6.2045947e-06 
Loop time of 3.62274 on 52 procs for 161 steps with 288751 atoms

99.9% CPU use with 52 MPI tasks x 1 OpenMP threads

Minimization stats:
  Stopping criterion = linesearch alpha is zero
  Energy initial, next-to-last, final = 
     -1152448.94404443  -1152448.94625403  -1152448.94625403
  Force two-norm initial, final = 0.21384357 0.00021486359
  Force max component initial, final = 0.098707229 5.9920334e-05
  Final line search alpha, max atom move = 0.25 1.4980084e-05
  Iterations, force evaluations = 161 325

MPI task timing breakdown:
Section |  min time  |  avg time  |  max time  |%varavg| %total
---------------------------------------------------------------
Pair    | 0.92928    | 2.5879     | 3.4208     |  44.2 | 71.44
Neigh   | 0          | 0          | 0          |   0.0 |  0.00
Comm    | 0.047789   | 0.57964    | 1.8136     |  67.6 | 16.00
Output  | 0          | 0          | 0          |   0.0 |  0.00
Modify  | 7.409e-05  | 0.0054723  | 0.011511   |   3.4 |  0.15
Other   |            | 0.4497     |            |       | 12.41

Nlocal:        5552.90 ave        7907 max           0 min
Histogram: 4 2 2 0 2 6 4 0 15 17
Nghost:        6213.65 ave        8769 max         412 min
Histogram: 4 0 4 0 8 0 4 5 7 20
Neighs:       158427.0 ave      230482 max           0 min
Histogram: 4 2 2 0 5 3 4 4 12 16

Total # of neighbors = 8238209
Ave neighs/atom = 28.530495
Neighbor list builds = 0
Dangerous builds = 0
The dot product: 4.84414245679508e-07
Setting atom values ...
  1 settings made for x
  1 settings made for y
  1 settings made for z
Setting up cg style minimization ...
  Unit style    : metal
  Current step  : 2286
Per MPI rank memory allocation (min/avg/max) = 5.465 | 6.344 | 6.728 Mbytes
Step PotEng KinEng TotEng v_fx v_fy v_fz 
    2286   -1152448.9            0   -1152448.9  0.084399632  0.040784959 0.0034860419 
    2424   -1152448.9            0   -1152448.9 5.0562523e-05 7.4637847e-06 3.7354399e-06 
Loop time of 3.10595 on 52 procs for 138 steps with 288751 atoms

99.9% CPU use with 52 MPI tasks x 1 OpenMP threads

Minimization stats:
  Stopping criterion = energy tolerance
  Energy initial, next-to-last, final = 
      -1152448.9386483   -1152448.9407417   -1152448.9407417
  Force two-norm initial, final = 0.21173293 0.00032416801
  Force max component initial, final = 0.094283324 5.0562523e-05
  Final line search alpha, max atom move = 1.0000000 5.0562523e-05
  Iterations, force evaluations = 138 276

MPI task timing breakdown:
Section |  min time  |  avg time  |  max time  |%varavg| %total
---------------------------------------------------------------
Pair    | 0.79067    | 2.2051     | 2.9313     |  40.9 | 71.00
Neigh   | 0          | 0          | 0          |   0.0 |  0.00
Comm    | 0.04062    | 0.49561    | 1.5407     |  62.3 | 15.96
Output  | 0          | 0          | 0          |   0.0 |  0.00
Modify  | 5.5015e-05 | 0.0046397  | 0.009827   |   3.1 |  0.15
Other   |            | 0.4006     |            |       | 12.90

Nlocal:        5552.90 ave        7908 max           0 min
Histogram: 4 2 2 0 2 6 4 0 15 17
Nghost:        6213.65 ave        8769 max         412 min
Histogram: 4 0 4 0 8 0 4 5 7 20
Neighs:       158427.0 ave      230520 max           0 min
Histogram: 4 2 2 0 5 3 4 4 12 16

Total # of neighbors = 8238204
Ave neighs/atom = 28.530478
Neighbor list builds = 0
Dangerous builds = 0
The dot product: 3.93385751561626e-07
Setting atom values ...
  1 settings made for x
  1 settings made for y
  1 settings made for z
Setting up cg style minimization ...
  Unit style    : metal
  Current step  : 2424
Per MPI rank memory allocation (min/avg/max) = 5.465 | 6.344 | 6.728 Mbytes
Step PotEng KinEng TotEng v_fx v_fy v_fz 
    2424   -1152448.9            0   -1152448.9  0.084451616  0.041835468 0.00044315356 
    2560   -1152448.9            0   -1152448.9 -0.00010406307 -1.8238341e-05 -4.2360497e-06 
Loop time of 3.03894 on 52 procs for 136 steps with 288751 atoms

99.9% CPU use with 52 MPI tasks x 1 OpenMP threads

Minimization stats:
  Stopping criterion = energy tolerance
  Energy initial, next-to-last, final = 
     -1152448.93238905  -1152448.93439582  -1152448.93439582
  Force two-norm initial, final = 0.20934767 0.00034642983
  Force max component initial, final = 0.090386211 0.00010406307
  Final line search alpha, max atom move = 1.0000000 0.00010406307
  Iterations, force evaluations = 136 272

MPI task timing breakdown:
Section |  min time  |  avg time  |  max time  |%varavg| %total
---------------------------------------------------------------
Pair    | 0.77956    | 2.1682     | 2.8671     |  40.5 | 71.35
Neigh   | 0          | 0          | 0          |   0.0 |  0.00
Comm    | 0.039988   | 0.48601    | 1.5223     |  61.8 | 15.99
Output  | 0          | 0          | 0          |   0.0 |  0.00
Modify  | 5.3925e-05 | 0.0045827  | 0.0097018  |   3.1 |  0.15
Other   |            | 0.3801     |            |       | 12.51

Nlocal:        5552.90 ave        7908 max           0 min
Histogram: 4 2 2 0 2 6 4 0 15 17
Nghost:        6213.62 ave        8769 max         412 min
Histogram: 4 0 4 0 8 0 4 5 7 20
Neighs:       158427.0 ave      230521 max           0 min
Histogram: 4 2 2 0 5 3 4 4 12 16

Total # of neighbors = 8238201
Ave neighs/atom = 28.530467
Neighbor list builds = 0
Dangerous builds = 0
The dot product: -7.28609738839898e-07
Setting atom values ...
  1 settings made for x
  1 settings made for y
  1 settings made for z
Setting up cg style minimization ...
  Unit style    : metal
  Current step  : 2560
Per MPI rank memory allocation (min/avg/max) = 5.465 | 6.344 | 6.728 Mbytes
Step PotEng KinEng TotEng v_fx v_fy v_fz 
    2560   -1152448.9            0   -1152448.9  0.083488672  0.038357455 -0.001687322 
    2738   -1152448.9            0   -1152448.9 -5.1203657e-06 7.6547488e-07 -2.8872196e-07 
Loop time of 4.01727 on 52 procs for 178 steps with 288751 atoms

99.9% CPU use with 52 MPI tasks x 1 OpenMP threads

Minimization stats:
  Stopping criterion = linesearch alpha is zero
  Energy initial, next-to-last, final = 
     -1152448.92520086  -1152448.92710641  -1152448.92710641
  Force two-norm initial, final = 0.20586899 9.5366099e-05
  Force max component initial, final = 0.086831873 1.3691078e-05
  Final line search alpha, max atom move = 0.5 6.8455390e-06
  Iterations, force evaluations = 178 357

MPI task timing breakdown:
Section |  min time  |  avg time  |  max time  |%varavg| %total
---------------------------------------------------------------
Pair    | 1.0168     | 2.8447     | 3.7849     |  46.5 | 70.81
Neigh   | 0          | 0          | 0          |   0.0 |  0.00
Comm    | 0.05242    | 0.6426     | 1.9907     |  70.5 | 16.00
Output  | 0          | 0          | 0          |   0.0 |  0.00
Modify  | 8.086e-05  | 0.0059945  | 0.012606   |   3.6 |  0.15
Other   |            | 0.524      |            |       | 13.04

Nlocal:        5552.90 ave        7909 max           0 min
Histogram: 4 2 2 0 2 6 4 0 15 17
Nghost:        6213.65 ave        8769 max         412 min
Histogram: 4 0 4 0 8 0 4 5 7 20
Neighs:       158427.0 ave      230550 max           0 min
Histogram: 4 2 2 0 5 3 4 4 12 16

Total # of neighbors = 8238200
Ave neighs/atom = 28.530464
Neighbor list builds = 0
Dangerous builds = 0
The dot product: -2.61034613392776e-08
Setting atom values ...
  1 settings made for x
  1 settings made for y
  1 settings made for z
Setting up cg style minimization ...
  Unit style    : metal
  Current step  : 2738
Per MPI rank memory allocation (min/avg/max) = 5.465 | 6.344 | 6.728 Mbytes
Step PotEng KinEng TotEng v_fx v_fy v_fz 
    2738   -1152448.9            0   -1152448.9  0.082869599   0.02827111 -0.0023048042 
    2903   -1152448.9            0   -1152448.9 1.8530123e-05 2.6280586e-06 -1.0395909e-08 
Loop time of 3.67863 on 52 procs for 165 steps with 288751 atoms

99.9% CPU use with 52 MPI tasks x 1 OpenMP threads

Minimization stats:
  Stopping criterion = linesearch alpha is zero
  Energy initial, next-to-last, final = 
     -1152448.91674791  -1152448.91861991  -1152448.91861991
  Force two-norm initial, final = 0.20256408 0.00014400895
  Force max component initial, final = 0.084231924 1.8530123e-05
  Final line search alpha, max atom move = 0.5 9.2650613e-06
  Iterations, force evaluations = 165 331

MPI task timing breakdown:
Section |  min time  |  avg time  |  max time  |%varavg| %total
---------------------------------------------------------------
Pair    | 0.94698    | 2.6326     | 3.4754     |  44.7 | 71.56
Neigh   | 0          | 0          | 0          |   0.0 |  0.00
Comm    | 0.048711   | 0.58971    | 1.8448     |  68.1 | 16.03
Output  | 0          | 0          | 0          |   0.0 |  0.00
Modify  | 7.3067e-05 | 0.0055757  | 0.011845   |   3.5 |  0.15
Other   |            | 0.4508     |            |       | 12.25

Nlocal:        5552.90 ave        7909 max           0 min
Histogram: 4 2 2 0 2 6 4 0 15 17
Nghost:        6213.65 ave        8769 max         412 min
Histogram: 4 0 4 0 8 0 4 5 7 20
Neighs:       158427.0 ave      230550 max           0 min
Histogram: 4 2 2 0 5 3 4 4 12 16

Total # of neighbors = 8238198
Ave neighs/atom = 28.530457
Neighbor list builds = 0
Dangerous builds = 0
The dot product: 9.44547878120094e-08
Setting atom values ...
  1 settings made for x
  1 settings made for y
  1 settings made for z
Setting up cg style minimization ...
  Unit style    : metal
  Current step  : 2903
Per MPI rank memory allocation (min/avg/max) = 5.465 | 6.344 | 6.728 Mbytes
Step PotEng KinEng TotEng v_fx v_fy v_fz 
    2903   -1152448.9            0   -1152448.9  0.082484673  0.021511554 -0.0027533851 
    3000   -1152448.9            0   -1152448.9 0.00045865249 8.5023782e-05 -1.0435368e-05 
    3071   -1152448.9            0   -1152448.9 4.6509424e-05 8.6223781e-06 -1.0582756e-06 
Loop time of 3.7789 on 52 procs for 168 steps with 288751 atoms

99.9% CPU use with 52 MPI tasks x 1 OpenMP threads

Minimization stats:
  Stopping criterion = energy tolerance
  Energy initial, next-to-last, final = 
     -1152448.90692513  -1152448.90879065  -1152448.90879065
  Force two-norm initial, final = 0.20080593 0.00013471426
  Force max component initial, final = 0.0828193 4.9705020e-05
  Final line search alpha, max atom move = 1.0000000 4.9705020e-05
  Iterations, force evaluations = 168 336

MPI task timing breakdown:
Section |  min time  |  avg time  |  max time  |%varavg| %total
---------------------------------------------------------------
Pair    | 0.95998    | 2.6857     | 3.5618     |  45.2 | 71.07
Neigh   | 0          | 0          | 0          |   0.0 |  0.00
Comm    | 0.056616   | 0.6043     | 1.8813     |  68.6 | 15.99
Output  | 0.00025461 | 0.0002625  | 0.00043648 |   0.0 |  0.01
Modify  | 9.0496e-05 | 0.0056715  | 0.012058   |   3.5 |  0.15
Other   |            | 0.483      |            |       | 12.78

Nlocal:        5552.90 ave        7909 max           0 min
Histogram: 4 2 2 0 2 6 4 0 15 17
Nghost:        6213.65 ave        8769 max         412 min
Histogram: 4 0 4 0 8 0 4 5 7 20
Neighs:       158427.0 ave      230550 max           0 min
Histogram: 4 2 2 0 5 3 4 4 12 16

Total # of neighbors = 8238198
Ave neighs/atom = 28.530457
Neighbor list builds = 0
Dangerous builds = 0
The dot product: 2.02525753265302e-07
Setting atom values ...
  1 settings made for x
  1 settings made for y
  1 settings made for z
Setting up cg style minimization ...
  Unit style    : metal
  Current step  : 3071
Per MPI rank memory allocation (min/avg/max) = 5.465 | 6.344 | 6.728 Mbytes
Step PotEng KinEng TotEng v_fx v_fy v_fz 
    3071   -1152448.9            0   -1152448.9  0.082130025  0.017767874 -0.0032885327 
    3243   -1152448.9            0   -1152448.9 3.0841688e-06 -3.8580434e-07 2.5444392e-08 
Loop time of 3.82999 on 52 procs for 172 steps with 288751 atoms

99.9% CPU use with 52 MPI tasks x 1 OpenMP threads

Minimization stats:
  Stopping criterion = energy tolerance
  Energy initial, next-to-last, final = 
     -1152448.89573959  -1152448.89760694  -1152448.89760694
  Force two-norm initial, final = 0.19974859 0.00012246586
  Force max component initial, final = 0.08376888 8.9957660e-06
  Final line search alpha, max atom move = 1.0000000 8.9957660e-06
  Iterations, force evaluations = 172 344

MPI task timing breakdown:
Section |  min time  |  avg time  |  max time  |%varavg| %total
---------------------------------------------------------------
Pair    | 0.9824     | 2.7395     | 3.617      |  45.5 | 71.53
Neigh   | 0          | 0          | 0          |   0.0 |  0.00
Comm    | 0.051171   | 0.6107     | 1.9147     |  69.7 | 15.95
Output  | 0          | 0          | 0          |   0.0 |  0.00
Modify  | 7.379e-05  | 0.0058004  | 0.012305   |   3.5 |  0.15
Other   |            | 0.474      |            |       | 12.37

Nlocal:        5552.90 ave        7910 max           0 min
Histogram: 4 2 2 0 2 6 4 0 15 17
Nghost:        6213.62 ave        8769 max         412 min
Histogram: 4 0 4 0 8 0 4 5 7 20
Neighs:       158427.0 ave      230580 max           0 min
Histogram: 4 2 2 0 5 3 4 4 12 16

Total # of neighbors = 8238200
Ave neighs/atom = 28.530464
Neighbor list builds = 0
Dangerous builds = 0
The dot product: 1.06517427333873e-08
Setting atom values ...
  1 settings made for x
  1 settings made for y
  1 settings made for z
Setting up cg style minimization ...
  Unit style    : metal
  Current step  : 3243
Per MPI rank memory allocation (min/avg/max) = 5.465 | 6.344 | 6.728 Mbytes
Step PotEng KinEng TotEng v_fx v_fy v_fz 
    3243   -1152448.9            0   -1152448.9    0.0809946  0.015047218 -0.003655391 
    3419   -1152448.9            0   -1152448.9 -3.5636569e-05 -4.3822571e-06 1.2936027e-06 
Loop time of 3.98335 on 52 procs for 176 steps with 288751 atoms

99.9% CPU use with 52 MPI tasks x 1 OpenMP threads

Minimization stats:
  Stopping criterion = linesearch alpha is zero
  Energy initial, next-to-last, final = 
     -1152448.88322212  -1152448.88513998  -1152448.88513998
  Force two-norm initial, final = 0.1988391 0.000186842
  Force max component initial, final = 0.085295313 6.9967150e-05
  Final line search alpha, max atom move = 0.25 1.7491787e-05
  Iterations, force evaluations = 176 355

MPI task timing breakdown:
Section |  min time  |  avg time  |  max time  |%varavg| %total
---------------------------------------------------------------
Pair    | 1.0162     | 2.8391     | 3.7462     |  46.4 | 71.27
Neigh   | 0          | 0          | 0          |   0.0 |  0.00
Comm    | 0.052648   | 0.63619    | 1.9981     |  70.7 | 15.97
Output  | 0          | 0          | 0          |   0.0 |  0.00
Modify  | 6.8292e-05 | 0.0059778  | 0.012634   |   3.6 |  0.15
Other   |            | 0.502      |            |       | 12.60

Nlocal:        5552.90 ave        7910 max           0 min
Histogram: 4 2 2 0 2 6 4 0 15 17
Nghost:        6213.67 ave        8770 max         412 min
Histogram: 4 0 4 0 8 0 4 5 7 20
Neighs:       158427.0 ave      230587 max           0 min
Histogram: 4 2 2 0 5 3 4 4 12 16

Total # of neighbors = 8238197
Ave neighs/atom = 28.530454
Neighbor list builds = 0
Dangerous builds = 0
The dot product: -2.04900785963822e-09
Setting atom values ...
  1 settings made for x
  1 settings made for y
  1 settings made for z
Setting up cg style minimization ...
  Unit style    : metal
  Current step  : 3419
Per MPI rank memory allocation (min/avg/max) = 5.465 | 6.344 | 6.728 Mbytes
Step PotEng KinEng TotEng v_fx v_fy v_fz 
    3419   -1152448.9            0   -1152448.9  0.075937318  0.013364697 -0.0033289843 
    3580   -1152448.9            0   -1152448.9 2.3638194e-06 -8.1721557e-08 -3.4293135e-08 
Loop time of 3.61324 on 52 procs for 161 steps with 288751 atoms

99.9% CPU use with 52 MPI tasks x 1 OpenMP threads

Minimization stats:
  Stopping criterion = linesearch alpha is zero
  Energy initial, next-to-last, final = 
     -1152448.86961153  -1152448.87216319  -1152448.87216319
  Force two-norm initial, final = 0.19723764 7.7306764e-05
  Force max component initial, final = 0.085921144 1.7648706e-05
  Final line search alpha, max atom move = 0.5 8.8243529e-06
  Iterations, force evaluations = 161 323

MPI task timing breakdown:
Section |  min time  |  avg time  |  max time  |%varavg| %total
---------------------------------------------------------------
Pair    | 0.92116    | 2.5768     | 3.4019     |  44.3 | 71.32
Neigh   | 0          | 0          | 0          |   0.0 |  0.00
Comm    | 0.048019   | 0.57648    | 1.8053     |  67.6 | 15.95
Output  | 0          | 0          | 0          |   0.0 |  0.00
Modify  | 6.4877e-05 | 0.0054345  | 0.011439   |   3.4 |  0.15
Other   |            | 0.4545     |            |       | 12.58

Nlocal:        5552.90 ave        7911 max           0 min
Histogram: 4 2 2 0 2 6 4 0 15 17
Nghost:        6213.67 ave        8770 max         412 min
Histogram: 4 0 4 0 8 0 4 5 7 20
Neighs:       158427.0 ave      230609 max           0 min
Histogram: 4 2 2 0 5 3 4 4 12 16

Total # of neighbors = 8238194
Ave neighs/atom = 28.530443
Neighbor list builds = 0
Dangerous builds = 0
The dot product: -4.10170950820991e-08
Setting atom values ...
  1 settings made for x
  1 settings made for y
  1 settings made for z
Setting up cg style minimization ...
  Unit style    : metal
  Current step  : 3580
Per MPI rank memory allocation (min/avg/max) = 5.465 | 6.344 | 6.728 Mbytes
Step PotEng KinEng TotEng v_fx v_fy v_fz 
    3580   -1152448.9            0   -1152448.9  0.050053868  0.013579783 -0.000636855 
    3766   -1152448.9            0   -1152448.9 -2.1559879e-05 -3.7817568e-06  -8.8726e-09 
Loop time of 4.17303 on 52 procs for 186 steps with 288751 atoms

99.9% CPU use with 52 MPI tasks x 1 OpenMP threads

Minimization stats:
  Stopping criterion = energy tolerance
  Energy initial, next-to-last, final = 
      -1152448.8564401  -1152448.85874538  -1152448.85874538
  Force two-norm initial, final = 0.1928543 0.00016313362
  Force max component initial, final = 0.085549379 3.5975169e-05
  Final line search alpha, max atom move = 1.0000000 3.5975169e-05
  Iterations, force evaluations = 186 372

MPI task timing breakdown:
Section |  min time  |  avg time  |  max time  |%varavg| %total
---------------------------------------------------------------
Pair    | 1.0606     | 2.9651     | 3.9448     |  47.5 | 71.05
Neigh   | 0          | 0          | 0          |   0.0 |  0.00
Comm    | 0.054729   | 0.66675    | 2.0685     |  72.1 | 15.98
Output  | 0          | 0          | 0          |   0.0 |  0.00
Modify  | 9.1978e-05 | 0.0062488  | 0.013184   |   3.6 |  0.15
Other   |            | 0.535      |            |       | 12.82

Nlocal:        5552.90 ave        7912 max           0 min
Histogram: 4 2 2 0 2 6 4 0 15 17
Nghost:        6213.69 ave        8770 max         412 min
Histogram: 4 0 4 0 8 0 4 5 7 20
Neighs:       158427.0 ave      230626 max           0 min
Histogram: 4 2 2 0 5 3 4 4 12 16

Total # of neighbors = 8238193
Ave neighs/atom = 28.530440
Neighbor list builds = 0
Dangerous builds = 0
The dot product: 3.06237723091971e-07
Setting atom values ...
  1 settings made for x
  1 settings made for y
  1 settings made for z
Setting up cg style minimization ...
  Unit style    : metal
  Current step  : 3766
Per MPI rank memory allocation (min/avg/max) = 5.465 | 6.344 | 6.728 Mbytes
Step PotEng KinEng TotEng v_fx v_fy v_fz 
    3766   -1152448.8            0   -1152448.8  0.055703083  0.011941175 0.0016313423 
    3936   -1152448.8            0   -1152448.8 4.715243e-05 1.0044957e-05 1.3893469e-06 
Loop time of 3.79575 on 52 procs for 170 steps with 288751 atoms

99.9% CPU use with 52 MPI tasks x 1 OpenMP threads

Minimization stats:
  Stopping criterion = energy tolerance
  Energy initial, next-to-last, final = 
     -1152448.84183794  -1152448.84390702  -1152448.84390702
  Force two-norm initial, final = 0.1971325 0.0002115888
  Force max component initial, final = 0.089873632 5.7933693e-05
  Final line search alpha, max atom move = 1.0000000 5.7933693e-05
  Iterations, force evaluations = 170 340

MPI task timing breakdown:
Section |  min time  |  avg time  |  max time  |%varavg| %total
---------------------------------------------------------------
Pair    | 0.97152    | 2.7075     | 3.5819     |  45.3 | 71.33
Neigh   | 0          | 0          | 0          |   0.0 |  0.00
Comm    | 0.050654   | 0.60806    | 1.898      |  68.9 | 16.02
Output  | 0          | 0          | 0          |   0.0 |  0.00
Modify  | 6.7313e-05 | 0.0057443  | 0.012239   |   3.5 |  0.15
Other   |            | 0.4744     |            |       | 12.50

Nlocal:        5552.90 ave        7913 max           0 min
Histogram: 4 2 2 0 2 6 4 1 14 17
Nghost:        6213.73 ave        8770 max         412 min
Histogram: 4 0 4 0 8 0 4 5 7 20
Neighs:       158427.0 ave      230645 max           0 min
Histogram: 4 2 2 0 5 3 4 4 12 16

Total # of neighbors = 8238192
Ave neighs/atom = 28.530436
Neighbor list builds = 0
Dangerous builds = 0
The dot product: -5.19304455903296e-07
Setting atom values ...
  1 settings made for x
  1 settings made for y
  1 settings made for z
Setting up cg style minimization ...
  Unit style    : metal
  Current step  : 3936
Per MPI rank memory allocation (min/avg/max) = 5.465 | 6.344 | 6.728 Mbytes
Step PotEng KinEng TotEng v_fx v_fy v_fz 
    3936   -1152448.8            0   -1152448.8  0.061058328  0.009384573 0.0038029542 
    4000   -1152448.8            0   -1152448.8 0.00014103282 3.4240411e-06 1.1117352e-05 
    4135   -1152448.8            0   -1152448.8 -3.6307788e-05 -7.4344717e-06 -2.0243878e-06 
Loop time of 4.47522 on 52 procs for 199 steps with 288751 atoms

99.9% CPU use with 52 MPI tasks x 1 OpenMP threads

Minimization stats:
  Stopping criterion = energy tolerance
  Energy initial, next-to-last, final = 
     -1152448.82564596  -1152448.82780282  -1152448.82780282
  Force two-norm initial, final = 0.20065493 0.00010296172
  Force max component initial, final = 0.094319867 3.6307788e-05
  Final line search alpha, max atom move = 1.0000000 3.6307788e-05
  Iterations, force evaluations = 199 398

MPI task timing breakdown:
Section |  min time  |  avg time  |  max time  |%varavg| %total
---------------------------------------------------------------
Pair    | 1.1389     | 3.179      | 4.2307     |  49.2 | 71.04
Neigh   | 0          | 0          | 0          |   0.0 |  0.00
Comm    | 0.058737   | 0.71421    | 2.2249     |  75.0 | 15.96
Output  | 0.00017092 | 0.00017552 | 0.00034778 |   0.0 |  0.00
Modify  | 9.6789e-05 | 0.0066945  | 0.014146   |   3.8 |  0.15
Other   |            | 0.5752     |            |       | 12.85

Nlocal:        5552.90 ave        7914 max           0 min
Histogram: 4 2 2 0 2 6 4 1 14 17
Nghost:        6213.73 ave        8770 max         412 min
Histogram: 4 0 4 0 8 0 4 5 7 20
Neighs:       158427.0 ave      230677 max           0 min
Histogram: 4 2 2 0 5 3 4 4 12 16

Total # of neighbors = 8238191
Ave neighs/atom = 28.530433
Neighbor list builds = 0
Dangerous builds = 0
The dot product: 3.52470338991699e-07
Setting atom values ...
  1 settings made for x
  1 settings made for y
  1 settings made for z
Setting up cg style minimization ...
  Unit style    : metal
  Current step  : 4135
Per MPI rank memory allocation (min/avg/max) = 5.465 | 6.344 | 6.728 Mbytes
Step PotEng KinEng TotEng v_fx v_fy v_fz 
    4135   -1152448.8            0   -1152448.8  0.063748467 0.0079205624  0.005537672 
    4314   -1152448.8            0   -1152448.8 2.0702521e-05 4.568631e-06 1.5550403e-06 
Loop time of 3.99776 on 52 procs for 179 steps with 288751 atoms

99.9% CPU use with 52 MPI tasks x 1 OpenMP threads

Minimization stats:
  Stopping criterion = linesearch alpha is zero
  Energy initial, next-to-last, final = 
     -1152448.80826597  -1152448.81028407  -1152448.81028407
  Force two-norm initial, final = 0.2030465 0.00014437147
  Force max component initial, final = 0.097978565 2.0702521e-05
  Final line search alpha, max atom move = 0.5 1.0351260e-05
  Iterations, force evaluations = 179 359

MPI task timing breakdown:
Section |  min time  |  avg time  |  max time  |%varavg| %total
---------------------------------------------------------------
Pair    | 1.0248     | 2.8569     | 3.7776     |  46.6 | 71.46
Neigh   | 0          | 0          | 0          |   0.0 |  0.00
Comm    | 0.05269    | 0.64006    | 2.0034     |  71.0 | 16.01
Output  | 0          | 0          | 0          |   0.0 |  0.00
Modify  | 7.2617e-05 | 0.0060461  | 0.012911   |   3.6 |  0.15
Other   |            | 0.4948     |            |       | 12.38

Nlocal:        5552.90 ave        7917 max           0 min
Histogram: 4 2 2 0 2 6 4 1 14 17
Nghost:        6213.73 ave        8770 max         412 min
Histogram: 4 0 4 0 8 0 4 5 7 20
Neighs:       158427.0 ave      230783 max           0 min
Histogram: 4 2 2 0 5 3 4 4 12 16

Total # of neighbors = 8238192
Ave neighs/atom = 28.530436
Neighbor list builds = 0
Dangerous builds = 0
The dot product: -1.09807244491923e-07
Setting atom values ...
  1 settings made for x
  1 settings made for y
  1 settings made for z
Setting up cg style minimization ...
  Unit style    : metal
  Current step  : 4314
Per MPI rank memory allocation (min/avg/max) = 5.465 | 6.344 | 6.728 Mbytes
Step PotEng KinEng TotEng v_fx v_fy v_fz 
    4314   -1152448.8            0   -1152448.8  0.072075913 0.0084527656 0.0070941837 
    4470   -1152448.8            0   -1152448.8 6.6322697e-05 1.3328758e-05 5.8754644e-06 
Loop time of 3.53104 on 52 procs for 156 steps with 288751 atoms

99.9% CPU use with 52 MPI tasks x 1 OpenMP threads

Minimization stats:
  Stopping criterion = energy tolerance
  Energy initial, next-to-last, final = 
     -1152448.78935859  -1152448.79133188  -1152448.79133188
  Force two-norm initial, final = 0.20663479 0.00020576658
  Force max component initial, final = 0.09995916 6.6322697e-05
  Final line search alpha, max atom move = 1.0000000 6.6322697e-05
  Iterations, force evaluations = 156 312

MPI task timing breakdown:
Section |  min time  |  avg time  |  max time  |%varavg| %total
---------------------------------------------------------------
Pair    | 0.88866    | 2.4944     | 3.3103     |  43.6 | 70.64
Neigh   | 0          | 0          | 0          |   0.0 |  0.00
Comm    | 0.047351   | 0.56292    | 1.7486     |  66.3 | 15.94
Output  | 0          | 0          | 0          |   0.0 |  0.00
Modify  | 7.0012e-05 | 0.0052603  | 0.01125    |   3.4 |  0.15
Other   |            | 0.4684     |            |       | 13.27

Nlocal:        5552.90 ave        7917 max           0 min
Histogram: 4 2 2 0 2 6 4 1 14 17
Nghost:        6213.65 ave        8769 max         412 min
Histogram: 4 0 4 0 8 0 4 5 7 20
Neighs:       158427.0 ave      230782 max           0 min
Histogram: 4 2 2 0 5 3 4 4 12 16

Total # of neighbors = 8238191
Ave neighs/atom = 28.530433
Neighbor list builds = 0
Dangerous builds = 0
The dot product: -1.19357933146285e-07
Setting atom values ...
  1 settings made for x
  1 settings made for y
  1 settings made for z
Setting up cg style minimization ...
  Unit style    : metal
  Current step  : 4470
Per MPI rank memory allocation (min/avg/max) = 5.465 | 6.344 | 6.728 Mbytes
Step PotEng KinEng TotEng v_fx v_fy v_fz 
    4470   -1152448.8            0   -1152448.8  0.078838286 0.0086193149 0.0080941902 
    4609   -1152448.8            0   -1152448.8 -6.7596955e-05 -1.278805e-05 -6.324862e-06 
Loop time of 3.10245 on 52 procs for 139 steps with 288751 atoms

99.9% CPU use with 52 MPI tasks x 1 OpenMP threads

Minimization stats:
  Stopping criterion = energy tolerance
  Energy initial, next-to-last, final = 
     -1152448.76898235  -1152448.77086977  -1152448.77086977
  Force two-norm initial, final = 0.2091306 0.00033910909
  Force max component initial, final = 0.10058024 9.3484871e-05
  Final line search alpha, max atom move = 1.0000000 9.3484871e-05
  Iterations, force evaluations = 139 278

MPI task timing breakdown:
Section |  min time  |  avg time  |  max time  |%varavg| %total
---------------------------------------------------------------
Pair    | 0.79633    | 2.2156     | 2.9315     |  41.0 | 71.42
Neigh   | 0          | 0          | 0          |   0.0 |  0.00
Comm    | 0.041002   | 0.4966     | 1.5527     |  62.4 | 16.01
Output  | 0          | 0          | 0          |   0.0 |  0.00
Modify  | 6.049e-05  | 0.0046896  | 0.0098741  |   3.2 |  0.15
Other   |            | 0.3855     |            |       | 12.43

Nlocal:        5552.90 ave        7917 max           0 min
Histogram: 4 2 2 0 2 6 4 1 14 17
Nghost:        6213.62 ave        8769 max         412 min
Histogram: 4 0 4 0 8 0 4 5 7 20
Neighs:       158427.0 ave      230774 max           0 min
Histogram: 4 2 2 0 5 3 4 4 12 16

Total # of neighbors = 8238188
Ave neighs/atom = 28.530422
Neighbor list builds = 0
Dangerous builds = 0
The dot product: -1.13228703516854e-07
Setting atom values ...
  1 settings made for x
  1 settings made for y
  1 settings made for z
Setting up cg style minimization ...
  Unit style    : metal
  Current step  : 4609
Per MPI rank memory allocation (min/avg/max) = 5.465 | 6.344 | 6.728 Mbytes
Step PotEng KinEng TotEng v_fx v_fy v_fz 
    4609   -1152448.7            0   -1152448.7  0.085244157 0.0082779616 0.0085651811 
    4747   -1152448.7            0   -1152448.7 -0.0001332647 -2.33255e-05 -1.2244126e-05 
Loop time of 3.08819 on 52 procs for 138 steps with 288751 atoms

99.9% CPU use with 52 MPI tasks x 1 OpenMP threads

Minimization stats:
  Stopping criterion = energy tolerance
  Energy initial, next-to-last, final = 
     -1152448.74701996  -1152448.74887958  -1152448.74887958
  Force two-norm initial, final = 0.21080122 0.00038169984
  Force max component initial, final = 0.099695642 0.00015620184
  Final line search alpha, max atom move = 1.0000000 0.00015620184
  Iterations, force evaluations = 138 276

MPI task timing breakdown:
Section |  min time  |  avg time  |  max time  |%varavg| %total
---------------------------------------------------------------
Pair    | 0.79069    | 2.2052     | 2.9039     |  40.9 | 71.41
Neigh   | 0          | 0          | 0          |   0.0 |  0.00
Comm    | 0.04067    | 0.49459    | 1.5549     |  62.5 | 16.02
Output  | 0          | 0          | 0          |   0.0 |  0.00
Modify  | 5.8811e-05 | 0.0046542  | 0.0099045  |   3.2 |  0.15
Other   |            | 0.3837     |            |       | 12.43

Nlocal:        5552.90 ave        7917 max           0 min
Histogram: 4 2 2 0 2 6 4 1 14 17
Nghost:        6213.62 ave        8768 max         412 min
Histogram: 4 0 4 0 8 0 4 5 7 20
Neighs:       158427.0 ave      230767 max           0 min
Histogram: 4 2 2 0 5 3 4 4 12 16

Total # of neighbors = 8238188
Ave neighs/atom = 28.530422
Neighbor list builds = 0
Dangerous builds = 0
The dot product: -5.19167690405549e-07
Setting atom values ...
  1 settings made for x
  1 settings made for y
  1 settings made for z
Setting up cg style minimization ...
  Unit style    : metal
  Current step  : 4747
Per MPI rank memory allocation (min/avg/max) = 5.465 | 6.344 | 6.728 Mbytes
Step PotEng KinEng TotEng v_fx v_fy v_fz 
    4747   -1152448.7            0   -1152448.7  0.089152121 0.0082590315 0.0083262074 
    4940   -1152448.7            0   -1152448.7 -1.0348403e-05 -2.2283611e-06 -8.3106229e-07 
Loop time of 4.31282 on 52 procs for 193 steps with 288751 atoms

99.9% CPU use with 52 MPI tasks x 1 OpenMP threads

Minimization stats:
  Stopping criterion = energy tolerance
  Energy initial, next-to-last, final = 
     -1152448.72353395   -1152448.7253704   -1152448.7253704
  Force two-norm initial, final = 0.21120042 4.0460910e-05
  Force max component initial, final = 0.09803413 1.1633571e-05
  Final line search alpha, max atom move = 1.0000000 1.1633571e-05
  Iterations, force evaluations = 193 386

MPI task timing breakdown:
Section |  min time  |  avg time  |  max time  |%varavg| %total
---------------------------------------------------------------
Pair    | 1.1058     | 3.0807     | 4.0683     |  48.3 | 71.43
Neigh   | 0          | 0          | 0          |   0.0 |  0.00
Comm    | 0.056485   | 0.68854    | 2.1553     |  73.8 | 15.96
Output  | 0          | 0          | 0          |   0.0 |  0.00
Modify  | 7.9571e-05 | 0.0064934  | 0.013732   |   3.7 |  0.15
Other   |            | 0.5371     |            |       | 12.45

Nlocal:        5552.90 ave        7917 max           0 min
Histogram: 4 2 2 0 2 6 4 1 14 17
Nghost:        6213.58 ave        8768 max         412 min
Histogram: 4 0 4 0 8 0 4 5 7 20
Neighs:       158427.0 ave      230769 max           0 min
Histogram: 4 2 2 0 5 3 4 4 12 16

Total # of neighbors = 8238186
Ave neighs/atom = 28.530415
Neighbor list builds = 0
Dangerous builds = 0
The dot product: -5.35284105925082e-08
Setting atom values ...
  1 settings made for x
  1 settings made for y
  1 settings made for z
Setting up cg style minimization ...
  Unit style    : metal
  Current step  : 4940
Per MPI rank memory allocation (min/avg/max) = 5.465 | 6.344 | 6.728 Mbytes
Step PotEng KinEng TotEng v_fx v_fy v_fz 
    4940   -1152448.7            0   -1152448.7  0.091322075 0.0089645309 0.0075863703 
    5000   -1152448.7            0   -1152448.7 0.00051287951 7.9584155e-05 3.9596222e-05 
    5110   -1152448.7            0   -1152448.7 1.1009005e-05 8.044737e-07 9.4298394e-07 
Loop time of 3.84242 on 52 procs for 170 steps with 288751 atoms

99.9% CPU use with 52 MPI tasks x 1 OpenMP threads

Minimization stats:
  Stopping criterion = energy tolerance
  Energy initial, next-to-last, final = 
     -1152448.69854976  -1152448.70035803  -1152448.70035803
  Force two-norm initial, final = 0.21081625 9.6083924e-05
  Force max component initial, final = 0.096025824 3.5706884e-05
  Final line search alpha, max atom move = 1.0000000 3.5706884e-05
  Iterations, force evaluations = 170 340

MPI task timing breakdown:
Section |  min time  |  avg time  |  max time  |%varavg| %total
---------------------------------------------------------------
Pair    | 0.97619    | 2.72       | 3.6243     |  45.4 | 70.79
Neigh   | 0          | 0          | 0          |   0.0 |  0.00
Comm    | 0.051856   | 0.61363    | 1.8972     |  68.9 | 15.97
Output  | 0.00031942 | 0.00032379 | 0.00049758 |   0.0 |  0.01
Modify  | 7.4262e-05 | 0.0057343  | 0.012303   |   3.5 |  0.15
Other   |            | 0.5027     |            |       | 13.08

Nlocal:        5552.90 ave        7917 max           0 min
Histogram: 4 2 2 0 2 6 4 1 14 17
Nghost:        6213.50 ave        8768 max         412 min
Histogram: 4 0 4 0 8 0 4 5 7 20
Neighs:       158427.0 ave      230771 max           0 min
Histogram: 4 2 2 0 5 3 4 4 12 16

Total # of neighbors = 8238188
Ave neighs/atom = 28.530422
Neighbor list builds = 0
Dangerous builds = 0
The dot product: 7.00010055697239e-08
Setting atom values ...
  1 settings made for x
  1 settings made for y
  1 settings made for z
Setting up cg style minimization ...
  Unit style    : metal
  Current step  : 5110
Per MPI rank memory allocation (min/avg/max) = 5.465 | 6.344 | 6.728 Mbytes
Step PotEng KinEng TotEng v_fx v_fy v_fz 
    5110   -1152448.7            0   -1152448.7  0.092002115  0.010559593  0.006484813 
    5278   -1152448.7            0   -1152448.7 -3.1625714e-06 4.887799e-07 -3.076489e-07 
Loop time of 3.74169 on 52 procs for 168 steps with 288751 atoms

99.9% CPU use with 52 MPI tasks x 1 OpenMP threads

Minimization stats:
  Stopping criterion = energy tolerance
  Energy initial, next-to-last, final = 
     -1152448.67209246  -1152448.67386495  -1152448.67386495
  Force two-norm initial, final = 0.20967648 9.7515522e-05
  Force max component initial, final = 0.093525171 1.1732846e-05
  Final line search alpha, max atom move = 1.0000000 1.1732846e-05
  Iterations, force evaluations = 168 336

MPI task timing breakdown:
Section |  min time  |  avg time  |  max time  |%varavg| %total
---------------------------------------------------------------
Pair    | 0.96253    | 2.6759     | 3.528      |  44.9 | 71.52
Neigh   | 0          | 0          | 0          |   0.0 |  0.00
Comm    | 0.051788   | 0.59736    | 1.8716     |  68.9 | 15.97
Output  | 0          | 0          | 0          |   0.0 |  0.00
Modify  | 7.6099e-05 | 0.0056746  | 0.011941   |   3.5 |  0.15
Other   |            | 0.4628     |            |       | 12.37

Nlocal:        5552.90 ave        7917 max           0 min
Histogram: 4 2 2 0 2 6 4 1 14 17
Nghost:        6213.52 ave        8768 max         412 min
Histogram: 4 0 4 0 8 0 4 5 7 20
Neighs:       158427.0 ave      230771 max           0 min
Histogram: 4 2 2 0 5 3 4 4 12 16

Total # of neighbors = 8238186
Ave neighs/atom = 28.530415
Neighbor list builds = 0
Dangerous builds = 0
The dot product: -2.33434958972396e-08
Setting atom values ...
  1 settings made for x
  1 settings made for y
  1 settings made for z
Setting up cg style minimization ...
  Unit style    : metal
  Current step  : 5278
Per MPI rank memory allocation (min/avg/max) = 5.465 | 6.344 | 6.728 Mbytes
Step PotEng KinEng TotEng v_fx v_fy v_fz 
    5278   -1152448.6            0   -1152448.6  0.091447131  0.013217967 0.0051273343 
    5444   -1152448.6            0   -1152448.6 -1.6647026e-06 -1.0965646e-06 -1.075907e-08 
Loop time of 3.74885 on 52 procs for 166 steps with 288751 atoms

99.9% CPU use with 52 MPI tasks x 1 OpenMP threads

Minimization stats:
  Stopping criterion = energy tolerance
  Energy initial, next-to-last, final = 
     -1152448.64418907  -1152448.64591956  -1152448.64591956
  Force two-norm initial, final = 0.20805448 0.00011075678
  Force max component initial, final = 0.091447131 2.0546873e-05
  Final line search alpha, max atom move = 1.0000000 2.0546873e-05
  Iterations, force evaluations = 166 332

MPI task timing breakdown:
Section |  min time  |  avg time  |  max time  |%varavg| %total
---------------------------------------------------------------
Pair    | 0.94966    | 2.6519     | 3.5313     |  44.9 | 70.74
Neigh   | 0          | 0          | 0          |   0.0 |  0.00
Comm    | 0.048593   | 0.59716    | 1.8471     |  68.0 | 15.93
Output  | 0          | 0          | 0          |   0.0 |  0.00
Modify  | 6.9974e-05 | 0.0055803  | 0.011812   |   3.4 |  0.15
Other   |            | 0.4942     |            |       | 13.18

Nlocal:        5552.90 ave        7917 max           0 min
Histogram: 4 2 2 0 2 6 4 1 14 17
Nghost:        6213.52 ave        8768 max         412 min
Histogram: 4 0 4 0 8 0 4 5 7 20
Neighs:       158427.0 ave      230752 max           0 min
Histogram: 4 2 2 0 5 3 4 4 12 16

Total # of neighbors = 8238188
Ave neighs/atom = 28.530422
Neighbor list builds = 0
Dangerous builds = 0
The dot product: -1.10334652394245e-08
Setting atom values ...
  1 settings made for x
  1 settings made for y
  1 settings made for z
Setting up cg style minimization ...
  Unit style    : metal
  Current step  : 5444
Per MPI rank memory allocation (min/avg/max) = 5.465 | 6.344 | 6.728 Mbytes
Step PotEng KinEng TotEng v_fx v_fy v_fz 
    5444   -1152448.6            0   -1152448.6   0.08975037  0.017230313 0.0035676144 
    5618   -1152448.6            0   -1152448.6 -3.7683677e-06 -1.6690751e-06 -6.0623828e-08 
Loop time of 3.89268 on 52 procs for 174 steps with 288751 atoms

99.9% CPU use with 52 MPI tasks x 1 OpenMP threads

Minimization stats:
  Stopping criterion = linesearch alpha is zero
  Energy initial, next-to-last, final = 
     -1152448.61487215  -1152448.61655851  -1152448.61655851
  Force two-norm initial, final = 0.20620507 9.0722029e-05
  Force max component initial, final = 0.08975037 1.3120186e-05
  Final line search alpha, max atom move = 0.5 6.5600931e-06
  Iterations, force evaluations = 174 349

MPI task timing breakdown:
Section |  min time  |  avg time  |  max time  |%varavg| %total
---------------------------------------------------------------
Pair    | 0.99873    | 2.777      | 3.678      |  45.9 | 71.34
Neigh   | 0          | 0          | 0          |   0.0 |  0.00
Comm    | 0.05234    | 0.6238     | 1.9459     |  69.8 | 16.02
Output  | 0          | 0          | 0          |   0.0 |  0.00
Modify  | 7.4156e-05 | 0.0058696  | 0.012387   |   3.5 |  0.15
Other   |            | 0.486      |            |       | 12.48

Nlocal:        5552.90 ave        7917 max           0 min
Histogram: 4 2 2 0 2 6 4 1 14 17
Nghost:        6213.52 ave        8768 max         412 min
Histogram: 4 0 4 0 8 0 4 5 7 20
Neighs:       158427.0 ave      230758 max           0 min
Histogram: 4 2 2 0 5 3 4 4 12 16

Total # of neighbors = 8238188
Ave neighs/atom = 28.530422
Neighbor list builds = 0
Dangerous builds = 0
The dot product: -2.85801373584547e-08
Setting atom values ...
  1 settings made for x
  1 settings made for y
  1 settings made for z
Setting up cg style minimization ...
  Unit style    : metal
  Current step  : 5618
Per MPI rank memory allocation (min/avg/max) = 5.465 | 6.344 | 6.728 Mbytes
Step PotEng KinEng TotEng v_fx v_fy v_fz 
    5618   -1152448.6            0   -1152448.6  0.086976488  0.022349762 0.0018779876 
    5787   -1152448.6            0   -1152448.6 1.5642206e-05 4.2709168e-07 6.735989e-07 
Loop time of 3.79966 on 52 procs for 169 steps with 288751 atoms

99.9% CPU use with 52 MPI tasks x 1 OpenMP threads

Minimization stats:
  Stopping criterion = linesearch alpha is zero
  Energy initial, next-to-last, final = 
     -1152448.58418995  -1152448.58583376  -1152448.58583376
  Force two-norm initial, final = 0.20423531 0.0001071451
  Force max component initial, final = 0.086976488 1.5642206e-05
  Final line search alpha, max atom move = 0.5 7.8211032e-06
  Iterations, force evaluations = 169 339

MPI task timing breakdown:
Section |  min time  |  avg time  |  max time  |%varavg| %total
---------------------------------------------------------------
Pair    | 0.96788    | 2.7101     | 3.5895     |  45.5 | 71.32
Neigh   | 0          | 0          | 0          |   0.0 |  0.00
Comm    | 0.053239   | 0.60678    | 1.8983     |  69.4 | 15.97
Output  | 0          | 0          | 0          |   0.0 |  0.00
Modify  | 8.1782e-05 | 0.0057002  | 0.012075   |   3.5 |  0.15
Other   |            | 0.4771     |            |       | 12.56

Nlocal:        5552.90 ave        7917 max           0 min
Histogram: 4 2 2 0 2 6 4 1 14 17
Nghost:        6213.56 ave        8768 max         412 min
Histogram: 4 0 4 0 8 0 4 5 7 20
Neighs:       158427.0 ave      230760 max           0 min
Histogram: 4 2 2 0 5 3 4 4 12 16

Total # of neighbors = 8238187
Ave neighs/atom = 28.530419
Neighbor list builds = 0
Dangerous builds = 0
The dot product: 1.26695396082566e-07
Setting atom values ...
  1 settings made for x
  1 settings made for y
  1 settings made for z
Setting up cg style minimization ...
  Unit style    : metal
  Current step  : 5787
Per MPI rank memory allocation (min/avg/max) = 5.465 | 6.344 | 6.728 Mbytes
Step PotEng KinEng TotEng v_fx v_fy v_fz 
    5787   -1152448.6            0   -1152448.6  0.083165539  0.029150247 4.2410465e-06 
    5995   -1152448.6            0   -1152448.6 -1.3437324e-05 -8.9740511e-07 -3.6296659e-07 
Loop time of 4.65132 on 52 procs for 208 steps with 288751 atoms

99.9% CPU use with 52 MPI tasks x 1 OpenMP threads

Minimization stats:
  Stopping criterion = linesearch alpha is zero
  Energy initial, next-to-last, final = 
     -1152448.55225946   -1152448.5538786   -1152448.5538786
  Force two-norm initial, final = 0.20224452 5.0820281e-05
  Force max component initial, final = 0.087915811 1.6731507e-05
  Final line search alpha, max atom move = 0.5 8.3657534e-06
  Iterations, force evaluations = 208 417

MPI task timing breakdown:
Section |  min time  |  avg time  |  max time  |%varavg| %total
---------------------------------------------------------------
Pair    | 1.1932     | 3.3186     | 4.3949     |  50.1 | 71.35
Neigh   | 0          | 0          | 0          |   0.0 |  0.00
Comm    | 0.062068   | 0.74314    | 2.3199     |  76.3 | 15.98
Output  | 0          | 0          | 0          |   0.0 |  0.00
Modify  | 8.5552e-05 | 0.0070216  | 0.014875   |   3.9 |  0.15
Other   |            | 0.5826     |            |       | 12.52

Nlocal:        5552.90 ave        7917 max           0 min
Histogram: 4 2 2 0 2 6 4 1 14 17
Nghost:        6213.56 ave        8768 max         412 min
Histogram: 4 0 4 0 8 0 4 5 7 20
Neighs:       158427.0 ave      230767 max           0 min
Histogram: 4 2 2 0 5 3 4 4 12 16

Total # of neighbors = 8238193
Ave neighs/atom = 28.530440
Neighbor list builds = 0
Dangerous builds = 0
The dot product: -1.24478548896043e-07
Setting atom values ...
  1 settings made for x
  1 settings made for y
  1 settings made for z
Setting up cg style minimization ...
  Unit style    : metal
  Current step  : 5995
Per MPI rank memory allocation (min/avg/max) = 5.465 | 6.344 | 6.728 Mbytes
Step PotEng KinEng TotEng v_fx v_fy v_fz 
    5995   -1152448.5            0   -1152448.5  0.079008608  0.052931904 -0.0038927813 
    6000   -1152448.5            0   -1152448.5  0.030425151  0.011364812 -0.00056272894 
    6267   -1152448.6            0   -1152448.6 8.2966027e-06 2.8289696e-06 -1.2540862e-07 
Loop time of 6.08473 on 52 procs for 272 steps with 288751 atoms

99.9% CPU use with 52 MPI tasks x 1 OpenMP threads

Minimization stats:
  Stopping criterion = linesearch alpha is zero
  Energy initial, next-to-last, final = 
     -1152448.51945982  -1152448.61345653  -1152448.61345653
  Force two-norm initial, final = 0.20520193 0.0001284479
  Force max component initial, final = 0.089602901 4.0999758e-05
  Final line search alpha, max atom move = 0.5 2.0499879e-05
  Iterations, force evaluations = 272 544

MPI task timing breakdown:
Section |  min time  |  avg time  |  max time  |%varavg| %total
---------------------------------------------------------------
Pair    | 1.5716     | 4.342      | 5.726      |  57.1 | 71.36
Neigh   | 3.7096e-05 | 0.01165    | 0.017188   |   4.6 |  0.19
Comm    | 0.080951   | 0.96934    | 3.0379     |  87.5 | 15.93
Output  | 0.00016639 | 0.0001706  | 0.00033264 |   0.0 |  0.00
Modify  | 0.00010559 | 0.0091543  | 0.019308   |   4.4 |  0.15
Other   |            | 0.7525     |            |       | 12.37

Nlocal:        5552.90 ave        7915 max           0 min
Histogram: 4 2 2 0 2 6 4 1 14 17
Nghost:        6213.54 ave        8768 max         412 min
Histogram: 4 0 4 0 8 0 4 5 7 20
Neighs:       158427.0 ave      230713 max           0 min
Histogram: 4 2 2 0 5 3 4 4 12 16

Total # of neighbors = 8238204
Ave neighs/atom = 28.530478
Neighbor list builds = 2
Dangerous builds = 0
The dot product: 1.2371404225105e-06
Setting atom values ...
  1 settings made for x
  1 settings made for y
  1 settings made for z
Setting up cg style minimization ...
  Unit style    : metal
  Current step  : 6267
Per MPI rank memory allocation (min/avg/max) = 5.465 | 6.344 | 6.728 Mbytes
Step PotEng KinEng TotEng v_fx v_fy v_fz 
    6267   -1152448.6            0   -1152448.6   0.08550261   0.13455524 -0.082153924 
    6540     -1152449            0     -1152449 -1.4726762e-06 2.0136706e-05 -1.1732683e-05 
Loop time of 6.0931 on 52 procs for 273 steps with 288751 atoms

99.9% CPU use with 52 MPI tasks x 1 OpenMP threads

Minimization stats:
  Stopping criterion = energy tolerance
  Energy initial, next-to-last, final = 
     -1152448.60700537  -1152449.00028224  -1152449.00028224
  Force two-norm initial, final = 0.22920581 0.0001786149
  Force max component initial, final = 0.13455524 3.0755662e-05
  Final line search alpha, max atom move = 1.0000000 3.0755662e-05
  Iterations, force evaluations = 273 544

MPI task timing breakdown:
Section |  min time  |  avg time  |  max time  |%varavg| %total
---------------------------------------------------------------
Pair    | 1.5938     | 4.338      | 5.7094     |  56.6 | 71.19
Neigh   | 9.6371e-05 | 0.028996   | 0.042658   |   7.2 |  0.48
Comm    | 0.083032   | 0.97068    | 3.0287     |  87.2 | 15.93
Output  | 0          | 0          | 0          |   0.0 |  0.00
Modify  | 0.00010792 | 0.0091488  | 0.019301   |   4.4 |  0.15
Other   |            | 0.7463     |            |       | 12.25

Nlocal:        5552.90 ave        7901 max           0 min
Histogram: 4 2 2 0 2 6 4 0 15 17
Nghost:        6213.62 ave        8769 max         412 min
Histogram: 4 0 4 0 8 0 4 5 7 20
Neighs:       158427.0 ave      230268 max           0 min
Histogram: 4 2 2 0 5 3 4 4 12 16

Total # of neighbors = 8238211
Ave neighs/atom = 28.530502
Neighbor list builds = 5
Dangerous builds = 0
The dot product: 8.39376868459928e-06
Setting atom values ...
  1 settings made for x
  1 settings made for y
  1 settings made for z
Setting up cg style minimization ...
  Unit style    : metal
  Current step  : 6540
Per MPI rank memory allocation (min/avg/max) = 5.465 | 6.344 | 6.728 Mbytes
Step PotEng KinEng TotEng v_fx v_fy v_fz 
    6540     -1152449            0     -1152449  -0.58131672  -0.11160795   0.80608765 
    6786   -1152449.2            0   -1152449.2 -2.8722561e-05 6.4119415e-05 -6.7875031e-05 
Loop time of 5.53088 on 52 procs for 246 steps with 288751 atoms

99.9% CPU use with 52 MPI tasks x 1 OpenMP threads

Minimization stats:
  Stopping criterion = energy tolerance
  Energy initial, next-to-last, final = 
     -1152449.02388787  -1152449.18195814  -1152449.18195814
  Force two-norm initial, final = 1.0118128 0.00025822297
  Force max component initial, final = 0.80608765 6.7875031e-05
  Final line search alpha, max atom move = 1.0000000 6.7875031e-05
  Iterations, force evaluations = 246 492

MPI task timing breakdown:
Section |  min time  |  avg time  |  max time  |%varavg| %total
---------------------------------------------------------------
Pair    | 1.4234     | 3.9297     | 5.1939     |  54.2 | 71.05
Neigh   | 3.734e-05  | 0.011578   | 0.017007   |   4.5 |  0.21
Comm    | 0.077788   | 0.88071    | 2.7418     |  83.1 | 15.92
Output  | 0          | 0          | 0          |   0.0 |  0.00
Modify  | 9.9112e-05 | 0.0082724  | 0.017441   |   4.2 |  0.15
Other   |            | 0.7006     |            |       | 12.67

Nlocal:        5552.90 ave        7871 max           0 min
Histogram: 4 2 2 0 2 6 4 0 14 18
Nghost:        6213.69 ave        8770 max         412 min
Histogram: 4 0 4 0 8 0 4 5 7 20
Neighs:       158427.0 ave      229266 max           0 min
Histogram: 4 2 2 0 4 4 4 4 10 18

Total # of neighbors = 8238205
Ave neighs/atom = 28.530481
Neighbor list builds = 2
Dangerous builds = 0
The dot product: -9.1723282179071e-06
Setting atom values ...
  1 settings made for x
  1 settings made for y
  1 settings made for z
Setting up cg style minimization ...
  Unit style    : metal
  Current step  : 6786
Per MPI rank memory allocation (min/avg/max) = 5.465 | 6.344 | 6.728 Mbytes
Step PotEng KinEng TotEng v_fx v_fy v_fz 
    6786   -1152449.2            0   -1152449.2   0.35910671  0.089037882  -0.24550869 
    7000   -1152449.2            0   -1152449.2 2.0524871e-05 2.657411e-05 -3.6550404e-05 
    7006   -1152449.2            0   -1152449.2 -2.0187013e-05 2.2562934e-05 -1.5092666e-05 
Loop time of 4.88474 on 52 procs for 220 steps with 288751 atoms

99.9% CPU use with 52 MPI tasks x 1 OpenMP threads

Minimization stats:
  Stopping criterion = energy tolerance
  Energy initial, next-to-last, final = 
      -1152449.2059283  -1152449.23152959  -1152449.23152959
  Force two-norm initial, final = 0.47490136 0.00019158863
  Force max component initial, final = 0.35910671 3.8121341e-05
  Final line search alpha, max atom move = 1.0000000 3.8121341e-05
  Iterations, force evaluations = 220 440

MPI task timing breakdown:
Section |  min time  |  avg time  |  max time  |%varavg| %total
---------------------------------------------------------------
Pair    | 1.2661     | 3.5028     | 4.6004     |  51.3 | 71.71
Neigh   | 1.8721e-05 | 0.0058573  | 0.0085771  |   3.2 |  0.12
Comm    | 0.065951   | 0.7803     | 2.4504     |  79.0 | 15.97
Output  | 0.00017986 | 0.00018498 | 0.00036642 |   0.0 |  0.00
Modify  | 8.7558e-05 | 0.0074021  | 0.015694   |   4.0 |  0.15
Other   |            | 0.5882     |            |       | 12.04

Nlocal:        5552.90 ave        7864 max           0 min
Histogram: 4 2 2 0 2 6 4 0 13 19
Nghost:        6213.67 ave        8770 max         412 min
Histogram: 4 0 4 0 8 0 4 5 7 20
Neighs:       158427.0 ave      229031 max           0 min
Histogram: 4 2 2 0 4 4 4 4 10 18

Total # of neighbors = 8238196
Ave neighs/atom = 28.530450
Neighbor list builds = 1
Dangerous builds = 0
The dot product: -8.48673803509583e-07
Setting atom values ...
  1 settings made for x
  1 settings made for y
  1 settings made for z
Setting up cg style minimization ...
  Unit style    : metal
  Current step  : 7006
Per MPI rank memory allocation (min/avg/max) = 5.465 | 6.344 | 6.728 Mbytes
Step PotEng KinEng TotEng v_fx v_fy v_fz 
    7006   -1152449.3            0   -1152449.3 -0.081619342 -0.002135539  0.052641041 
    7184   -1152449.3            0   -1152449.3 2.6569415e-05 2.9542678e-05 -5.0670588e-05 
Loop time of 4.01678 on 52 procs for 178 steps with 288751 atoms

99.9% CPU use with 52 MPI tasks x 1 OpenMP threads

Minimization stats:
  Stopping criterion = energy tolerance
  Energy initial, next-to-last, final = 
     -1152449.25299332  -1152449.25740314  -1152449.25740314
  Force two-norm initial, final = 0.18602855 0.00035478062
  Force max component initial, final = 0.08803459 6.3226932e-05
  Final line search alpha, max atom move = 1.0000000 6.3226932e-05
  Iterations, force evaluations = 178 356

MPI task timing breakdown:
Section |  min time  |  avg time  |  max time  |%varavg| %total
---------------------------------------------------------------
Pair    | 1.0262     | 2.8485     | 3.7647     |  46.4 | 70.91
Neigh   | 0          | 0          | 0          |   0.0 |  0.00
Comm    | 0.064899   | 0.64191    | 1.9925     |  70.7 | 15.98
Output  | 0          | 0          | 0          |   0.0 |  0.00
Modify  | 7.7159e-05 | 0.0060085  | 0.012626   |   3.6 |  0.15
Other   |            | 0.5204     |            |       | 12.96

Nlocal:        5552.90 ave        7866 max           0 min
Histogram: 4 2 2 0 2 6 4 0 13 19
Nghost:        6213.69 ave        8771 max         412 min
Histogram: 4 0 4 0 8 0 4 5 7 20
Neighs:       158427.0 ave      229090 max           0 min
Histogram: 4 2 2 0 4 4 4 4 10 18

Total # of neighbors = 8238205
Ave neighs/atom = 28.530481
Neighbor list builds = 0
Dangerous builds = 0
The dot product: -2.07587091601802e-06
Setting atom values ...
  1 settings made for x
  1 settings made for y
  1 settings made for z
Setting up cg style minimization ...
  Unit style    : metal
  Current step  : 7184
Per MPI rank memory allocation (min/avg/max) = 5.465 | 6.344 | 6.728 Mbytes
Step PotEng KinEng TotEng v_fx v_fy v_fz 
    7184   -1152449.3            0   -1152449.3  0.063979125 0.0072091068  -0.04290831 
    7359   -1152449.3            0   -1152449.3 2.1941512e-05 -2.6276859e-05 1.7659578e-05 
Loop time of 3.87483 on 52 procs for 175 steps with 288751 atoms

99.9% CPU use with 52 MPI tasks x 1 OpenMP threads

Minimization stats:
  Stopping criterion = energy tolerance
  Energy initial, next-to-last, final = 
[...]

Nlocal:        5552.90 ave        7891 max           0 min
Histogram: 4 2 2 0 2 6 4 0 14 18
Nghost:        6213.98 ave        8768 max         412 min
Histogram: 4 0 4 0 8 0 4 5 7 20
Neighs:       158427.0 ave      229675 max           0 min
Histogram: 4 2 2 0 5 3 4 4 11 17

Total # of neighbors = 8238194
Ave neighs/atom = 28.530443
Neighbor list builds = 0
Dangerous builds = 0
The dot product: -1.84273049684929e-08
Setting atom values ...
  1 settings made for x
  1 settings made for y
  1 settings made for z
Setting up cg style minimization ...
  Unit style    : metal
  Current step  : 12272
Per MPI rank memory allocation (min/avg/max) = 5.465 | 6.344 | 6.728 Mbytes
Step PotEng KinEng TotEng v_fx v_fy v_fz 
   12272   -1152449.4            0   -1152449.4  -0.02081451 -0.011301284  0.033719145 
   12441   -1152449.4            0   -1152449.4 -7.410573e-06 7.2416794e-06 -2.8216011e-06 
Loop time of 3.73278 on 52 procs for 169 steps with 288751 atoms

99.9% CPU use with 52 MPI tasks x 1 OpenMP threads

Minimization stats:
  Stopping criterion = energy tolerance
  Energy initial, next-to-last, final = 
     -1152449.42226069  -1152449.42359784  -1152449.42359784
  Force two-norm initial, final = 0.16822767 0.0001766839
  Force max component initial, final = 0.075498995 7.4105730e-06
  Final line search alpha, max atom move = 1.0000000 7.4105730e-06
  Iterations, force evaluations = 169 338

MPI task timing breakdown:
Section |  min time  |  avg time  |  max time  |%varavg| %total
---------------------------------------------------------------
Pair    | 0.96535    | 2.686      | 3.527      |  45.1 | 71.96
Neigh   | 0          | 0          | 0          |   0.0 |  0.00
Comm    | 0.05088    | 0.59964    | 1.9134     |  69.3 | 16.06
Output  | 0          | 0          | 0          |   0.0 |  0.00
Modify  | 5.5829e-05 | 0.0056869  | 0.011888   |   3.5 |  0.15
Other   |            | 0.4415     |            |       | 11.83

Nlocal:        5552.90 ave        7891 max           0 min
Histogram: 4 2 2 0 2 6 4 0 14 18
Nghost:        6213.98 ave        8768 max         412 min
Histogram: 4 0 4 0 8 0 4 5 7 20
Neighs:       158427.0 ave      229666 max           0 min
Histogram: 4 2 2 0 5 3 4 4 11 17

Total # of neighbors = 8238193
Ave neighs/atom = 28.530440
Neighbor list builds = 0
Dangerous builds = 0
The dot product: -1.62696496545613e-08
Setting atom values ...
  1 settings made for x
  1 settings made for y
  1 settings made for z
Setting up cg style minimization ...
  Unit style    : metal
  Current step  : 12441
Per MPI rank memory allocation (min/avg/max) = 5.465 | 6.344 | 6.728 Mbytes
Step PotEng KinEng TotEng v_fx v_fy v_fz 
   12441   -1152449.4            0   -1152449.4 -0.021531419 -0.0097796091  0.032452286 
   12611   -1152449.4            0   -1152449.4 3.0646809e-05 -3.0995251e-05 1.3136057e-05 
Loop time of 3.75363 on 52 procs for 170 steps with 288751 atoms

99.9% CPU use with 52 MPI tasks x 1 OpenMP threads

Minimization stats:
  Stopping criterion = energy tolerance
  Energy initial, next-to-last, final = 
     -1152449.41454377  -1152449.41585142  -1152449.41585142
  Force two-norm initial, final = 0.16668191 0.00018342365
  Force max component initial, final = 0.076776593 3.9010447e-05
  Final line search alpha, max atom move = 1.0000000 3.9010447e-05
  Iterations, force evaluations = 170 340

MPI task timing breakdown:
Section |  min time  |  avg time  |  max time  |%varavg| %total
---------------------------------------------------------------
Pair    | 0.94875    | 2.6991     | 3.5467     |  45.5 | 71.91
Neigh   | 0          | 0          | 0          |   0.0 |  0.00
Comm    | 0.050447   | 0.59835    | 1.8718     |  69.6 | 15.94
Output  | 0          | 0          | 0          |   0.0 |  0.00
Modify  | 6.5427e-05 | 0.0056814  | 0.011936   |   3.5 |  0.15
Other   |            | 0.4505     |            |       | 12.00

Nlocal:        5552.90 ave        7891 max           0 min
Histogram: 4 2 2 0 2 6 4 0 14 18
Nghost:        6214.02 ave        8768 max         412 min
Histogram: 4 0 4 0 8 0 4 5 7 20
Neighs:       158427.0 ave      229666 max           0 min
Histogram: 4 2 2 0 5 3 4 4 11 17

Total # of neighbors = 8238193
Ave neighs/atom = 28.530440
Neighbor list builds = 0
Dangerous builds = 0
The dot product: 5.85874540006465e-08
Setting atom values ...
  1 settings made for x
  1 settings made for y
  1 settings made for z
Setting up cg style minimization ...
  Unit style    : metal
  Current step  : 12611
Per MPI rank memory allocation (min/avg/max) = 5.465 | 6.344 | 6.728 Mbytes
Step PotEng KinEng TotEng v_fx v_fy v_fz 
   12611   -1152449.4            0   -1152449.4 -0.022221073 -0.0082755263  0.031167904 
   12807   -1152449.4            0   -1152449.4 -1.1585891e-05 6.1899339e-06 2.3311231e-06 
Loop time of 4.35657 on 52 procs for 196 steps with 288751 atoms

99.9% CPU use with 52 MPI tasks x 1 OpenMP threads

Minimization stats:
  Stopping criterion = energy tolerance
  Energy initial, next-to-last, final = 
     -1152449.40545159  -1152449.40673416  -1152449.40673416
  Force two-norm initial, final = 0.16541247 8.1745092e-05
  Force max component initial, final = 0.078030664 2.0634559e-05
  Final line search alpha, max atom move = 1.0000000 2.0634559e-05
  Iterations, force evaluations = 196 392

MPI task timing breakdown:
Section |  min time  |  avg time  |  max time  |%varavg| %total
---------------------------------------------------------------
Pair    | 1.1171     | 3.1147     | 4.1076     |  48.6 | 71.49
Neigh   | 0          | 0          | 0          |   0.0 |  0.00
Comm    | 0.059836   | 0.69268    | 2.1619     |  74.0 | 15.90
Output  | 0          | 0          | 0          |   0.0 |  0.00
Modify  | 7.2565e-05 | 0.0065972  | 0.013814   |   3.7 |  0.15
Other   |            | 0.5426     |            |       | 12.46

Nlocal:        5552.90 ave        7891 max           0 min
Histogram: 4 2 2 0 2 6 4 1 13 18
Nghost:        6213.94 ave        8767 max         412 min
Histogram: 4 0 4 0 8 0 4 5 7 20
Neighs:       158427.0 ave      229666 max           0 min
Histogram: 4 2 2 0 5 3 4 4 11 17

Total # of neighbors = 8238196
Ave neighs/atom = 28.530450
Neighbor list builds = 0
Dangerous builds = 0
The dot product: -7.47301260696843e-10
Setting atom values ...
  1 settings made for x
  1 settings made for y
  1 settings made for z
Setting up cg style minimization ...
  Unit style    : metal
  Current step  : 12807
Per MPI rank memory allocation (min/avg/max) = 5.465 | 6.344 | 6.728 Mbytes
Step PotEng KinEng TotEng v_fx v_fy v_fz 
   12807   -1152449.4            0   -1152449.4 -0.022867799 -0.0068577831  0.029945881 
   12999   -1152449.4            0   -1152449.4 3.6789197e-06 -1.4432738e-05 1.5826144e-05 
Loop time of 4.25257 on 52 procs for 192 steps with 288751 atoms

99.9% CPU use with 52 MPI tasks x 1 OpenMP threads

Minimization stats:
  Stopping criterion = linesearch alpha is zero
  Energy initial, next-to-last, final = 
     -1152449.39495522  -1152449.39621827  -1152449.39621827
  Force two-norm initial, final = 0.16445909 9.4053297e-05
  Force max component initial, final = 0.079218984 2.0436306e-05
  Final line search alpha, max atom move = 0.5 1.0218153e-05
  Iterations, force evaluations = 192 385

MPI task timing breakdown:
Section |  min time  |  avg time  |  max time  |%varavg| %total
---------------------------------------------------------------
Pair    | 1.0764     | 3.0506     | 4.0178     |  48.4 | 71.74
Neigh   | 0          | 0          | 0          |   0.0 |  0.00
Comm    | 0.057611   | 0.67963    | 2.1274     |  73.6 | 15.98
Output  | 0          | 0          | 0          |   0.0 |  0.00
Modify  | 6.746e-05  | 0.0064646  | 0.01352    |   3.7 |  0.15
Other   |            | 0.5159     |            |       | 12.13

Nlocal:        5552.90 ave        7891 max           0 min
Histogram: 4 2 2 0 2 6 4 1 13 18
Nghost:        6213.94 ave        8767 max         412 min
Histogram: 4 0 4 0 8 0 4 5 7 20
Neighs:       158427.0 ave      229651 max           0 min
Histogram: 4 2 2 0 5 3 4 4 11 17

Total # of neighbors = 8238194
Ave neighs/atom = 28.530443
Neighbor list builds = 0
Dangerous builds = 0
The dot product: 3.31002487943727e-08
Setting atom values ...
  1 settings made for x
  1 settings made for y
  1 settings made for z
Setting up cg style minimization ...
  Unit style    : metal
  Current step  : 12999
Per MPI rank memory allocation (min/avg/max) = 5.465 | 6.344 | 6.728 Mbytes
Step PotEng KinEng TotEng v_fx v_fy v_fz 
   12999   -1152449.4            0   -1152449.4 -0.023326789 -0.0056827561  0.028866171 
   13000   -1152449.4            0   -1152449.4  0.012097013 0.0036806675 -0.015946931 
   13183   -1152449.4            0   -1152449.4 9.7536045e-06 -5.1375748e-06 -2.0612286e-06 
Loop time of 4.13391 on 52 procs for 184 steps with 288751 atoms

99.9% CPU use with 52 MPI tasks x 1 OpenMP threads

Minimization stats:
  Stopping criterion = linesearch alpha is zero
  Energy initial, next-to-last, final = 
     -1152449.38303465  -1152449.38428324  -1152449.38428324
  Force two-norm initial, final = 0.16375942 0.00010708257
  Force max component initial, final = 0.080394738 9.7536045e-06
  Final line search alpha, max atom move = 0.5 4.8768023e-06
  Iterations, force evaluations = 184 369

MPI task timing breakdown:
Section |  min time  |  avg time  |  max time  |%varavg| %total
---------------------------------------------------------------
Pair    | 1.0523     | 2.9377     | 3.8899     |  47.3 | 71.06
Neigh   | 0          | 0          | 0          |   0.0 |  0.00
Comm    | 0.058682   | 0.66045    | 2.0646     |  71.9 | 15.98
Output  | 0.0001586  | 0.00016212 | 0.00029084 |   0.0 |  0.00
Modify  | 7.6561e-05 | 0.006222   | 0.013147   |   3.6 |  0.15
Other   |            | 0.5294     |            |       | 12.81

Nlocal:        5552.90 ave        7890 max           0 min
Histogram: 4 2 2 0 2 6 4 1 13 18
Nghost:        6213.94 ave        8767 max         412 min
Histogram: 4 0 4 0 8 0 4 5 7 20
Neighs:       158427.0 ave      229615 max           0 min
Histogram: 4 2 2 0 5 3 4 4 11 17

Total # of neighbors = 8238194
Ave neighs/atom = 28.530443
Neighbor list builds = 0
Dangerous builds = 0
The dot product: -3.25996792697611e-09
Setting atom values ...
  1 settings made for x
  1 settings made for y
  1 settings made for z
Setting up cg style minimization ...
  Unit style    : metal
  Current step  : 13183
Per MPI rank memory allocation (min/avg/max) = 5.465 | 6.344 | 6.728 Mbytes
Step PotEng KinEng TotEng v_fx v_fy v_fz 
   13183   -1152449.4            0   -1152449.4 -0.023662504 -0.0046577796  0.027866331 
   13345   -1152449.4            0   -1152449.4 -3.8909585e-05 -6.9096233e-06 4.4821743e-05 
Loop time of 3.59882 on 52 procs for 162 steps with 288751 atoms

99.8% CPU use with 52 MPI tasks x 1 OpenMP threads

Minimization stats:
  Stopping criterion = energy tolerance
  Energy initial, next-to-last, final = 
     -1152449.36967402   -1152449.3709133   -1152449.3709133
  Force two-norm initial, final = 0.16326593 0.00025209865
  Force max component initial, final = 0.08154429 5.5856754e-05
  Final line search alpha, max atom move = 1.0000000 5.5856754e-05
  Iterations, force evaluations = 162 324

MPI task timing breakdown:
Section |  min time  |  avg time  |  max time  |%varavg| %total
---------------------------------------------------------------
Pair    | 0.90677    | 2.5751     | 3.3782     |  44.5 | 71.55
Neigh   | 0          | 0          | 0          |   0.0 |  0.00
Comm    | 0.049728   | 0.57327    | 1.7824     |  67.4 | 15.93
Output  | 0          | 0          | 0          |   0.0 |  0.00
Modify  | 6.1281e-05 | 0.0054602  | 0.011764   |   3.5 |  0.15
Other   |            | 0.445      |            |       | 12.37

Nlocal:        5552.90 ave        7889 max           0 min
Histogram: 4 2 2 0 2 6 4 2 12 18
Nghost:        6213.94 ave        8767 max         412 min
Histogram: 4 0 4 0 8 0 4 5 7 20
Neighs:       158427.0 ave      229590 max           0 min
Histogram: 4 2 2 0 5 3 4 4 11 17

Total # of neighbors = 8238193
Ave neighs/atom = 28.530440
Neighbor list builds = 0
Dangerous builds = 0
The dot product: 7.64139522722716e-08
Setting atom values ...
  1 settings made for x
  1 settings made for y
  1 settings made for z
Setting up cg style minimization ...
  Unit style    : metal
  Current step  : 13345
Per MPI rank memory allocation (min/avg/max) = 5.465 | 6.344 | 6.728 Mbytes
Step PotEng KinEng TotEng v_fx v_fy v_fz 
   13345   -1152449.4            0   -1152449.4  -0.02392484 -0.0037995765  0.027015252 
   13553   -1152449.4            0   -1152449.4 1.0915826e-05 -1.331045e-06 -8.226921e-06 
Loop time of 4.62336 on 52 procs for 208 steps with 288751 atoms

99.9% CPU use with 52 MPI tasks x 1 OpenMP threads

Minimization stats:
  Stopping criterion = linesearch alpha is zero
  Energy initial, next-to-last, final = 
     -1152449.35486227  -1152449.35609774  -1152449.35609774
  Force two-norm initial, final = 0.16301311 5.4114407e-05
  Force max component initial, final = 0.082646543 1.0915826e-05
  Final line search alpha, max atom move = 0.5 5.4579132e-06
  Iterations, force evaluations = 208 417

MPI task timing breakdown:
Section |  min time  |  avg time  |  max time  |%varavg| %total
---------------------------------------------------------------
Pair    | 1.1885     | 3.3169     | 4.3697     |  50.2 | 71.74
Neigh   | 0          | 0          | 0          |   0.0 |  0.00
Comm    | 0.062333   | 0.74281    | 2.3487     |  76.7 | 16.07
Output  | 0          | 0          | 0          |   0.0 |  0.00
Modify  | 7.7627e-05 | 0.0070157  | 0.014622   |   3.8 |  0.15
Other   |            | 0.5566     |            |       | 12.04

Nlocal:        5552.90 ave        7889 max           0 min
Histogram: 4 2 2 0 2 6 4 2 12 18
Nghost:        6213.94 ave        8767 max         412 min
Histogram: 4 0 4 0 8 0 4 5 7 20
Neighs:       158427.0 ave      229585 max           0 min
Histogram: 4 2 2 0 5 3 4 4 11 17

Total # of neighbors = 8238191
Ave neighs/atom = 28.530433
Neighbor list builds = 0
Dangerous builds = 0
The dot product: -1.36567163523112e-08
Setting atom values ...
  1 settings made for x
  1 settings made for y
  1 settings made for z
Setting up cg style minimization ...
  Unit style    : metal
  Current step  : 13553
Per MPI rank memory allocation (min/avg/max) = 5.465 | 6.344 | 6.728 Mbytes
Step PotEng KinEng TotEng v_fx v_fy v_fz 
   13553   -1152449.3            0   -1152449.3 -0.023977853 -0.003043018  0.026100346 
   13779   -1152449.3            0   -1152449.3 -3.7679244e-06 7.7998368e-07 2.4158727e-06 
Loop time of 5.04251 on 52 procs for 226 steps with 288751 atoms

99.9% CPU use with 52 MPI tasks x 1 OpenMP threads

Minimization stats:
  Stopping criterion = linesearch alpha is zero
  Energy initial, next-to-last, final = 
     -1152449.33859384  -1152449.33982898  -1152449.33982898
  Force two-norm initial, final = 0.16280785 2.4091074e-05
  Force max component initial, final = 0.083743191 4.7446974e-06
  Final line search alpha, max atom move = 0.5 2.3723487e-06
  Iterations, force evaluations = 226 455

MPI task timing breakdown:
Section |  min time  |  avg time  |  max time  |%varavg| %total
---------------------------------------------------------------
Pair    | 1.2721     | 3.6126     | 4.7431     |  52.6 | 71.64
Neigh   | 0          | 0          | 0          |   0.0 |  0.00
Comm    | 0.070641   | 0.80522    | 2.5065     |  80.0 | 15.97
Output  | 0          | 0          | 0          |   0.0 |  0.00
Modify  | 7.5492e-05 | 0.0076203  | 0.015952   |   4.0 |  0.15
Other   |            | 0.6171     |            |       | 12.24

Nlocal:        5552.90 ave        7888 max           0 min
Histogram: 4 2 2 0 2 6 4 2 12 18
Nghost:        6213.94 ave        8767 max         412 min
Histogram: 4 0 4 0 8 0 4 5 7 20
Neighs:       158427.0 ave      229555 max           0 min
Histogram: 4 2 2 0 5 3 4 4 11 17

Total # of neighbors = 8238190
Ave neighs/atom = 28.530429
Neighbor list builds = 0
Dangerous builds = 0
The dot product: 3.68618807918905e-09
Setting atom values ...
  1 settings made for x
  1 settings made for y
  1 settings made for z
Setting up cg style minimization ...
  Unit style    : metal
  Current step  : 13779
Per MPI rank memory allocation (min/avg/max) = 5.465 | 6.344 | 6.728 Mbytes
Step PotEng KinEng TotEng v_fx v_fy v_fz 
   13779   -1152449.3            0   -1152449.3 -0.023990331 -0.0023784491  0.025262915 
   14000   -1152449.3            0   -1152449.3 4.7117551e-06 -3.6710675e-06 5.9031675e-07 
   14002   -1152449.3            0   -1152449.3 -6.2405817e-06 4.5396893e-06 -3.4913244e-07 
Loop time of 4.95326 on 52 procs for 223 steps with 288751 atoms

99.9% CPU use with 52 MPI tasks x 1 OpenMP threads

Minimization stats:
  Stopping criterion = linesearch alpha is zero
  Energy initial, next-to-last, final = 
     -1152449.32086316  -1152449.32210394  -1152449.32210394
  Force two-norm initial, final = 0.1628252 2.8331120e-05
  Force max component initial, final = 0.084782792 6.2405817e-06
  Final line search alpha, max atom move = 0.5 3.1202909e-06
  Iterations, force evaluations = 223 449

MPI task timing breakdown:
Section |  min time  |  avg time  |  max time  |%varavg| %total
---------------------------------------------------------------
Pair    | 1.256      | 3.5604     | 4.6817     |  52.3 | 71.88
Neigh   | 0          | 0          | 0          |   0.0 |  0.00
Comm    | 0.066337   | 0.79697    | 2.513      |  79.6 | 16.09
Output  | 0.00025446 | 0.00025959 | 0.00043607 |   0.0 |  0.01
Modify  | 8.5555e-05 | 0.0075213  | 0.015798   |   4.0 |  0.15
Other   |            | 0.5881     |            |       | 11.87

Nlocal:        5552.90 ave        7887 max           0 min
Histogram: 4 2 2 0 2 6 4 2 12 18
Nghost:        6213.94 ave        8767 max         412 min
Histogram: 4 0 4 0 8 0 4 5 7 20
Neighs:       158427.0 ave      229532 max           0 min
Histogram: 4 2 2 0 5 3 4 4 11 17

Total # of neighbors = 8238192
Ave neighs/atom = 28.530436
Neighbor list builds = 0
Dangerous builds = 0
The dot product: -7.19351800127172e-11
Setting up cg style minimization ...
  Unit style    : metal
  Current step  : 14002
Per MPI rank memory allocation (min/avg/max) = 5.465 | 6.344 | 6.728 Mbytes
Step PotEng KinEng TotEng v_fx v_fy v_fz 
   14002   -1152449.3            0   -1152449.3   0.44453181   0.64825788   0.48317639 
   14279   -1152449.4            0   -1152449.4 -8.6577667e-07 2.3418285e-06 1.092614e-05 
Loop time of 6.12899 on 52 procs for 277 steps with 288751 atoms

99.9% CPU use with 52 MPI tasks x 1 OpenMP threads

Minimization stats:
  Stopping criterion = linesearch alpha is zero
  Energy initial, next-to-last, final = 
     -1152449.32210394  -1152449.44109732  -1152449.44109732
  Force two-norm initial, final = 0.92266258 3.3761716e-05
  Force max component initial, final = 0.64825788 1.0926140e-05
  Final line search alpha, max atom move = 0.5 5.4630702e-06
  Iterations, force evaluations = 277 555

MPI task timing breakdown:
Section |  min time  |  avg time  |  max time  |%varavg| %total
---------------------------------------------------------------
Pair    | 1.5609     | 4.4108     | 5.782      |  58.1 | 71.97
Neigh   | 1.8161e-05 | 0.0058525  | 0.0084224  |   3.2 |  0.10
Comm    | 0.086082   | 0.97863    | 3.0656     |  88.9 | 15.97
Output  | 0          | 0          | 0          |   0.0 |  0.00
Modify  | 9.6814e-05 | 0.0061286  | 0.015279   |   4.7 |  0.10
Other   |            | 0.7276     |            |       | 11.87

Nlocal:        5552.90 ave        7888 max           0 min
Histogram: 4 2 2 0 2 6 4 2 12 18
Nghost:        6213.94 ave        8767 max         412 min
Histogram: 4 0 4 0 8 0 4 5 7 20
Neighs:       158427.0 ave      229567 max           0 min
Histogram: 4 2 2 0 5 3 4 4 11 17

Total # of neighbors = 8238193
Ave neighs/atom = 28.530440
Neighbor list builds = 1
Dangerous builds = 0
