LAMMPS (29 Oct 2020)
OMP_NUM_THREADS environment is not set. Defaulting to 1 thread. (../comm.cpp:94)
  using 1 OpenMP thread(s) per MPI task
Reading data file ...
  orthogonal box = (-122.39241 -121.13707 -37.090501) to (122.39241 121.13707 37.090501)
  13 by 4 by 1 MPI processor grid
  reading atoms ...
  288751 atoms
  read_data CPU = 0.436 seconds
199981 atoms in group inner
88770 atoms in group outer
1 atoms in group carbon
Neighbor list info ...
  update every 1 steps, delay 0 steps, check yes
  max neighbors/atom: 2000, page size: 100000
  master list distance cutoff = 5.6
  ghost atom cutoff = 5.6
  binsize = 2.8, bins = 88 87 27
  1 neighbor lists, perpetual/occasional/extra = 1 0 0
  (1) pair eam/alloy, perpetual
      attributes: half, newton on
      pair build: half/bin/atomonly/newton
      stencil: half/bin/3d/newton
      bin: standard
Setting up cg style minimization ...
  Unit style    : metal
  Current step  : 0
Per MPI rank memory allocation (min/avg/max) = 5.465 | 6.344 | 6.728 Mbytes
Step v_fx v_fy v_fz PotEng KinEng TotEng 
       0    12.767962     23.50089    7.9353469   -1152441.7            0   -1152441.7 
     226 7.0802822e-06 1.0363993e-05 1.9753496e-05     -1152449            0     -1152449 
Loop time of 5.06101 on 52 procs for 226 steps with 288751 atoms

99.8% CPU use with 52 MPI tasks x 1 OpenMP threads

Minimization stats:
  Stopping criterion = energy tolerance
  Energy initial, next-to-last, final = 
     -1152441.74148812  -1152448.97218775  -1152448.97218775
  Force two-norm initial, final = 45.624311 0.00026324865
  Force max component initial, final = 29.833087 2.7827801e-05
  Final line search alpha, max atom move = 1.0000000 2.7827801e-05
  Iterations, force evaluations = 226 448

MPI task timing breakdown:
Section |  min time  |  avg time  |  max time  |%varavg| %total
---------------------------------------------------------------
Pair    | 1.3589     | 3.6116     | 4.7247     |  51.1 | 71.36
Neigh   | 0.00019222 | 0.060709   | 0.088261   |  10.4 |  1.20
Comm    | 0.08043    | 0.82169    | 2.5242     |  78.2 | 16.24
Output  | 0          | 0          | 0          |   0.0 |  0.00
Modify  | 7.4296e-05 | 0.0049506  | 0.012666   |   4.3 |  0.10
Other   |            | 0.5621     |            |       | 11.11

Nlocal:        5552.90 ave        7908 max           0 min
Histogram: 4 2 2 0 2 6 4 0 15 17
Nghost:        6213.58 ave        8769 max         412 min
Histogram: 4 0 4 0 8 0 4 5 7 20
Neighs:       158427.0 ave      230506 max           0 min
Histogram: 4 2 2 0 5 3 4 4 12 16

Total # of neighbors = 8238216
Ave neighs/atom = 28.530519
Neighbor list builds = 10
Dangerous builds = 0
1.75 3.04 4.36 1.69190367804026 2.95187817865759 4.63739987218986
Total wall time: 0:00:05
