LAMMPS (29 Oct 2020)
OMP_NUM_THREADS environment is not set. Defaulting to 1 thread. (../comm.cpp:94)
  using 1 OpenMP thread(s) per MPI task
OMP_NUM_THREADS environment is not set. Defaulting to 1 thread. (../comm.cpp:94)
  using 1 OpenMP thread(s) per MPI task
Reading data file ...
  orthogonal box = (-122.39241 -121.13707 -37.090501) to (122.39241 121.13707 37.090501)
  13 by 4 by 2 MPI processor grid
  reading atoms ...
  288751 atoms
  read_data CPU = 0.387 seconds
199981 atoms in group inner
88770 atoms in group outer
1 atoms in group carbon
Neighbor list info ...
  update every 1 steps, delay 0 steps, check yes
  max neighbors/atom: 2000, page size: 100000
  master list distance cutoff = 5.6
  ghost atom cutoff = 5.6
  binsize = 2.8, bins = 88 87 27
  1 neighbor lists, perpetual/occasional/extra = 1 0 0
  (1) pair eam/alloy, perpetual
      attributes: half, newton on
      pair build: half/bin/atomonly/newton
      stencil: half/bin/3d/newton
      bin: standard
Setting up cg style minimization ...
  Unit style    : metal
  Current step  : 0
Per MPI rank memory allocation (min/avg/max) = 5.441 | 5.816 | 6.074 Mbytes
Step v_fx v_fy v_fz PotEng KinEng TotEng 
       0   -26.128368  -0.81400657    7.8559927   -1152441.9            0   -1152441.9 
     233 5.7158732e-07 2.1916376e-06 2.4558471e-06     -1152449            0     -1152449 
Loop time of 2.8361 on 104 procs for 233 steps with 288751 atoms

99.8% CPU use with 104 MPI tasks x 1 OpenMP threads

Minimization stats:
  Stopping criterion = energy tolerance
  Energy initial, next-to-last, final = 
     -1152441.87946844  -1152448.97218898  -1152448.97218898
  Force two-norm initial, final = 44.809020 0.00012793647
  Force max component initial, final = 33.748790 2.5156981e-05
  Final line search alpha, max atom move = 1.0000000 2.5156981e-05
  Iterations, force evaluations = 233 462

MPI task timing breakdown:
Section |  min time  |  avg time  |  max time  |%varavg| %total
---------------------------------------------------------------
Pair    | 0.7466     | 1.9581     | 2.5329     |  36.6 | 69.04
Neigh   | 9.8064e-05 | 0.026572   | 0.038292   |   6.7 |  0.94
Comm    | 0.060646   | 0.45172    | 1.3326     |  54.1 | 15.93
Output  | 0          | 0          | 0          |   0.0 |  0.00
Modify  | 2.6281e-05 | 0.0025002  | 0.006477   |   3.1 |  0.09
Other   |            | 0.3972     |            |       | 14.01

Nlocal:        2776.45 ave        3950 max           0 min
Histogram: 8 4 4 0 4 12 8 0 28 36
Nghost:        3879.16 ave        5424 max         232 min
Histogram: 8 0 8 0 16 0 8 8 16 40
Neighs:        79213.6 ave      115118 max           0 min
Histogram: 8 4 4 0 10 6 8 8 24 32

Total # of neighbors = 8238216
Ave neighs/atom = 28.530519
Neighbor list builds = 9
Dangerous builds = 0
Setting atom values ...
  1 settings made for x
  1 settings made for y
  1 settings made for z
Setting up cg style minimization ...
  Unit style    : metal
  Current step  : 233
Per MPI rank memory allocation (min/avg/max) = 5.441 | 5.816 | 6.074 Mbytes
Step PotEng KinEng TotEng v_fx v_fy v_fz 
     233     -1152449            0     -1152449  0.011450406 -0.020174915 -0.035864054 
     342     -1152449            0     -1152449 -2.9428685e-05 3.6818068e-05 4.4175971e-05 
Loop time of 1.3052 on 104 procs for 109 steps with 288751 atoms

99.9% CPU use with 104 MPI tasks x 1 OpenMP threads

Minimization stats:
  Stopping criterion = energy tolerance
  Energy initial, next-to-last, final = 
     -1152448.97135103  -1152448.97194136  -1152448.97194136
  Force two-norm initial, final = 0.11490104 0.00021003273
  Force max component initial, final = 0.049608611 5.7584901e-05
  Final line search alpha, max atom move = 1.0000000 5.7584901e-05
  Iterations, force evaluations = 109 218

MPI task timing breakdown:
Section |  min time  |  avg time  |  max time  |%varavg| %total
---------------------------------------------------------------
Pair    | 0.33202    | 0.92734    | 1.2061     |  26.0 | 71.05
Neigh   | 0          | 0          | 0          |   0.0 |  0.00
Comm    | 0.019756   | 0.21315    | 0.6382     |  37.7 | 16.33
Output  | 0          | 0          | 0          |   0.0 |  0.00
Modify  | 1.3908e-05 | 0.0018072  | 0.0038366  |   2.0 |  0.14
Other   |            | 0.1629     |            |       | 12.48

Nlocal:        2776.45 ave        3953 max           0 min
Histogram: 8 4 4 0 4 12 8 0 30 34
Nghost:        3879.20 ave        5424 max         232 min
Histogram: 8 0 8 0 16 0 8 8 16 40
Neighs:        79213.5 ave      115218 max           0 min
Histogram: 8 4 4 0 10 6 8 8 24 32

Total # of neighbors = 8238206
Ave neighs/atom = 28.530485
Neighbor list builds = 0
Dangerous builds = 0
Setting atom values ...
  1 settings made for x
  1 settings made for y
  1 settings made for z
Setting up cg style minimization ...
  Unit style    : metal
  Current step  : 342
Per MPI rank memory allocation (min/avg/max) = 5.441 | 5.816 | 6.074 Mbytes
Step PotEng KinEng TotEng v_fx v_fy v_fz 
     342     -1152449            0     -1152449  0.017141289 -0.031747738 -0.060282877 
     634     -1152449            0     -1152449 -4.9501773e-07 9.1980172e-07 1.751074e-06 
Loop time of 3.44787 on 104 procs for 292 steps with 288751 atoms

99.9% CPU use with 104 MPI tasks x 1 OpenMP threads

Minimization stats:
  Stopping criterion = energy tolerance
  Energy initial, next-to-last, final = 
      -1152448.9688402  -1152448.97056568  -1152448.97056568
  Force two-norm initial, final = 0.19127287 3.8986303e-05
  Force max component initial, final = 0.082996085 4.7141577e-06
  Final line search alpha, max atom move = 1.0000000 4.7141577e-06
  Iterations, force evaluations = 292 584

MPI task timing breakdown:
Section |  min time  |  avg time  |  max time  |%varavg| %total
---------------------------------------------------------------
Pair    | 0.88284    | 2.4554     | 3.211      |  42.4 | 71.21
Neigh   | 0          | 0          | 0          |   0.0 |  0.00
Comm    | 0.056018   | 0.5598     | 1.6716     |  61.7 | 16.24
Output  | 0          | 0          | 0          |   0.0 |  0.00
Modify  | 3.6376e-05 | 0.0048243  | 0.010332   |   3.3 |  0.14
Other   |            | 0.4279     |            |       | 12.41

Nlocal:        2776.45 ave        3953 max           0 min
Histogram: 8 4 4 0 4 12 8 0 30 34
Nghost:        3879.20 ave        5424 max         232 min
Histogram: 8 0 8 0 16 0 8 8 16 40
Neighs:        79213.5 ave      115221 max           0 min
Histogram: 8 4 4 0 10 6 8 8 24 32

Total # of neighbors = 8238205
Ave neighs/atom = 28.530481
Neighbor list builds = 0
Dangerous builds = 0
The dot product: 1.23364576307682e-08
Setting atom values ...
  1 settings made for x
  1 settings made for y
  1 settings made for z
Setting up cg style minimization ...
  Unit style    : metal
  Current step  : 634
Per MPI rank memory allocation (min/avg/max) = 5.441 | 5.816 | 6.074 Mbytes
Step PotEng KinEng TotEng v_fx v_fy v_fz 
     634     -1152449            0     -1152449  0.012303581  -0.03389514 -0.038456608 
     844     -1152449            0     -1152449 -6.971657e-06 1.1749912e-05 8.9682018e-06 
Loop time of 2.4596 on 104 procs for 210 steps with 288751 atoms

99.9% CPU use with 104 MPI tasks x 1 OpenMP threads

Minimization stats:
  Stopping criterion = energy tolerance
  Energy initial, next-to-last, final = 
     -1152448.96613597  -1152448.96836051  -1152448.96836051
  Force two-norm initial, final = 0.19960653 6.8670146e-05
  Force max component initial, final = 0.094258936 1.7864599e-05
  Final line search alpha, max atom move = 1.0000000 1.7864599e-05
  Iterations, force evaluations = 210 420

MPI task timing breakdown:
Section |  min time  |  avg time  |  max time  |%varavg| %total
---------------------------------------------------------------
Pair    | 0.63795    | 1.7779     | 2.3154     |  35.9 | 72.29
Neigh   | 0          | 0          | 0          |   0.0 |  0.00
Comm    | 0.036364   | 0.39786    | 1.2084     |  53.5 | 16.18
Output  | 0          | 0          | 0          |   0.0 |  0.00
Modify  | 2.4787e-05 | 0.0034796  | 0.0074406  |   2.8 |  0.14
Other   |            | 0.2803     |            |       | 11.40

Nlocal:        2776.45 ave        3953 max           0 min
Histogram: 8 4 4 0 4 12 8 0 30 34
Nghost:        3879.22 ave        5424 max         232 min
Histogram: 8 0 8 0 16 0 8 8 16 40
Neighs:        79213.5 ave      115218 max           0 min
Histogram: 8 4 4 0 10 6 8 8 24 32

Total # of neighbors = 8238203
Ave neighs/atom = 28.530474
Neighbor list builds = 0
Dangerous builds = 0
The dot product: 2.12576249690852e-07
Setting atom values ...
  1 settings made for x
  1 settings made for y
  1 settings made for z
Setting up cg style minimization ...
  Unit style    : metal
  Current step  : 844
Per MPI rank memory allocation (min/avg/max) = 5.441 | 5.816 | 6.074 Mbytes
Step PotEng KinEng TotEng v_fx v_fy v_fz 
     844     -1152449            0     -1152449  0.015400414 -0.017833135 0.00029972716 
    1000     -1152449            0     -1152449 -1.5284891e-05 1.5203448e-05 -2.2975637e-06 
    1026     -1152449            0     -1152449 -3.9411556e-06 2.6365855e-06 -1.620999e-06 
Loop time of 2.12728 on 104 procs for 182 steps with 288751 atoms

99.9% CPU use with 104 MPI tasks x 1 OpenMP threads

Minimization stats:
  Stopping criterion = energy tolerance
  Energy initial, next-to-last, final = 
     -1152448.96292272  -1152448.96678655  -1152448.96678655
  Force two-norm initial, final = 0.21112179 7.7480878e-05
  Force max component initial, final = 0.11356205 1.4342042e-05
  Final line search alpha, max atom move = 1.0000000 1.4342042e-05
  Iterations, force evaluations = 182 364

MPI task timing breakdown:
Section |  min time  |  avg time  |  max time  |%varavg| %total
---------------------------------------------------------------
Pair    | 0.54984    | 1.5295     | 1.9952     |  33.4 | 71.90
Neigh   | 0          | 0          | 0          |   0.0 |  0.00
Comm    | 0.031452   | 0.34584    | 1.0372     |  48.9 | 16.26
Output  | 0.00017197 | 0.00017405 | 0.00030964 |   0.0 |  0.01
Modify  | 2.1429e-05 | 0.0030052  | 0.0064527  |   2.6 |  0.14
Other   |            | 0.2488     |            |       | 11.69

Nlocal:        2776.45 ave        3952 max           0 min
Histogram: 8 4 4 0 4 12 8 0 30 34
Nghost:        3879.20 ave        5424 max         232 min
Histogram: 8 0 8 0 16 0 8 8 16 40
Neighs:        79213.6 ave      115191 max           0 min
Histogram: 8 4 4 0 10 6 8 8 24 32

Total # of neighbors = 8238210
Ave neighs/atom = 28.530499
Neighbor list builds = 0
Dangerous builds = 0
The dot product: -2.5601322505065e-08
Setting atom values ...
  1 settings made for x
  1 settings made for y
  1 settings made for z
Setting up cg style minimization ...
  Unit style    : metal
  Current step  : 1026
Per MPI rank memory allocation (min/avg/max) = 5.441 | 5.816 | 6.074 Mbytes
Step PotEng KinEng TotEng v_fx v_fy v_fz 
    1026     -1152449            0     -1152449  0.054245155  0.031949395  0.032968924 
    1177     -1152449            0     -1152449 -8.0234672e-06 2.4805418e-06 -3.243331e-06 
Loop time of 1.77289 on 104 procs for 151 steps with 288751 atoms

99.9% CPU use with 104 MPI tasks x 1 OpenMP threads

Minimization stats:
  Stopping criterion = energy tolerance
  Energy initial, next-to-last, final = 
     -1152448.96178037  -1152448.96537511  -1152448.96537511
  Force two-norm initial, final = 0.22701524 0.00012723106
  Force max component initial, final = 0.12063223 9.3839270e-06
  Final line search alpha, max atom move = 1.0000000 9.3839270e-06
  Iterations, force evaluations = 151 302

MPI task timing breakdown:
Section |  min time  |  avg time  |  max time  |%varavg| %total
---------------------------------------------------------------
Pair    | 0.45806    | 1.2755     | 1.6552     |  30.4 | 71.94
Neigh   | 0          | 0          | 0          |   0.0 |  0.00
Comm    | 0.027479   | 0.28761    | 0.86458    |  44.9 | 16.22
Output  | 0          | 0          | 0          |   0.0 |  0.00
Modify  | 1.9446e-05 | 0.0025007  | 0.0053918  |   2.4 |  0.14
Other   |            | 0.2073     |            |       | 11.69

Nlocal:        2776.45 ave        3954 max           0 min
Histogram: 8 4 4 0 4 12 8 0 30 34
Nghost:        3879.16 ave        5424 max         232 min
Histogram: 8 0 8 0 16 0 8 8 16 40
Neighs:        79213.6 ave      115243 max           0 min
Histogram: 8 4 4 0 10 6 8 8 24 32

Total # of neighbors = 8238218
Ave neighs/atom = 28.530526
Neighbor list builds = 0
Dangerous builds = 0
The dot product: -7.88042056331636e-08
Setting atom values ...
  1 settings made for x
  1 settings made for y
  1 settings made for z
Setting up cg style minimization ...
  Unit style    : metal
  Current step  : 1177
Per MPI rank memory allocation (min/avg/max) = 5.441 | 5.816 | 6.074 Mbytes
Step PotEng KinEng TotEng v_fx v_fy v_fz 
    1177     -1152449            0     -1152449  0.060857405  0.036132885  0.020632402 
    1336     -1152449            0     -1152449 5.3515268e-06 5.1481459e-07 1.7176402e-06 
Loop time of 1.86854 on 104 procs for 159 steps with 288751 atoms

99.9% CPU use with 104 MPI tasks x 1 OpenMP threads

Minimization stats:
  Stopping criterion = energy tolerance
  Energy initial, next-to-last, final = 
     -1152448.96091897  -1152448.96408725  -1152448.96408725
  Force two-norm initial, final = 0.22207814 9.2746863e-05
  Force max component initial, final = 0.11447964 1.5346382e-05
  Final line search alpha, max atom move = 1.0000000 1.5346382e-05
  Iterations, force evaluations = 159 318

MPI task timing breakdown:
Section |  min time  |  avg time  |  max time  |%varavg| %total
---------------------------------------------------------------
Pair    | 0.48534    | 1.3356     | 1.7377     |  31.1 | 71.48
Neigh   | 0          | 0          | 0          |   0.0 |  0.00
Comm    | 0.031281   | 0.29968    | 0.89963    |  46.1 | 16.04
Output  | 0          | 0          | 0          |   0.0 |  0.00
Modify  | 1.9341e-05 | 0.0026236  | 0.0055891  |   2.4 |  0.14
Other   |            | 0.2306     |            |       | 12.34

Nlocal:        2776.45 ave        3953 max           0 min
Histogram: 8 4 4 0 4 12 8 0 30 34
Nghost:        3879.14 ave        5425 max         232 min
Histogram: 8 0 8 0 16 0 8 8 16 40
Neighs:        79213.6 ave      115216 max           0 min
Histogram: 8 4 4 0 10 6 8 8 24 32

Total # of neighbors = 8238218
Ave neighs/atom = 28.530526
Neighbor list builds = 0
Dangerous builds = 0
The dot product: 2.56627824320269e-08
Setting atom values ...
  1 settings made for x
  1 settings made for y
  1 settings made for z
Setting up cg style minimization ...
  Unit style    : metal
  Current step  : 1336
Per MPI rank memory allocation (min/avg/max) = 5.441 | 5.816 | 6.074 Mbytes
Step PotEng KinEng TotEng v_fx v_fy v_fz 
    1336     -1152449            0     -1152449  0.059722485  0.032553173  0.016440389 
    1522     -1152449            0     -1152449 1.5647935e-05 1.806555e-06 4.3967074e-06 
Loop time of 2.16233 on 104 procs for 186 steps with 288751 atoms

99.9% CPU use with 104 MPI tasks x 1 OpenMP threads

Minimization stats:
  Stopping criterion = energy tolerance
  Energy initial, next-to-last, final = 
     -1152448.95983752  -1152448.96239402  -1152448.96239402
  Force two-norm initial, final = 0.2191381 0.00016562586
  Force max component initial, final = 0.11251659 3.6673217e-05
  Final line search alpha, max atom move = 1.0000000 3.6673217e-05
  Iterations, force evaluations = 186 372

MPI task timing breakdown:
Section |  min time  |  avg time  |  max time  |%varavg| %total
---------------------------------------------------------------
Pair    | 0.56345    | 1.5664     | 2.0406     |  33.6 | 72.44
Neigh   | 0          | 0          | 0          |   0.0 |  0.00
Comm    | 0.031217   | 0.35186    | 1.0684     |  50.2 | 16.27
Output  | 0          | 0          | 0          |   0.0 |  0.00
Modify  | 2.2092e-05 | 0.0030694  | 0.0066131  |   2.6 |  0.14
Other   |            | 0.241      |            |       | 11.14

Nlocal:        2776.45 ave        3953 max           0 min
Histogram: 8 4 4 0 4 12 8 0 30 34
Nghost:        3879.07 ave        5424 max         232 min
Histogram: 8 0 8 0 16 0 8 8 16 40
Neighs:        79213.6 ave      115207 max           0 min
Histogram: 8 4 4 0 10 6 8 8 24 32

Total # of neighbors = 8238211
Ave neighs/atom = 28.530502
Neighbor list builds = 0
Dangerous builds = 0
The dot product: 8.89611604219264e-08
Setting atom values ...
  1 settings made for x
  1 settings made for y
  1 settings made for z
Setting up cg style minimization ...
  Unit style    : metal
  Current step  : 1522
Per MPI rank memory allocation (min/avg/max) = 5.441 | 5.816 | 6.074 Mbytes
Step PotEng KinEng TotEng v_fx v_fy v_fz 
    1522     -1152449            0     -1152449  0.065882087  0.033919512  0.014984951 
    1784     -1152449            0     -1152449 -7.6143473e-07 -6.1493744e-08 -1.8419086e-07 
Loop time of 3.06592 on 104 procs for 262 steps with 288751 atoms

99.9% CPU use with 104 MPI tasks x 1 OpenMP threads

Minimization stats:
  Stopping criterion = energy tolerance
  Energy initial, next-to-last, final = 
     -1152448.95755258  -1152448.96005602  -1152448.96005602
  Force two-norm initial, final = 0.21835554 9.0053896e-06
  Force max component initial, final = 0.11004616 1.9895733e-06
  Final line search alpha, max atom move = 1.0000000 1.9895733e-06
  Iterations, force evaluations = 262 524

MPI task timing breakdown:
Section |  min time  |  avg time  |  max time  |%varavg| %total
---------------------------------------------------------------
Pair    | 0.79564    | 2.2019     | 2.8768     |  40.1 | 71.82
Neigh   | 0          | 0          | 0          |   0.0 |  0.00
Comm    | 0.046883   | 0.49717    | 1.4946     |  58.8 | 16.22
Output  | 0          | 0          | 0          |   0.0 |  0.00
Modify  | 3.1072e-05 | 0.0043205  | 0.0092556  |   3.1 |  0.14
Other   |            | 0.3626     |            |       | 11.83

Nlocal:        2776.45 ave        3954 max           0 min
Histogram: 8 4 4 0 4 12 8 0 30 34
Nghost:        3879.05 ave        5424 max         232 min
Histogram: 8 0 8 0 16 0 8 8 16 40
Neighs:        79213.6 ave      115233 max           0 min
Histogram: 8 4 4 0 10 6 8 8 24 32

Total # of neighbors = 8238210
Ave neighs/atom = 28.530499
Neighbor list builds = 0
Dangerous builds = 0
The dot product: -4.59994886479587e-09
Setting atom values ...
  1 settings made for x
  1 settings made for y
  1 settings made for z
Setting up cg style minimization ...
  Unit style    : metal
  Current step  : 1784
Per MPI rank memory allocation (min/avg/max) = 5.441 | 5.816 | 6.074 Mbytes
Step PotEng KinEng TotEng v_fx v_fy v_fz 
    1784     -1152449            0     -1152449  0.070949648   0.03573616  0.013073633 
    1969     -1152449            0     -1152449 1.6010664e-06 -1.4003513e-06 4.0116777e-07 
Loop time of 2.18409 on 104 procs for 185 steps with 288751 atoms

99.9% CPU use with 104 MPI tasks x 1 OpenMP threads

Minimization stats:
  Stopping criterion = energy tolerance
  Energy initial, next-to-last, final = 
     -1152448.95473753  -1152448.95732083  -1152448.95732083
  Force two-norm initial, final = 0.21729791 0.00020031646
  Force max component initial, final = 0.10720198 4.1200821e-05
  Final line search alpha, max atom move = 1.0000000 4.1200821e-05
  Iterations, force evaluations = 185 370

MPI task timing breakdown:
Section |  min time  |  avg time  |  max time  |%varavg| %total
---------------------------------------------------------------
Pair    | 0.56062    | 1.5678     | 2.0438     |  33.8 | 71.78
Neigh   | 0          | 0          | 0          |   0.0 |  0.00
Comm    | 0.038697   | 0.35561    | 1.0726     |  49.9 | 16.28
Output  | 0          | 0          | 0          |   0.0 |  0.00
Modify  | 2.3534e-05 | 0.0030542  | 0.006553   |   2.6 |  0.14
Other   |            | 0.2577     |            |       | 11.80

Nlocal:        2776.45 ave        3955 max           0 min
Histogram: 8 4 4 0 4 12 8 0 30 34
Nghost:        3879.09 ave        5424 max         232 min
Histogram: 8 0 8 0 16 0 8 8 16 40
Neighs:        79213.5 ave      115260 max           0 min
Histogram: 8 4 4 0 10 6 8 8 24 32

Total # of neighbors = 8238208
Ave neighs/atom = 28.530492
Neighbor list builds = 0
Dangerous builds = 0
The dot product: 4.43403579595152e-09
Setting atom values ...
  1 settings made for x
  1 settings made for y
  1 settings made for z
Setting up cg style minimization ...
  Unit style    : metal
  Current step  : 1969
Per MPI rank memory allocation (min/avg/max) = 5.441 | 5.816 | 6.074 Mbytes
Step PotEng KinEng TotEng v_fx v_fy v_fz 
    1969     -1152449            0     -1152449  0.073891734   0.03745591  0.011092373 
    2000     -1152449            0     -1152449 0.0005175407 3.202349e-05 9.1906206e-05 
    2139     -1152449            0     -1152449 2.1828529e-05 3.5680613e-06 3.7395138e-06 
Loop time of 1.98777 on 104 procs for 170 steps with 288751 atoms

99.9% CPU use with 104 MPI tasks x 1 OpenMP threads

Minimization stats:
  Stopping criterion = energy tolerance
  Energy initial, next-to-last, final = 
     -1152448.95161105  -1152448.95389166  -1152448.95389166
  Force two-norm initial, final = 0.21615308 0.0001916178
  Force max component initial, final = 0.10486945 4.5621615e-05
  Final line search alpha, max atom move = 1.0000000 4.5621615e-05
  Iterations, force evaluations = 170 340

MPI task timing breakdown:
Section |  min time  |  avg time  |  max time  |%varavg| %total
---------------------------------------------------------------
Pair    | 0.51323    | 1.4297     | 1.8762     |  32.3 | 71.93
Neigh   | 0          | 0          | 0          |   0.0 |  0.00
Comm    | 0.02942    | 0.32271    | 0.96848    |  47.8 | 16.23
Output  | 0.00011231 | 0.00011441 | 0.00020378 |   0.0 |  0.01
Modify  | 2.0126e-05 | 0.0028108  | 0.0060377  |   2.5 |  0.14
Other   |            | 0.2324     |            |       | 11.69

Nlocal:        2776.45 ave        3955 max           0 min
Histogram: 8 4 4 0 4 12 8 0 30 34
Nghost:        3879.09 ave        5424 max         232 min
Histogram: 8 0 8 0 16 0 8 8 16 40
Neighs:        79213.5 ave      115260 max           0 min
Histogram: 8 4 4 0 10 6 8 8 24 32

Total # of neighbors = 8238202
Ave neighs/atom = 28.530471
Neighbor list builds = 0
Dangerous builds = 0
The dot product: 1.57445983319248e-07
Setting atom values ...
  1 settings made for x
  1 settings made for y
  1 settings made for z
Setting up cg style minimization ...
  Unit style    : metal
  Current step  : 2139
Per MPI rank memory allocation (min/avg/max) = 5.441 | 5.816 | 6.074 Mbytes
Step PotEng KinEng TotEng v_fx v_fy v_fz 
    2139   -1152448.9            0   -1152448.9  0.078765757  0.039269598  0.008700459 
    2312   -1152448.9            0   -1152448.9 -3.1390544e-05 -4.4581963e-06 -4.3136066e-06 
Loop time of 2.01837 on 104 procs for 173 steps with 288751 atoms

99.9% CPU use with 104 MPI tasks x 1 OpenMP threads

Minimization stats:
  Stopping criterion = energy tolerance
  Energy initial, next-to-last, final = 
     -1152448.94744549  -1152448.94967617  -1152448.94967617
  Force two-norm initial, final = 0.21506739 0.0001541167
  Force max component initial, final = 0.10151502 4.6862077e-05
  Final line search alpha, max atom move = 1.0000000 4.6862077e-05
  Iterations, force evaluations = 173 346

MPI task timing breakdown:
Section |  min time  |  avg time  |  max time  |%varavg| %total
---------------------------------------------------------------
Pair    | 0.52331    | 1.4598     | 1.9017     |  32.6 | 72.32
Neigh   | 0          | 0          | 0          |   0.0 |  0.00
Comm    | 0.029199   | 0.33046    | 1.0047     |  48.3 | 16.37
Output  | 0          | 0          | 0          |   0.0 |  0.00
Modify  | 2.0428e-05 | 0.0028553  | 0.0061099  |   2.5 |  0.14
Other   |            | 0.2253     |            |       | 11.16

Nlocal:        2776.45 ave        3956 max           0 min
Histogram: 8 4 4 0 4 12 8 0 30 34
Nghost:        3879.09 ave        5424 max         232 min
Histogram: 8 0 8 0 16 0 8 8 16 40
Neighs:        79213.5 ave      115299 max           0 min
Histogram: 8 4 4 0 10 6 8 8 24 32

Total # of neighbors = 8238201
Ave neighs/atom = 28.530467
Neighbor list builds = 0
Dangerous builds = 0
The dot product: -2.64153243113391e-07
Setting atom values ...
  1 settings made for x
  1 settings made for y
  1 settings made for z
Setting up cg style minimization ...
  Unit style    : metal
  Current step  : 2312
Per MPI rank memory allocation (min/avg/max) = 5.441 | 5.816 | 6.074 Mbytes
Step PotEng KinEng TotEng v_fx v_fy v_fz 
    2312   -1152448.9            0   -1152448.9  0.082633824  0.040251189 0.0057298258 
    2488   -1152448.9            0   -1152448.9 -2.5454774e-05 -2.5111315e-06 -2.6381234e-06 
Loop time of 2.0456 on 104 procs for 176 steps with 288751 atoms

99.9% CPU use with 104 MPI tasks x 1 OpenMP threads

Minimization stats:
  Stopping criterion = energy tolerance
  Energy initial, next-to-last, final = 
     -1152448.94254312   -1152448.9447244   -1152448.9447244
  Force two-norm initial, final = 0.21318136 0.00013737483
  Force max component initial, final = 0.097327929 4.2722721e-05
  Final line search alpha, max atom move = 1.0000000 4.2722721e-05
  Iterations, force evaluations = 176 352

MPI task timing breakdown:
Section |  min time  |  avg time  |  max time  |%varavg| %total
---------------------------------------------------------------
Pair    | 0.53273    | 1.4775     | 1.9311     |  32.8 | 72.23
Neigh   | 0          | 0          | 0          |   0.0 |  0.00
Comm    | 0.032427   | 0.33144    | 0.99201    |  48.4 | 16.20
Output  | 0          | 0          | 0          |   0.0 |  0.00
Modify  | 2.0829e-05 | 0.0028973  | 0.0061705  |   2.5 |  0.14
Other   |            | 0.2338     |            |       | 11.43

Nlocal:        2776.45 ave        3955 max           0 min
Histogram: 8 4 4 0 4 12 8 0 30 34
Nghost:        3879.11 ave        5424 max         232 min
Histogram: 8 0 8 0 16 0 8 8 16 40
Neighs:        79213.5 ave      115268 max           0 min
Histogram: 8 4 4 0 10 6 8 8 24 32

Total # of neighbors = 8238208
Ave neighs/atom = 28.530492
Neighbor list builds = 0
Dangerous builds = 0
The dot product: -2.1354811117848e-07
Setting atom values ...
  1 settings made for x
  1 settings made for y
  1 settings made for z
Setting up cg style minimization ...
  Unit style    : metal
  Current step  : 2488
Per MPI rank memory allocation (min/avg/max) = 5.441 | 5.816 | 6.074 Mbytes
Step PotEng KinEng TotEng v_fx v_fy v_fz 
    2488   -1152448.9            0   -1152448.9  0.084525624  0.041082903 0.0025511532 
    2651   -1152448.9            0   -1152448.9 -5.9248962e-05 -9.0314488e-06 -3.7833104e-06 
Loop time of 1.89781 on 104 procs for 163 steps with 288751 atoms

99.9% CPU use with 104 MPI tasks x 1 OpenMP threads

Minimization stats:
  Stopping criterion = energy tolerance
  Energy initial, next-to-last, final = 
     -1152448.93690638  -1152448.93897182  -1152448.93897182
  Force two-norm initial, final = 0.21092516 0.00019056923
  Force max component initial, final = 0.09299341 5.9863797e-05
  Final line search alpha, max atom move = 1.0000000 5.9863797e-05
  Iterations, force evaluations = 163 326

MPI task timing breakdown:
Section |  min time  |  avg time  |  max time  |%varavg| %total
---------------------------------------------------------------
Pair    | 0.49416    | 1.3736     | 1.7876     |  31.5 | 72.38
Neigh   | 0          | 0          | 0          |   0.0 |  0.00
Comm    | 0.02884    | 0.30671    | 0.92693    |  47.0 | 16.16
Output  | 0          | 0          | 0          |   0.0 |  0.00
Modify  | 1.9202e-05 | 0.002689   | 0.0057563  |   2.5 |  0.14
Other   |            | 0.2148     |            |       | 11.32

Nlocal:        2776.45 ave        3955 max           0 min
Histogram: 8 4 4 0 4 12 8 0 30 34
Nghost:        3879.12 ave        5424 max         232 min
Histogram: 8 0 8 0 16 0 8 8 16 40
Neighs:        79213.5 ave      115268 max           0 min
Histogram: 8 4 4 0 10 6 8 8 24 32

Total # of neighbors = 8238203
Ave neighs/atom = 28.530474
Neighbor list builds = 0
Dangerous builds = 0
The dot product: -4.41381808933501e-07
Setting atom values ...
  1 settings made for x
  1 settings made for y
  1 settings made for z
Setting up cg style minimization ...
  Unit style    : metal
  Current step  : 2651
Per MPI rank memory allocation (min/avg/max) = 5.441 | 5.816 | 6.074 Mbytes
Step PotEng KinEng TotEng v_fx v_fy v_fz 
    2651   -1152448.9            0   -1152448.9  0.084130605  0.041956058 -0.00035167406 
    2840   -1152448.9            0   -1152448.9 1.1858237e-06 5.6081055e-07 -1.4409433e-09 
Loop time of 2.20934 on 104 procs for 189 steps with 288751 atoms

99.9% CPU use with 104 MPI tasks x 1 OpenMP threads

Minimization stats:
  Stopping criterion = energy tolerance
  Energy initial, next-to-last, final = 
       -1152448.930397  -1152448.93237045  -1152448.93237045
  Force two-norm initial, final = 0.20852408 6.7926508e-05
  Force max component initial, final = 0.089277879 2.7590216e-06
  Final line search alpha, max atom move = 1.0000000 2.7590216e-06
  Iterations, force evaluations = 189 378

MPI task timing breakdown:
Section |  min time  |  avg time  |  max time  |%varavg| %total
---------------------------------------------------------------
Pair    | 0.57399    | 1.5872     | 2.0689     |  34.0 | 71.84
Neigh   | 0          | 0          | 0          |   0.0 |  0.00
Comm    | 0.032211   | 0.35896    | 1.0776     |  49.8 | 16.25
Output  | 0          | 0          | 0          |   0.0 |  0.00
Modify  | 2.2608e-05 | 0.0031154  | 0.0066818  |   2.6 |  0.14
Other   |            | 0.2601     |            |       | 11.77

Nlocal:        2776.45 ave        3956 max           0 min
Histogram: 8 4 4 0 4 12 8 0 30 34
Nghost:        3879.12 ave        5424 max         232 min
Histogram: 8 0 8 0 16 0 8 8 16 40
Neighs:        79213.4 ave      115301 max           0 min
Histogram: 8 4 4 0 10 6 8 8 24 32

Total # of neighbors = 8238198
Ave neighs/atom = 28.530457
Neighbor list builds = 0
Dangerous builds = 0
The dot product: 9.58598061872829e-09
Setting atom values ...
  1 settings made for x
  1 settings made for y
  1 settings made for z
Setting up cg style minimization ...
  Unit style    : metal
  Current step  : 2840
Per MPI rank memory allocation (min/avg/max) = 5.441 | 5.816 | 6.074 Mbytes
Step PotEng KinEng TotEng v_fx v_fy v_fz 
    2840   -1152448.9            0   -1152448.9  0.083386638  0.035560319 -0.0019727649 
    3000   -1152448.9            0   -1152448.9 -2.0148484e-05 -1.7335888e-06 -4.1378506e-07 
    3018   -1152448.9            0   -1152448.9 2.0863736e-05 5.2527949e-06 -2.0428051e-08 
Loop time of 2.07647 on 104 procs for 178 steps with 288751 atoms

99.9% CPU use with 104 MPI tasks x 1 OpenMP threads

Minimization stats:
  Stopping criterion = energy tolerance
  Energy initial, next-to-last, final = 
     -1152448.92286577  -1152448.92475476  -1152448.92475476
  Force two-norm initial, final = 0.2048189 0.00010786089
  Force max component initial, final = 0.085970822 2.0863736e-05
  Final line search alpha, max atom move = 1.0000000 2.0863736e-05
  Iterations, force evaluations = 178 356

MPI task timing breakdown:
Section |  min time  |  avg time  |  max time  |%varavg| %total
---------------------------------------------------------------
Pair    | 0.53803    | 1.4998     | 1.9505     |  33.0 | 72.23
Neigh   | 0          | 0          | 0          |   0.0 |  0.00
Comm    | 0.031203   | 0.33594    | 1.0113     |  49.0 | 16.18
Output  | 0.0001376  | 0.00014704 | 0.00028478 |   0.0 |  0.01
Modify  | 2.1958e-05 | 0.0029369  | 0.0062658  |   2.6 |  0.14
Other   |            | 0.2377     |            |       | 11.45

Nlocal:        2776.45 ave        3956 max           0 min
Histogram: 8 4 4 0 4 12 8 0 30 34
Nghost:        3879.12 ave        5424 max         232 min
Histogram: 8 0 8 0 16 0 8 8 16 40
Neighs:        79213.5 ave      115301 max           0 min
Histogram: 8 4 4 0 10 6 8 8 24 32

Total # of neighbors = 8238199
Ave neighs/atom = 28.530461
Neighbor list builds = 0
Dangerous builds = 0
The dot product: 1.26199337405652e-07
Setting atom values ...
  1 settings made for x
  1 settings made for y
  1 settings made for z
Setting up cg style minimization ...
  Unit style    : metal
  Current step  : 3018
Per MPI rank memory allocation (min/avg/max) = 5.441 | 5.816 | 6.074 Mbytes
Step PotEng KinEng TotEng v_fx v_fy v_fz 
    3018   -1152448.9            0   -1152448.9  0.082747717  0.025728698 -0.0024086959 
    3190   -1152448.9            0   -1152448.9 -3.142114e-05 -7.061775e-06 5.3924796e-07 
Loop time of 2.00238 on 104 procs for 172 steps with 288751 atoms

99.9% CPU use with 104 MPI tasks x 1 OpenMP threads

Minimization stats:
  Stopping criterion = energy tolerance
  Energy initial, next-to-last, final = 
     -1152448.91401225  -1152448.91588286  -1152448.91588286
  Force two-norm initial, final = 0.20195005 0.00012213348
  Force max component initial, final = 0.083797509 3.5378029e-05
  Final line search alpha, max atom move = 1.0000000 3.5378029e-05
  Iterations, force evaluations = 172 344

MPI task timing breakdown:
Section |  min time  |  avg time  |  max time  |%varavg| %total
---------------------------------------------------------------
Pair    | 0.52523    | 1.4442     | 1.8788     |  32.2 | 72.12
Neigh   | 0          | 0          | 0          |   0.0 |  0.00
Comm    | 0.032964   | 0.32343    | 0.97688    |  48.1 | 16.15
Output  | 0          | 0          | 0          |   0.0 |  0.00
Modify  | 2.2338e-05 | 0.0028409  | 0.0060625  |   2.5 |  0.14
Other   |            | 0.232      |            |       | 11.58

Nlocal:        2776.45 ave        3956 max           0 min
Histogram: 8 4 4 0 4 12 8 0 30 34
Nghost:        3879.12 ave        5424 max         232 min
Histogram: 8 0 8 0 16 0 8 8 16 40
Neighs:        79213.4 ave      115301 max           0 min
Histogram: 8 4 4 0 10 6 8 8 24 32

Total # of neighbors = 8238198
Ave neighs/atom = 28.530457
Neighbor list builds = 0
Dangerous builds = 0
The dot product: -1.55053479534041e-07
Setting atom values ...
  1 settings made for x
  1 settings made for y
  1 settings made for z
Setting up cg style minimization ...
  Unit style    : metal
  Current step  : 3190
Per MPI rank memory allocation (min/avg/max) = 5.441 | 5.816 | 6.074 Mbytes
Step PotEng KinEng TotEng v_fx v_fy v_fz 
    3190   -1152448.9            0   -1152448.9   0.08235044   0.02025367 -0.0029170386 
    3356   -1152448.9            0   -1152448.9 -3.9055869e-05 -6.02545e-06 8.7751592e-07 
Loop time of 1.94529 on 104 procs for 166 steps with 288751 atoms

99.9% CPU use with 104 MPI tasks x 1 OpenMP threads

Minimization stats:
  Stopping criterion = energy tolerance
  Energy initial, next-to-last, final = 
       -1152448.903792  -1152448.90565506  -1152448.90565506
  Force two-norm initial, final = 0.2003751 0.00014723194
  Force max component initial, final = 0.082576202 6.0401966e-05
  Final line search alpha, max atom move = 1.0000000 6.0401966e-05
  Iterations, force evaluations = 166 332

MPI task timing breakdown:
Section |  min time  |  avg time  |  max time  |%varavg| %total
---------------------------------------------------------------
Pair    | 0.50251    | 1.4035     | 1.8313     |  31.9 | 72.15
Neigh   | 0          | 0          | 0          |   0.0 |  0.00
Comm    | 0.028411   | 0.31764    | 0.95759    |  47.3 | 16.33
Output  | 0          | 0          | 0          |   0.0 |  0.00
Modify  | 2.0495e-05 | 0.0027445  | 0.0058844  |   2.5 |  0.14
Other   |            | 0.2214     |            |       | 11.38

Nlocal:        2776.45 ave        3956 max           0 min
Histogram: 8 4 4 0 4 12 8 0 30 34
Nghost:        3879.12 ave        5424 max         232 min
Histogram: 8 0 8 0 16 0 8 8 16 40
Neighs:        79213.4 ave      115302 max           0 min
Histogram: 8 4 4 0 10 6 8 8 24 32

Total # of neighbors = 8238198
Ave neighs/atom = 28.530457
Neighbor list builds = 0
Dangerous builds = 0
The dot product: -1.61192851712101e-07
Setting atom values ...
  1 settings made for x
  1 settings made for y
  1 settings made for z
Setting up cg style minimization ...
  Unit style    : metal
  Current step  : 3356
Per MPI rank memory allocation (min/avg/max) = 5.441 | 5.816 | 6.074 Mbytes
Step PotEng KinEng TotEng v_fx v_fy v_fz 
    3356   -1152448.9            0   -1152448.9  0.081853525  0.016879428 -0.0034245142 
    3526   -1152448.9            0   -1152448.9 -1.9165299e-06 -1.5133451e-06 2.3817611e-07 
Loop time of 1.99655 on 104 procs for 170 steps with 288751 atoms

99.9% CPU use with 104 MPI tasks x 1 OpenMP threads

Minimization stats:
  Stopping criterion = energy tolerance
  Energy initial, next-to-last, final = 
     -1152448.89220949   -1152448.8940819   -1152448.8940819
  Force two-norm initial, final = 0.199404 0.00013380984
  Force max component initial, final = 0.084245063 1.4677926e-05
  Final line search alpha, max atom move = 1.0000000 1.4677926e-05
  Iterations, force evaluations = 170 340

MPI task timing breakdown:
Section |  min time  |  avg time  |  max time  |%varavg| %total
---------------------------------------------------------------
Pair    | 0.51594    | 1.43       | 1.8848     |  32.3 | 71.62
Neigh   | 0          | 0          | 0          |   0.0 |  0.00
Comm    | 0.031179   | 0.32401    | 0.96551    |  47.4 | 16.23
Output  | 0          | 0          | 0          |   0.0 |  0.00
Modify  | 2.0557e-05 | 0.0028077  | 0.0060089  |   2.5 |  0.14
Other   |            | 0.2398     |            |       | 12.01

Nlocal:        2776.45 ave        3957 max           0 min
Histogram: 8 4 4 0 4 12 8 2 28 34
Nghost:        3879.07 ave        5424 max         232 min
Histogram: 8 0 8 0 16 0 8 8 16 40
Neighs:        79213.5 ave      115342 max           0 min
Histogram: 8 4 4 0 10 6 8 8 24 32

Total # of neighbors = 8238200
Ave neighs/atom = 28.530464
Neighbor list builds = 0
Dangerous builds = 0
The dot product: -5.10509283013016e-09
Setting atom values ...
  1 settings made for x
  1 settings made for y
  1 settings made for z
Setting up cg style minimization ...
  Unit style    : metal
  Current step  : 3526
Per MPI rank memory allocation (min/avg/max) = 5.441 | 5.816 | 6.074 Mbytes
Step PotEng KinEng TotEng v_fx v_fy v_fz 
    3526   -1152448.9            0   -1152448.9  0.080335522  0.014405133 -0.0036962061 
    3686   -1152448.9            0   -1152448.9 6.9149117e-06 1.3262188e-06 -3.3025594e-07 
Loop time of 1.87549 on 104 procs for 160 steps with 288751 atoms

99.9% CPU use with 104 MPI tasks x 1 OpenMP threads

Minimization stats:
  Stopping criterion = energy tolerance
  Energy initial, next-to-last, final = 
     -1152448.87932168  -1152448.88131525  -1152448.88131525
  Force two-norm initial, final = 0.1985479 0.0002466993
  Force max component initial, final = 0.085661346 1.8330480e-05
  Final line search alpha, max atom move = 1.0000000 1.8330480e-05
  Iterations, force evaluations = 160 320

MPI task timing breakdown:
Section |  min time  |  avg time  |  max time  |%varavg| %total
---------------------------------------------------------------
Pair    | 0.4878     | 1.3529     | 1.761      |  31.3 | 72.13
Neigh   | 0          | 0          | 0          |   0.0 |  0.00
Comm    | 0.028176   | 0.30526    | 0.9243     |  46.5 | 16.28
Output  | 0          | 0          | 0          |   0.0 |  0.00
Modify  | 1.9265e-05 | 0.0026457  | 0.0057316  |   2.4 |  0.14
Other   |            | 0.2147     |            |       | 11.45

Nlocal:        2776.45 ave        3957 max           0 min
Histogram: 8 4 4 0 4 12 8 2 28 34
Nghost:        3879.11 ave        5425 max         232 min
Histogram: 8 0 8 0 16 0 8 8 16 40
Neighs:        79213.4 ave      115341 max           0 min
Histogram: 8 4 4 0 10 6 8 8 24 32

Total # of neighbors = 8238198
Ave neighs/atom = 28.530457
Neighbor list builds = 0
Dangerous builds = 0
The dot product: -4.53068034699885e-08
Setting atom values ...
  1 settings made for x
  1 settings made for y
  1 settings made for z
Setting up cg style minimization ...
  Unit style    : metal
  Current step  : 3686
Per MPI rank memory allocation (min/avg/max) = 5.441 | 5.816 | 6.074 Mbytes
Step PotEng KinEng TotEng v_fx v_fy v_fz 
    3686   -1152448.9            0   -1152448.9  0.066098505  0.013784894 -0.0021796275 
    3851   -1152448.9            0   -1152448.9 -3.7067652e-05 -6.6106768e-06 1.0668464e-06 
Loop time of 1.92584 on 104 procs for 165 steps with 288751 atoms

99.9% CPU use with 104 MPI tasks x 1 OpenMP threads

Minimization stats:
  Stopping criterion = energy tolerance
  Energy initial, next-to-last, final = 
      -1152448.8658406  -1152448.86842984  -1152448.86842984
  Force two-norm initial, final = 0.1950772 0.00021819484
  Force max component initial, final = 0.084505914 4.6990953e-05
  Final line search alpha, max atom move = 1.0000000 4.6990953e-05
  Iterations, force evaluations = 165 330

MPI task timing breakdown:
Section |  min time  |  avg time  |  max time  |%varavg| %total
---------------------------------------------------------------
Pair    | 0.49981    | 1.3919     | 1.8184     |  31.9 | 72.27
Neigh   | 0          | 0          | 0          |   0.0 |  0.00
Comm    | 0.027855   | 0.31357    | 0.95223    |  47.2 | 16.28
Output  | 0          | 0          | 0          |   0.0 |  0.00
Modify  | 1.9473e-05 | 0.0027229  | 0.0058573  |   2.5 |  0.14
Other   |            | 0.2177     |            |       | 11.30

Nlocal:        2776.45 ave        3958 max           0 min
Histogram: 8 4 4 0 4 12 8 2 28 34
Nghost:        3879.14 ave        5425 max         232 min
Histogram: 8 0 8 0 16 0 8 8 16 40
Neighs:        79213.4 ave      115377 max           0 min
Histogram: 8 4 4 0 10 6 8 8 24 32

Total # of neighbors = 8238191
Ave neighs/atom = 28.530433
Neighbor list builds = 0
Dangerous builds = 0
The dot product: 6.57177441651571e-07
Setting atom values ...
  1 settings made for x
  1 settings made for y
  1 settings made for z
Setting up cg style minimization ...
  Unit style    : metal
  Current step  : 3851
Per MPI rank memory allocation (min/avg/max) = 5.441 | 5.816 | 6.074 Mbytes
Step PotEng KinEng TotEng v_fx v_fy v_fz 
    3851   -1152448.9            0   -1152448.9  0.050212152  0.013176536 0.00019038141 
    4000   -1152448.9            0   -1152448.9 0.00014050961 2.2150179e-05 2.5335342e-06 
    4028   -1152448.9            0   -1152448.9 -4.0216442e-05 -5.0422826e-06 -9.0148159e-07 
Loop time of 2.10447 on 104 procs for 177 steps with 288751 atoms

99.9% CPU use with 104 MPI tasks x 1 OpenMP threads

Minimization stats:
  Stopping criterion = energy tolerance
  Energy initial, next-to-last, final = 
     -1152448.85246267  -1152448.85460269  -1152448.85460269
  Force two-norm initial, final = 0.19411105 0.00020671294
  Force max component initial, final = 0.086688607 5.6788148e-05
  Final line search alpha, max atom move = 1.0000000 5.6788148e-05
  Iterations, force evaluations = 177 354

MPI task timing breakdown:
Section |  min time  |  avg time  |  max time  |%varavg| %total
---------------------------------------------------------------
Pair    | 0.54931    | 1.5042     | 1.9376     |  32.5 | 71.48
Neigh   | 0          | 0          | 0          |   0.0 |  0.00
Comm    | 0.031368   | 0.34148    | 1.022      |  48.1 | 16.23
Output  | 0.00011102 | 0.00012251 | 0.00027896 |   0.0 |  0.01
Modify  | 2.194e-05  | 0.0029228  | 0.0062674  |   2.6 |  0.14
Other   |            | 0.2557     |            |       | 12.15

Nlocal:        2776.45 ave        3959 max           0 min
Histogram: 8 4 4 0 4 12 8 2 28 34
Nghost:        3879.12 ave        5425 max         232 min
Histogram: 8 0 8 0 16 0 8 8 16 40
Neighs:        79213.4 ave      115413 max           0 min
Histogram: 8 4 4 0 10 6 8 8 24 32

Total # of neighbors = 8238193
Ave neighs/atom = 28.530440
Neighbor list builds = 0
Dangerous builds = 0
The dot product: 4.8363226448988e-07
Setting atom values ...
  1 settings made for x
  1 settings made for y
  1 settings made for z
Setting up cg style minimization ...
  Unit style    : metal
  Current step  : 4028
Per MPI rank memory allocation (min/avg/max) = 5.441 | 5.816 | 6.074 Mbytes
Step PotEng KinEng TotEng v_fx v_fy v_fz 
    4028   -1152448.8            0   -1152448.8  0.059130072     0.011329 0.0024924523 
    4253   -1152448.8            0   -1152448.8 -1.0155216e-05 -1.1566486e-06 -5.3203643e-07 
Loop time of 2.61706 on 104 procs for 225 steps with 288751 atoms

99.9% CPU use with 104 MPI tasks x 1 OpenMP threads

Minimization stats:
  Stopping criterion = energy tolerance
  Energy initial, next-to-last, final = 
     -1152448.83729163  -1152448.83937884  -1152448.83937884
  Force two-norm initial, final = 0.19886453 5.2064585e-05
  Force max component initial, final = 0.091523552 2.1184691e-05
  Final line search alpha, max atom move = 1.0000000 2.1184691e-05
  Iterations, force evaluations = 225 450

MPI task timing breakdown:
Section |  min time  |  avg time  |  max time  |%varavg| %total
---------------------------------------------------------------
Pair    | 0.68189    | 1.8887     | 2.4612     |  37.0 | 72.17
Neigh   | 0          | 0          | 0          |   0.0 |  0.00
Comm    | 0.038287   | 0.42383    | 1.271      |  54.8 | 16.19
Output  | 0          | 0          | 0          |   0.0 |  0.00
Modify  | 2.8527e-05 | 0.0037105  | 0.007993   |   2.9 |  0.14
Other   |            | 0.3008     |            |       | 11.49

Nlocal:        2776.45 ave        3959 max           0 min
Histogram: 8 4 4 0 4 12 8 2 28 34
Nghost:        3879.20 ave        5425 max         232 min
Histogram: 8 0 8 0 16 0 8 8 16 40
Neighs:        79213.4 ave      115410 max           0 min
Histogram: 8 4 4 0 10 6 8 8 24 32

Total # of neighbors = 8238190
Ave neighs/atom = 28.530429
Neighbor list builds = 0
Dangerous builds = 0
The dot product: 1.15157694275653e-07
Setting atom values ...
  1 settings made for x
  1 settings made for y
  1 settings made for z
Setting up cg style minimization ...
  Unit style    : metal
  Current step  : 4253
Per MPI rank memory allocation (min/avg/max) = 5.441 | 5.816 | 6.074 Mbytes
Step PotEng KinEng TotEng v_fx v_fy v_fz 
    4253   -1152448.8            0   -1152448.8   0.06034498 0.0083545045  0.004524134 
    4445   -1152448.8            0   -1152448.8 3.3854208e-05 7.7820048e-06 2.1500149e-06 
Loop time of 2.27692 on 104 procs for 192 steps with 288751 atoms

99.9% CPU use with 104 MPI tasks x 1 OpenMP threads

Minimization stats:
  Stopping criterion = energy tolerance
  Energy initial, next-to-last, final = 
     -1152448.82079684  -1152448.82287605  -1152448.82287605
  Force two-norm initial, final = 0.20121871 0.00011546471
  Force max component initial, final = 0.09616433 3.3854208e-05
  Final line search alpha, max atom move = 1.0000000 3.3854208e-05
  Iterations, force evaluations = 192 384

MPI task timing breakdown:
Section |  min time  |  avg time  |  max time  |%varavg| %total
---------------------------------------------------------------
Pair    | 0.5823     | 1.6249     | 2.1206     |  34.5 | 71.36
Neigh   | 0          | 0          | 0          |   0.0 |  0.00
Comm    | 0.034308   | 0.36902    | 1.1086     |  50.2 | 16.21
Output  | 0          | 0          | 0          |   0.0 |  0.00
Modify  | 2.2579e-05 | 0.0031692  | 0.0068254  |   2.7 |  0.14
Other   |            | 0.2799     |            |       | 12.29

Nlocal:        2776.45 ave        3960 max           0 min
Histogram: 8 4 4 0 4 12 8 2 28 34
Nghost:        3879.20 ave        5425 max         232 min
Histogram: 8 0 8 0 16 0 8 8 16 40
Neighs:        79213.4 ave      115433 max           0 min
Histogram: 8 4 4 0 10 6 8 8 24 32

Total # of neighbors = 8238191
Ave neighs/atom = 28.530433
Neighbor list builds = 0
Dangerous builds = 0
The dot product: -2.57775548219809e-07
Setting atom values ...
  1 settings made for x
  1 settings made for y
  1 settings made for z
Setting up cg style minimization ...
  Unit style    : metal
  Current step  : 4445
Per MPI rank memory allocation (min/avg/max) = 5.441 | 5.816 | 6.074 Mbytes
Step PotEng KinEng TotEng v_fx v_fy v_fz 
    4445   -1152448.8            0   -1152448.8  0.067782255   0.00841762 0.0062850743 
    4606   -1152448.8            0   -1152448.8 -4.435086e-05 -1.2909799e-05 -3.2220323e-06 
Loop time of 1.87885 on 104 procs for 161 steps with 288751 atoms

99.9% CPU use with 104 MPI tasks x 1 OpenMP threads

Minimization stats:
  Stopping criterion = energy tolerance
  Energy initial, next-to-last, final = 
     -1152448.80293207  -1152448.80493526  -1152448.80493526
  Force two-norm initial, final = 0.20487407 0.00019726141
  Force max component initial, final = 0.099081899 4.4350860e-05
  Final line search alpha, max atom move = 1.0000000 4.4350860e-05
  Iterations, force evaluations = 161 322

MPI task timing breakdown:
Section |  min time  |  avg time  |  max time  |%varavg| %total
---------------------------------------------------------------
Pair    | 0.48851    | 1.3539     | 1.7678     |  31.4 | 72.06
Neigh   | 0          | 0          | 0          |   0.0 |  0.00
Comm    | 0.026899   | 0.30561    | 0.91909    |  46.2 | 16.27
Output  | 0          | 0          | 0          |   0.0 |  0.00
Modify  | 1.8993e-05 | 0.0026595  | 0.0056992  |   2.4 |  0.14
Other   |            | 0.2167     |            |       | 11.53

Nlocal:        2776.45 ave        3960 max           0 min
Histogram: 8 4 4 0 4 12 8 2 28 34
Nghost:        3879.16 ave        5425 max         232 min
Histogram: 8 0 8 0 16 0 8 8 16 40
Neighs:        79213.4 ave      115428 max           0 min
Histogram: 8 4 4 0 10 6 8 8 24 32

Total # of neighbors = 8238191
Ave neighs/atom = 28.530433
Neighbor list builds = 0
Dangerous builds = 0
The dot product: 1.8296187528174e-07
Setting atom values ...
  1 settings made for x
  1 settings made for y
  1 settings made for z
Setting up cg style minimization ...
  Unit style    : metal
  Current step  : 4606
Per MPI rank memory allocation (min/avg/max) = 5.441 | 5.816 | 6.074 Mbytes
Step PotEng KinEng TotEng v_fx v_fy v_fz 
    4606   -1152448.8            0   -1152448.8  0.074588452 0.0087198306 0.0075713321 
    4785   -1152448.8            0   -1152448.8 -3.2417636e-05 -6.6952153e-06 -2.9523382e-06 
Loop time of 2.1039 on 104 procs for 179 steps with 288751 atoms

99.9% CPU use with 104 MPI tasks x 1 OpenMP threads

Minimization stats:
  Stopping criterion = energy tolerance
  Energy initial, next-to-last, final = 
     -1152448.78361183  -1152448.78554942  -1152448.78554942
  Force two-norm initial, final = 0.20768718 9.2147485e-05
  Force max component initial, final = 0.10045713 3.2417636e-05
  Final line search alpha, max atom move = 1.0000000 3.2417636e-05
  Iterations, force evaluations = 179 358

MPI task timing breakdown:
Section |  min time  |  avg time  |  max time  |%varavg| %total
---------------------------------------------------------------
Pair    | 0.54248    | 1.5197     | 1.9845     |  33.3 | 72.23
Neigh   | 0          | 0          | 0          |   0.0 |  0.00
Comm    | 0.031593   | 0.34097    | 1.0304     |  49.4 | 16.21
Output  | 0          | 0          | 0          |   0.0 |  0.00
Modify  | 2.2508e-05 | 0.0029591  | 0.0063878  |   2.6 |  0.14
Other   |            | 0.2403     |            |       | 11.42

Nlocal:        2776.45 ave        3960 max           0 min
Histogram: 8 4 4 0 4 12 8 2 28 34
Nghost:        3879.13 ave        5424 max         232 min
Histogram: 8 0 8 0 16 0 8 8 16 40
Neighs:        79213.3 ave      115428 max           0 min
Histogram: 8 4 4 0 10 6 8 8 24 32

Total # of neighbors = 8238188
Ave neighs/atom = 28.530422
Neighbor list builds = 0
Dangerous builds = 0
The dot product: 1.17934197918223e-08
Setting atom values ...
  1 settings made for x
  1 settings made for y
  1 settings made for z
Setting up cg style minimization ...
  Unit style    : metal
  Current step  : 4785
Per MPI rank memory allocation (min/avg/max) = 5.441 | 5.816 | 6.074 Mbytes
Step PotEng KinEng TotEng v_fx v_fy v_fz 
    4785   -1152448.8            0   -1152448.8  0.081511006 0.0086074878 0.0084120051 
    4969   -1152448.8            0   -1152448.8 -1.2556795e-05 -2.6703262e-06 -1.1439967e-06 
Loop time of 2.16408 on 104 procs for 184 steps with 288751 atoms

99.9% CPU use with 104 MPI tasks x 1 OpenMP threads

Minimization stats:
  Stopping criterion = energy tolerance
  Energy initial, next-to-last, final = 
      -1152448.7627624  -1152448.76464154  -1152448.76464154
  Force two-norm initial, final = 0.20998982 6.3715308e-05
  Force max component initial, final = 0.100521 2.2017043e-05
  Final line search alpha, max atom move = 1.0000000 2.2017043e-05
  Iterations, force evaluations = 184 368

MPI task timing breakdown:
Section |  min time  |  avg time  |  max time  |%varavg| %total
---------------------------------------------------------------
Pair    | 0.55713    | 1.5475     | 2.0287     |  33.6 | 71.51
Neigh   | 0          | 0          | 0          |   0.0 |  0.00
Comm    | 0.03306    | 0.35184    | 1.0527     |  49.0 | 16.26
Output  | 0          | 0          | 0          |   0.0 |  0.00
Modify  | 2.174e-05  | 0.003035   | 0.0064889  |   2.6 |  0.14
Other   |            | 0.2617     |            |       | 12.09

Nlocal:        2776.45 ave        3960 max           0 min
Histogram: 8 4 4 0 4 12 8 2 28 34
Nghost:        3879.05 ave        5423 max         232 min
Histogram: 8 0 8 0 16 0 8 8 16 40
Neighs:        79213.3 ave      115429 max           0 min
Histogram: 8 4 4 0 10 6 8 8 24 32

Total # of neighbors = 8238188
Ave neighs/atom = 28.530422
Neighbor list builds = 0
Dangerous builds = 0
The dot product: -3.17697718554187e-08
Setting atom values ...
  1 settings made for x
  1 settings made for y
  1 settings made for z
Setting up cg style minimization ...
  Unit style    : metal
  Current step  : 4969
Per MPI rank memory allocation (min/avg/max) = 5.441 | 5.816 | 6.074 Mbytes
Step PotEng KinEng TotEng v_fx v_fy v_fz 
    4969   -1152448.7            0   -1152448.7  0.087011495  0.008246388 0.0086262853 
    5000   -1152448.7            0   -1152448.7 -0.00090357944 -0.0001396019 -8.3680336e-05 
    5138   -1152448.7            0   -1152448.7 -2.0937247e-07 1.5111386e-06 -1.8813987e-07 
Loop time of 1.99841 on 104 procs for 169 steps with 288751 atoms

99.9% CPU use with 104 MPI tasks x 1 OpenMP threads

Minimization stats:
  Stopping criterion = energy tolerance
  Energy initial, next-to-last, final = 
     -1152448.74035288  -1152448.74220827  -1152448.74220827
  Force two-norm initial, final = 0.21127828 8.9999433e-05
  Force max component initial, final = 0.099433488 1.7602588e-05
  Final line search alpha, max atom move = 1.0000000 1.7602588e-05
  Iterations, force evaluations = 169 338

MPI task timing breakdown:
Section |  min time  |  avg time  |  max time  |%varavg| %total
---------------------------------------------------------------
Pair    | 0.5131     | 1.4304     | 1.8651     |  32.1 | 71.58
Neigh   | 0          | 0          | 0          |   0.0 |  0.00
Comm    | 0.031683   | 0.32753    | 0.97861    |  47.2 | 16.39
Output  | 9.4862e-05 | 0.00010029 | 0.00018053 |   0.0 |  0.01
Modify  | 2.1692e-05 | 0.0027944  | 0.0059848  |   2.5 |  0.14
Other   |            | 0.2376     |            |       | 11.89

Nlocal:        2776.45 ave        3960 max           0 min
Histogram: 8 4 4 0 4 12 8 2 28 34
Nghost:        3879.09 ave        5423 max         232 min
Histogram: 8 0 8 0 16 0 8 8 16 40
Neighs:        79213.3 ave      115429 max           0 min
Histogram: 8 4 4 0 10 6 8 8 24 32

Total # of neighbors = 8238187
Ave neighs/atom = 28.530419
Neighbor list builds = 0
Dangerous builds = 0
The dot product: -4.05830448597288e-09
Setting atom values ...
  1 settings made for x
  1 settings made for y
  1 settings made for z
Setting up cg style minimization ...
  Unit style    : metal
  Current step  : 5138
Per MPI rank memory allocation (min/avg/max) = 5.441 | 5.816 | 6.074 Mbytes
Step PotEng KinEng TotEng v_fx v_fy v_fz 
    5138   -1152448.7            0   -1152448.7  0.090216203 0.0084022738 0.0081942319 
    5336   -1152448.7            0   -1152448.7 8.6814278e-06 1.4740558e-06 7.1824802e-07 
Loop time of 2.34654 on 104 procs for 198 steps with 288751 atoms

99.9% CPU use with 104 MPI tasks x 1 OpenMP threads

Minimization stats:
  Stopping criterion = energy tolerance
  Energy initial, next-to-last, final = 
     -1152448.71642942  -1152448.71826037  -1152448.71826037
  Force two-norm initial, final = 0.21135882 4.0633170e-05
  Force max component initial, final = 0.097627639 1.1621754e-05
  Final line search alpha, max atom move = 1.0000000 1.1621754e-05
  Iterations, force evaluations = 198 396

MPI task timing breakdown:
Section |  min time  |  avg time  |  max time  |%varavg| %total
---------------------------------------------------------------
Pair    | 0.60048    | 1.6693     | 2.1862     |  35.0 | 71.14
Neigh   | 0          | 0          | 0          |   0.0 |  0.00
Comm    | 0.03734    | 0.38046    | 1.1256     |  51.2 | 16.21
Output  | 0          | 0          | 0          |   0.0 |  0.00
Modify  | 2.3213e-05 | 0.0032677  | 0.0069866  |   2.7 |  0.14
Other   |            | 0.2935     |            |       | 12.51

Nlocal:        2776.45 ave        3960 max           0 min
Histogram: 8 4 4 0 4 12 8 2 28 34
Nghost:        3879.01 ave        5423 max         232 min
Histogram: 8 0 8 0 16 0 8 8 16 40
Neighs:        79213.3 ave      115430 max           0 min
Histogram: 8 4 4 0 10 6 8 8 24 32

Total # of neighbors = 8238186
Ave neighs/atom = 28.530415
Neighbor list builds = 0
Dangerous builds = 0
The dot product: 4.86647814570238e-08
Setting atom values ...
  1 settings made for x
  1 settings made for y
  1 settings made for z
Setting up cg style minimization ...
  Unit style    : metal
  Current step  : 5336
Per MPI rank memory allocation (min/avg/max) = 5.441 | 5.816 | 6.074 Mbytes
Step PotEng KinEng TotEng v_fx v_fy v_fz 
    5336   -1152448.7            0   -1152448.7  0.091761327 0.0093280694 0.0073142533 
    5488   -1152448.7            0   -1152448.7 3.7632687e-05 5.0102133e-06 2.8789263e-06 
Loop time of 1.77732 on 104 procs for 152 steps with 288751 atoms

99.9% CPU use with 104 MPI tasks x 1 OpenMP threads

Minimization stats:
  Stopping criterion = energy tolerance
  Energy initial, next-to-last, final = 
     -1152448.69101602   -1152448.6928153   -1152448.6928153
  Force two-norm initial, final = 0.21060086 0.00018235719
  Force max component initial, final = 0.095359848 5.0685687e-05
  Final line search alpha, max atom move = 1.0000000 5.0685687e-05
  Iterations, force evaluations = 152 304

MPI task timing breakdown:
Section |  min time  |  avg time  |  max time  |%varavg| %total
---------------------------------------------------------------
Pair    | 0.4607     | 1.2832     | 1.6727     |  30.5 | 72.20
Neigh   | 0          | 0          | 0          |   0.0 |  0.00
Comm    | 0.025333   | 0.29227    | 0.88516    |  45.1 | 16.44
Output  | 0          | 0          | 0          |   0.0 |  0.00
Modify  | 1.8297e-05 | 0.0025106  | 0.005373   |   2.4 |  0.14
Other   |            | 0.1993     |            |       | 11.21

Nlocal:        2776.45 ave        3960 max           0 min
Histogram: 8 4 4 0 4 12 8 2 28 34
Nghost:        3879.02 ave        5423 max         232 min
Histogram: 8 0 8 0 16 0 8 8 16 40
Neighs:        79213.3 ave      115421 max           0 min
Histogram: 8 4 4 0 10 6 8 8 24 32

Total # of neighbors = 8238188
Ave neighs/atom = 28.530422
Neighbor list builds = 0
Dangerous builds = 0
The dot product: 2.43399220859219e-07
Setting atom values ...
  1 settings made for x
  1 settings made for y
  1 settings made for z
Setting up cg style minimization ...
  Unit style    : metal
  Current step  : 5488
Per MPI rank memory allocation (min/avg/max) = 5.441 | 5.816 | 6.074 Mbytes
Step PotEng KinEng TotEng v_fx v_fy v_fz 
    5488   -1152448.7            0   -1152448.7  0.092049693  0.011212828 0.0061231354 
    5665   -1152448.7            0   -1152448.7 -1.666967e-05 -2.1903257e-06 -1.0931184e-06 
Loop time of 2.06503 on 104 procs for 177 steps with 288751 atoms

99.9% CPU use with 104 MPI tasks x 1 OpenMP threads

Minimization stats:
  Stopping criterion = energy tolerance
  Energy initial, next-to-last, final = 
     -1152448.66413597  -1152448.66589727  -1152448.66589727
  Force two-norm initial, final = 0.20929759 7.2673005e-05
  Force max component initial, final = 0.092747341 2.0486300e-05
  Final line search alpha, max atom move = 1.0000000 2.0486300e-05
  Iterations, force evaluations = 177 354

MPI task timing breakdown:
Section |  min time  |  avg time  |  max time  |%varavg| %total
---------------------------------------------------------------
Pair    | 0.53453    | 1.4906     | 1.95       |  33.1 | 72.18
Neigh   | 0          | 0          | 0          |   0.0 |  0.00
Comm    | 0.030242   | 0.33526    | 1.0137     |  48.7 | 16.24
Output  | 0          | 0          | 0          |   0.0 |  0.00
Modify  | 2.1214e-05 | 0.0029245  | 0.0063125  |   2.6 |  0.14
Other   |            | 0.2363     |            |       | 11.44

Nlocal:        2776.45 ave        3960 max           0 min
Histogram: 8 4 4 0 4 12 8 2 28 34
Nghost:        3879.03 ave        5423 max         232 min
Histogram: 8 0 8 0 16 0 8 8 16 40
Neighs:        79213.3 ave      115421 max           0 min
Histogram: 8 4 4 0 10 6 8 8 24 32

Total # of neighbors = 8238186
Ave neighs/atom = 28.530415
Neighbor list builds = 0
Dangerous builds = 0
The dot product: -1.17133458467775e-07
Setting atom values ...
  1 settings made for x
  1 settings made for y
  1 settings made for z
Setting up cg style minimization ...
  Unit style    : metal
  Current step  : 5665
Per MPI rank memory allocation (min/avg/max) = 5.441 | 5.816 | 6.074 Mbytes
Step PotEng KinEng TotEng v_fx v_fy v_fz 
    5665   -1152448.6            0   -1152448.6  0.091091448  0.014225597 0.0046965158 
    5831   -1152448.6            0   -1152448.6 -3.4633534e-05 -4.9793196e-06 -1.826757e-06 
Loop time of 1.93334 on 104 procs for 166 steps with 288751 atoms

99.9% CPU use with 104 MPI tasks x 1 OpenMP threads

Minimization stats:
  Stopping criterion = energy tolerance
  Energy initial, next-to-last, final = 
     -1152448.63581875  -1152448.63753655  -1152448.63753655
  Force two-norm initial, final = 0.20753523 0.00011484582
  Force max component initial, final = 0.091091448 3.4633534e-05
  Final line search alpha, max atom move = 1.0000000 3.4633534e-05
  Iterations, force evaluations = 166 332

MPI task timing breakdown:
Section |  min time  |  avg time  |  max time  |%varavg| %total
---------------------------------------------------------------
Pair    | 0.50355    | 1.3984     | 1.8248     |  31.8 | 72.33
Neigh   | 0          | 0          | 0          |   0.0 |  0.00
Comm    | 0.027806   | 0.31519    | 0.95932    |  47.4 | 16.30
Output  | 0          | 0          | 0          |   0.0 |  0.00
Modify  | 1.9961e-05 | 0.00274    | 0.0059128  |   2.5 |  0.14
Other   |            | 0.217      |            |       | 11.22

Nlocal:        2776.45 ave        3960 max           0 min
Histogram: 8 4 4 0 4 12 8 2 28 34
Nghost:        3879.03 ave        5423 max         232 min
Histogram: 8 0 8 0 16 0 8 8 16 40
Neighs:        79213.3 ave      115414 max           0 min
Histogram: 8 4 4 0 10 6 8 8 24 32

Total # of neighbors = 8238188
Ave neighs/atom = 28.530422
Neighbor list builds = 0
Dangerous builds = 0
The dot product: -2.58102988360152e-07
Setting atom values ...
  1 settings made for x
  1 settings made for y
  1 settings made for z
Setting up cg style minimization ...
  Unit style    : metal
  Current step  : 5831
Per MPI rank memory allocation (min/avg/max) = 5.441 | 5.816 | 6.074 Mbytes
Step PotEng KinEng TotEng v_fx v_fy v_fz 
    5831   -1152448.6            0   -1152448.6   0.08903876  0.018719003 0.0030771029 
    5984   -1152448.6            0   -1152448.6 3.7128699e-05 2.0244536e-06 1.8260262e-06 
Loop time of 1.77537 on 104 procs for 153 steps with 288751 atoms

99.9% CPU use with 104 MPI tasks x 1 OpenMP threads

Minimization stats:
  Stopping criterion = energy tolerance
  Energy initial, next-to-last, final = 
     -1152448.60609939  -1152448.60777311  -1152448.60777311
  Force two-norm initial, final = 0.20563238 0.00017679392
  Force max component initial, final = 0.08903876 3.7128699e-05
  Final line search alpha, max atom move = 1.0000000 3.7128699e-05
  Iterations, force evaluations = 153 306

MPI task timing breakdown:
Section |  min time  |  avg time  |  max time  |%varavg| %total
---------------------------------------------------------------
Pair    | 0.46406    | 1.2835     | 1.6751     |  30.5 | 72.29
Neigh   | 0          | 0          | 0          |   0.0 |  0.00
Comm    | 0.026255   | 0.28787    | 0.86902    |  45.2 | 16.21
Output  | 0          | 0          | 0          |   0.0 |  0.00
Modify  | 1.8291e-05 | 0.0025294  | 0.005399   |   2.4 |  0.14
Other   |            | 0.2015     |            |       | 11.35

Nlocal:        2776.45 ave        3960 max           0 min
Histogram: 8 4 4 0 4 12 8 2 28 34
Nghost:        3879.07 ave        5424 max         232 min
Histogram: 8 0 8 0 16 0 8 8 16 40
Neighs:        79213.3 ave      115415 max           0 min
Histogram: 8 4 4 0 10 6 8 8 24 32

Total # of neighbors = 8238188
Ave neighs/atom = 28.530422
Neighbor list builds = 0
Dangerous builds = 0
The dot product: 2.92628817100915e-07
Setting atom values ...
  1 settings made for x
  1 settings made for y
  1 settings made for z
Setting up cg style minimization ...
  Unit style    : metal
  Current step  : 5984
Per MPI rank memory allocation (min/avg/max) = 5.441 | 5.816 | 6.074 Mbytes
Step PotEng KinEng TotEng v_fx v_fy v_fz 
    5984   -1152448.6            0   -1152448.6  0.086024342  0.023872359 0.0013818082 
    6000   -1152448.6            0   -1152448.6 -0.0017360471 -0.00019801058 -5.4461672e-05 
    6173   -1152448.6            0   -1152448.6 -2.4601532e-06 7.5164842e-08 -1.1049755e-07 
Loop time of 2.22297 on 104 procs for 189 steps with 288751 atoms

99.9% CPU use with 104 MPI tasks x 1 OpenMP threads

Minimization stats:
  Stopping criterion = energy tolerance
  Energy initial, next-to-last, final = 
      -1152448.5750368  -1152448.57666852  -1152448.57666852
  Force two-norm initial, final = 0.20364519 5.7487088e-05
  Force max component initial, final = 0.086607333 2.7919297e-06
  Final line search alpha, max atom move = 1.0000000 2.7919297e-06
  Iterations, force evaluations = 189 378

MPI task timing breakdown:
Section |  min time  |  avg time  |  max time  |%varavg| %total
---------------------------------------------------------------
Pair    | 0.57151    | 1.5979     | 2.0901     |  34.2 | 71.88
Neigh   | 0          | 0          | 0          |   0.0 |  0.00
Comm    | 0.032141   | 0.36304    | 1.096      |  50.1 | 16.33
Output  | 0.00011605 | 0.00011861 | 0.00018893 |   0.0 |  0.01
Modify  | 2.2669e-05 | 0.0031183  | 0.0066729  |   2.6 |  0.14
Other   |            | 0.2588     |            |       | 11.64

Nlocal:        2776.45 ave        3960 max           0 min
Histogram: 8 4 4 0 4 12 8 2 28 34
Nghost:        3879.11 ave        5424 max         232 min
Histogram: 8 0 8 0 16 0 8 8 16 40
Neighs:        79213.4 ave      115418 max           0 min
Histogram: 8 4 4 0 10 6 8 8 24 32

Total # of neighbors = 8238189
Ave neighs/atom = 28.530426
Neighbor list builds = 0
Dangerous builds = 0
The dot product: -1.99678241641987e-08
Setting atom values ...
  1 settings made for x
  1 settings made for y
  1 settings made for z
Setting up cg style minimization ...
  Unit style    : metal
  Current step  : 6173
Per MPI rank memory allocation (min/avg/max) = 5.441 | 5.816 | 6.074 Mbytes
Step PotEng KinEng TotEng v_fx v_fy v_fz 
    6173   -1152448.5            0   -1152448.5  0.081851401  0.032488057 -0.00068526627 
    6445   -1152448.6            0   -1152448.6 6.4881965e-05 1.3054188e-05 6.7680284e-07 
Loop time of 3.18453 on 104 procs for 272 steps with 288751 atoms

99.9% CPU use with 104 MPI tasks x 1 OpenMP threads

Minimization stats:
  Stopping criterion = energy tolerance
  Energy initial, next-to-last, final = 
     -1152448.54278576  -1152448.61697578  -1152448.61697578
  Force two-norm initial, final = 0.2019634 0.00022872433
  Force max component initial, final = 0.088453187 6.4881965e-05
  Final line search alpha, max atom move = 1.0000000 6.4881965e-05
  Iterations, force evaluations = 272 544

MPI task timing breakdown:
Section |  min time  |  avg time  |  max time  |%varavg| %total
---------------------------------------------------------------
Pair    | 0.82874    | 2.2828     | 2.993      |  40.5 | 71.68
Neigh   | 2.0744e-05 | 0.0059074  | 0.0085526  |   3.2 |  0.19
Comm    | 0.048221   | 0.51649    | 1.5416     |  59.9 | 16.22
Output  | 0          | 0          | 0          |   0.0 |  0.00
Modify  | 3.2104e-05 | 0.0044839  | 0.0095864  |   3.2 |  0.14
Other   |            | 0.3749     |            |       | 11.77

Nlocal:        2776.45 ave        3957 max           0 min
Histogram: 8 4 4 0 4 12 8 2 28 34
Nghost:        3879.09 ave        5424 max         232 min
Histogram: 8 0 8 0 16 0 8 8 16 40
Neighs:        79213.3 ave      115348 max           0 min
Histogram: 8 4 4 0 10 6 8 8 24 32

Total # of neighbors = 8238188
Ave neighs/atom = 28.530422
Neighbor list builds = 2
Dangerous builds = 0
The dot product: 6.71581653601303e-06
Setting atom values ...
  1 settings made for x
  1 settings made for y
  1 settings made for z
Setting up cg style minimization ...
  Unit style    : metal
  Current step  : 6445
Per MPI rank memory allocation (min/avg/max) = 5.441 | 5.816 | 6.074 Mbytes
Step PotEng KinEng TotEng v_fx v_fy v_fz 
    6445   -1152448.6            0   -1152448.6  0.077341319   0.14618466 -0.088033622 
    6692   -1152448.6            0   -1152448.6 -1.0565443e-05 -4.1146966e-06 2.7265018e-06 
Loop time of 2.87815 on 104 procs for 247 steps with 288751 atoms

99.9% CPU use with 104 MPI tasks x 1 OpenMP threads

Minimization stats:
  Stopping criterion = energy tolerance
  Energy initial, next-to-last, final = 
     -1152448.61022613  -1152448.61328728  -1152448.61328728
  Force two-norm initial, final = 0.23201625 3.0662413e-05
  Force max component initial, final = 0.14618466 1.0565443e-05
  Final line search alpha, max atom move = 1.0000000 1.0565443e-05
  Iterations, force evaluations = 247 494

MPI task timing breakdown:
Section |  min time  |  avg time  |  max time  |%varavg| %total
---------------------------------------------------------------
Pair    | 0.74568    | 2.0872     | 2.7168     |  38.9 | 72.52
Neigh   | 0          | 0          | 0          |   0.0 |  0.00
Comm    | 0.041189   | 0.4662     | 1.4135     |  58.1 | 16.20
Output  | 0          | 0          | 0          |   0.0 |  0.00
Modify  | 2.9403e-05 | 0.0040795  | 0.0088402  |   3.0 |  0.14
Other   |            | 0.3207     |            |       | 11.14

Nlocal:        2776.45 ave        3955 max           0 min
Histogram: 8 4 4 0 4 12 8 0 30 34
Nghost:        3879.12 ave        5424 max         232 min
Histogram: 8 0 8 0 16 0 8 8 16 40
Neighs:        79213.3 ave      115319 max           0 min
Histogram: 8 4 4 0 10 6 8 8 24 32

Total # of neighbors = 8238185
Ave neighs/atom = 28.530412
Neighbor list builds = 0
Dangerous builds = 0
The dot product: -1.81691621111059e-07
Setting atom values ...
  1 settings made for x
  1 settings made for y
  1 settings made for z
Setting up cg style minimization ...
  Unit style    : metal
  Current step  : 6692
Per MPI rank memory allocation (min/avg/max) = 5.441 | 5.816 | 6.074 Mbytes
Step PotEng KinEng TotEng v_fx v_fy v_fz 
    6692   -1152448.6            0   -1152448.6   0.06680573  0.034248291  -0.02424977 
    6964     -1152449            0     -1152449 -7.420394e-07 -4.2012017e-06 2.7115376e-06 
Loop time of 3.18035 on 104 procs for 272 steps with 288751 atoms

99.9% CPU use with 104 MPI tasks x 1 OpenMP threads

Minimization stats:
  Stopping criterion = energy tolerance
  Energy initial, next-to-last, final = 
     -1152448.60652727  -1152448.99294237  -1152448.99294237
  Force two-norm initial, final = 0.15864075 0.00019003195
  Force max component initial, final = 0.074386336 1.6852036e-05
  Final line search alpha, max atom move = 1.0000000 1.6852036e-05
  Iterations, force evaluations = 272 543

MPI task timing breakdown:
Section |  min time  |  avg time  |  max time  |%varavg| %total
---------------------------------------------------------------
Pair    | 0.85054    | 2.2872     | 2.966      |  40.1 | 71.92
Neigh   | 7.0632e-05 | 0.020678   | 0.029984   |   5.9 |  0.65
Comm    | 0.049381   | 0.51307    | 1.5552     |  60.4 | 16.13
Output  | 0          | 0          | 0          |   0.0 |  0.00
Modify  | 3.1992e-05 | 0.0044906  | 0.0096463  |   3.2 |  0.14
Other   |            | 0.3549     |            |       | 11.16

Nlocal:        2776.45 ave        3952 max           0 min
Histogram: 8 4 4 0 4 12 8 0 30 34
Nghost:        3879.09 ave        5424 max         232 min
Histogram: 8 0 8 0 16 0 8 8 16 40
Neighs:        79213.6 ave      115177 max           0 min
Histogram: 8 4 4 0 10 6 8 8 24 32

Total # of neighbors = 8238219
Ave neighs/atom = 28.530530
Neighbor list builds = 7
Dangerous builds = 0
The dot product: -2.10488587969157e-06
Setting atom values ...
  1 settings made for x
  1 settings made for y
  1 settings made for z
Setting up cg style minimization ...
  Unit style    : metal
  Current step  : 6964
Per MPI rank memory allocation (min/avg/max) = 5.441 | 5.816 | 6.074 Mbytes
Step PotEng KinEng TotEng v_fx v_fy v_fz 
    6964     -1152449            0     -1152449  -0.61414092 -0.060393042   0.76124551 
    7000   -1152449.2            0   -1152449.2 -0.0043602851 0.0068547366 -0.0055893704 
    7239   -1152449.2            0   -1152449.2 -1.5238431e-05 2.2584324e-05 -1.7463246e-05 
Loop time of 3.21642 on 104 procs for 275 steps with 288751 atoms

99.9% CPU use with 104 MPI tasks x 1 OpenMP threads

Minimization stats:
  Stopping criterion = energy tolerance
  Energy initial, next-to-last, final = 
     -1152449.01718694  -1152449.17356299  -1152449.17356299
  Force two-norm initial, final = 0.99196198 9.7349603e-05
  Force max component initial, final = 0.76124551 2.2584324e-05
  Final line search alpha, max atom move = 1.0000000 2.2584324e-05
  Iterations, force evaluations = 275 550

MPI task timing breakdown:
Section |  min time  |  avg time  |  max time  |%varavg| %total
---------------------------------------------------------------
Pair    | 0.84374    | 2.319      | 3.0108     |  40.7 | 72.10
Neigh   | 2.0078e-05 | 0.0059101  | 0.0084724  |   3.2 |  0.18
Comm    | 0.050834   | 0.52274    | 1.5845     |  60.7 | 16.25
Output  | 9.502e-05  | 0.00010205 | 0.00021066 |   0.0 |  0.00
Modify  | 3.2867e-05 | 0.0045387  | 0.0096662  |   3.2 |  0.14
Other   |            | 0.3642     |            |       | 11.32

Nlocal:        2776.45 ave        3938 max           0 min
Histogram: 8 4 4 0 4 12 8 0 28 36
Nghost:        3879.18 ave        5425 max         232 min
Histogram: 8 0 8 0 16 0 8 8 16 40
Neighs:        79213.5 ave      114697 max           0 min
Histogram: 8 4 4 0 8 8 8 8 22 34

Total # of neighbors = 8238203
Ave neighs/atom = 28.530474
Neighbor list builds = 2
Dangerous builds = 0
The dot product: -5.11289333946378e-08
Setting atom values ...
  1 settings made for x
  1 settings made for y
  1 settings made for z
Setting up cg style minimization ...
  Unit style    : metal
  Current step  : 7239
Per MPI rank memory allocation (min/avg/max) = 5.441 | 5.816 | 6.074 Mbytes
Step PotEng KinEng TotEng v_fx v_fy v_fz 
    7239   -1152449.2            0   -1152449.2    0.3791629  0.076131321  -0.23883236 
    7496   -1152449.2            0   -1152449.2 -3.379344e-06 -3.8196296e-06 5.4345677e-06 
Loop time of 2.99187 on 104 procs for 257 steps with 288751 atoms

99.9% CPU use with 104 MPI tasks x 1 OpenMP threads

Minimization stats:
  Stopping criterion = energy tolerance
  Energy initial, next-to-last, final = 
     -1152449.19791566  -1152449.22527863  -1152449.22527863
  Force two-norm initial, final = 0.48485703 4.0678600e-05
  Force max component initial, final = 0.3791629 6.2700598e-06
  Final line search alpha, max atom move = 1.0000000 6.2700598e-06
  Iterations, force evaluations = 257 514

MPI task timing breakdown:
Section |  min time  |  avg time  |  max time  |%varavg| %total
---------------------------------------------------------------
Pair    | 0.78109    | 2.161      | 2.8108     |  39.6 | 72.23
Neigh   | 1.0111e-05 | 0.0029548  | 0.004257   |   2.2 |  0.10
Comm    | 0.044545   | 0.48449    | 1.469      |  58.8 | 16.19
Output  | 0          | 0          | 0          |   0.0 |  0.00
Modify  | 3.0512e-05 | 0.0042387  | 0.0091016  |   3.1 |  0.14
Other   |            | 0.3392     |            |       | 11.34

Nlocal:        2776.45 ave        3934 max           0 min
Histogram: 8 4 4 0 4 12 8 0 28 36
Nghost:        3879.17 ave        5426 max         232 min
Histogram: 8 0 8 0 16 0 8 8 16 40
Neighs:        79213.4 ave      114592 max           0 min
Histogram: 8 4 4 0 8 8 8 8 20 36

Total # of neighbors = 8238197
Ave neighs/atom = 28.530454
Neighbor list builds = 1
Dangerous builds = 0
The dot product: -7.31776039311552e-07
Setting atom values ...
  1 settings made for x
  1 settings made for y
  1 settings made for z
Setting up cg style minimization ...
  Unit style    : metal
  Current step  : 7496
Per MPI rank memory allocation (min/avg/max) = 5.441 | 5.816 | 6.074 Mbytes
Step PotEng KinEng TotEng v_fx v_fy v_fz 
    7496   -1152449.2            0   -1152449.2 -0.090363842 0.0011731474  0.054590589 
    7700   -1152449.3            0   -1152449.3 7.5301108e-06 -4.6489272e-05 4.9417049e-05 
Loop time of 2.37159 on 104 procs for 204 steps with 288751 atoms

99.9% CPU use with 104 MPI tasks x 1 OpenMP threads

Minimization stats:
  Stopping criterion = energy tolerance
  Energy initial, next-to-last, final = 
     -1152449.24704012  -1152449.25183153  -1152449.25183153
  Force two-norm initial, final = 0.19053126 0.00019248768
  Force max component initial, final = 0.090363842 5.3355591e-05
  Final line search alpha, max atom move = 1.0000000 5.3355591e-05
  Iterations, force evaluations = 204 408

MPI task timing breakdown:
Section |  min time  |  avg time  |  max time  |%varavg| %total
---------------------------------------------------------------
Pair    | 0.62002    | 1.7229     | 2.2377     |  35.3 | 72.65
Neigh   | 0          | 0          | 0          |   0.0 |  0.00
Comm    | 0.036204   | 0.38995    | 1.1911     |  52.6 | 16.44
Output  | 0          | 0          | 0          |   0.0 |  0.00
Modify  | 2.4508e-05 | 0.0033621  | 0.0071539  |   2.7 |  0.14
Other   |            | 0.2554     |            |       | 10.77

Nlocal:        2776.45 ave        3936 max           0 min
Histogram: 8 4 4 0 4 12 8 0 28 36
Nghost:        3879.18 ave        5426 max         232 min
Histogram: 8 0 8 0 16 0 8 8 16 40
Neighs:        79213.5 ave      114658 max           0 min
Histogram: 8 4 4 0 8 8 8 8 20 36

Total # of neighbors = 8238205
Ave neighs/atom = 28.530481
Neighbor list builds = 0
Dangerous builds = 0
The dot product: 8.0159754652159e-07
Setting atom values ...
  1 settings made for x
  1 settings made for y
  1 settings made for z
Setting up cg style minimization ...
  Unit style    : metal
  Current step  : 7700
Per MPI rank memory allocation (min/avg/max) = 5.441 | 5.816 | 6.074 Mbytes
Step PotEng KinEng TotEng v_fx v_fy v_fz 
    7700   -1152449.3            0   -1152449.3  0.067600966 0.0062255287 -0.043723926 
    7849   -1152449.3            0   -1152449.3 1.9903792e-05 -7.5112845e-05 7.3790108e-05 
[...]

Nlocal:        2776.45 ave        3960 max           0 min
Histogram: 8 4 4 0 4 12 8 4 26 34
Nghost:        3879.09 ave        5424 max         232 min
Histogram: 8 0 8 0 16 0 8 8 16 40
Neighs:        79213.4 ave      115440 max           0 min
Histogram: 8 4 4 0 10 6 8 8 24 32

Total # of neighbors = 8238198
Ave neighs/atom = 28.530457
Neighbor list builds = 1
Dangerous builds = 0
The dot product: 3.29571711008758e-06
Setting atom values ...
  1 settings made for x
  1 settings made for y
  1 settings made for z
Setting up cg style minimization ...
  Unit style    : metal
  Current step  : 13775
Per MPI rank memory allocation (min/avg/max) = 5.441 | 5.816 | 6.074 Mbytes
Step PotEng KinEng TotEng v_fx v_fy v_fz 
   13775   -1152449.3            0   -1152449.3  0.039589734 -0.0072479262 -0.019435609 
   13928   -1152449.3            0   -1152449.3 4.0702196e-05 -4.6255119e-05 2.3361514e-05 
Loop time of 1.78926 on 104 procs for 153 steps with 288751 atoms

99.9% CPU use with 104 MPI tasks x 1 OpenMP threads

Minimization stats:
  Stopping criterion = energy tolerance
  Energy initial, next-to-last, final = 
     -1152449.34877376  -1152449.34986105  -1152449.34986105
  Force two-norm initial, final = 0.14132812 0.00024901698
  Force max component initial, final = 0.069215973 5.4435412e-05
  Final line search alpha, max atom move = 1.0000000 5.4435412e-05
  Iterations, force evaluations = 153 306

MPI task timing breakdown:
Section |  min time  |  avg time  |  max time  |%varavg| %total
---------------------------------------------------------------
Pair    | 0.46256    | 1.286      | 1.6802     |  30.6 | 71.87
Neigh   | 0          | 0          | 0          |   0.0 |  0.00
Comm    | 0.028748   | 0.29104    | 0.86994    |  44.9 | 16.27
Output  | 0          | 0          | 0          |   0.0 |  0.00
Modify  | 1.8565e-05 | 0.0025229  | 0.0054167  |   2.4 |  0.14
Other   |            | 0.2097     |            |       | 11.72

Nlocal:        2776.45 ave        3954 max           0 min
Histogram: 8 4 4 0 4 12 8 0 30 34
Nghost:        3879.03 ave        5424 max         232 min
Histogram: 8 0 8 0 16 0 8 8 16 40
Neighs:        79213.4 ave      115233 max           0 min
Histogram: 8 4 4 0 10 6 8 8 24 32

Total # of neighbors = 8238194
Ave neighs/atom = 28.530443
Neighbor list builds = 0
Dangerous builds = 0
The dot product: 8.23081447621856e-08
Setting atom values ...
  1 settings made for x
  1 settings made for y
  1 settings made for z
Setting up cg style minimization ...
  Unit style    : metal
  Current step  : 13928
Per MPI rank memory allocation (min/avg/max) = 5.441 | 5.816 | 6.074 Mbytes
Step PotEng KinEng TotEng v_fx v_fy v_fz 
   13928   -1152449.4            0   -1152449.4  0.042572189 -0.0097694288 -0.018793111 
   14000   -1152449.4            0   -1152449.4 -0.0001151173 0.00021961177 -0.00016507529 
   14159   -1152449.4            0   -1152449.4 9.0321462e-07 -4.0886031e-06 3.9386278e-06 
Loop time of 2.69688 on 104 procs for 231 steps with 288751 atoms

99.9% CPU use with 104 MPI tasks x 1 OpenMP threads

Minimization stats:
  Stopping criterion = energy tolerance
  Energy initial, next-to-last, final = 
     -1152449.35025644  -1152449.35134174  -1152449.35134174
  Force two-norm initial, final = 0.14209713 1.8188234e-05
  Force max component initial, final = 0.067626492 4.0886031e-06
  Final line search alpha, max atom move = 1.0000000 4.0886031e-06
  Iterations, force evaluations = 231 462

MPI task timing breakdown:
Section |  min time  |  avg time  |  max time  |%varavg| %total
---------------------------------------------------------------
Pair    | 0.69626    | 1.9441     | 2.5447     |  37.8 | 72.09
Neigh   | 0          | 0          | 0          |   0.0 |  0.00
Comm    | 0.04265    | 0.4406     | 1.315      |  55.0 | 16.34
Output  | 0.00010359 | 0.00010675 | 0.00025901 |   0.0 |  0.00
Modify  | 2.674e-05  | 0.0037998  | 0.0081776  |   2.9 |  0.14
Other   |            | 0.3083     |            |       | 11.43

Nlocal:        2776.45 ave        3955 max           0 min
Histogram: 8 4 4 0 4 12 8 0 30 34
Nghost:        3879.03 ave        5425 max         232 min
Histogram: 8 0 8 0 16 0 8 8 16 40
Neighs:        79213.4 ave      115268 max           0 min
Histogram: 8 4 4 0 10 6 8 8 24 32

Total # of neighbors = 8238191
Ave neighs/atom = 28.530433
Neighbor list builds = 0
Dangerous builds = 0
The dot product: 3.52901211609756e-09
Setting atom values ...
  1 settings made for x
  1 settings made for y
  1 settings made for z
Setting up cg style minimization ...
  Unit style    : metal
  Current step  : 14159
Per MPI rank memory allocation (min/avg/max) = 5.441 | 5.816 | 6.074 Mbytes
Step PotEng KinEng TotEng v_fx v_fy v_fz 
   14159   -1152449.4            0   -1152449.4  0.042012398 -0.010272941 -0.017963688 
   14419   -1152449.4            0   -1152449.4 4.815885e-07 6.6600216e-07 -1.0816368e-06 
Loop time of 3.02529 on 104 procs for 260 steps with 288751 atoms

99.9% CPU use with 104 MPI tasks x 1 OpenMP threads

Minimization stats:
  Stopping criterion = energy tolerance
  Energy initial, next-to-last, final = 
     -1152449.35036663  -1152449.35144325  -1152449.35144325
  Force two-norm initial, final = 0.14154321 3.8933065e-06
  Force max component initial, final = 0.066032473 1.0816368e-06
  Final line search alpha, max atom move = 1.0000000 1.0816368e-06
  Iterations, force evaluations = 260 520

MPI task timing breakdown:
Section |  min time  |  avg time  |  max time  |%varavg| %total
---------------------------------------------------------------
Pair    | 0.78613    | 2.182      | 2.8528     |  39.8 | 72.12
Neigh   | 0          | 0          | 0          |   0.0 |  0.00
Comm    | 0.048194   | 0.48928    | 1.471      |  58.7 | 16.17
Output  | 0          | 0          | 0          |   0.0 |  0.00
Modify  | 3.0749e-05 | 0.0042716  | 0.0091775  |   3.1 |  0.14
Other   |            | 0.3498     |            |       | 11.56

Nlocal:        2776.45 ave        3956 max           0 min
Histogram: 8 4 4 0 4 12 8 0 30 34
Nghost:        3879.03 ave        5424 max         232 min
Histogram: 8 0 8 0 16 0 8 8 16 40
Neighs:        79213.4 ave      115309 max           0 min
Histogram: 8 4 4 0 10 6 8 8 24 32

Total # of neighbors = 8238189
Ave neighs/atom = 28.530426
Neighbor list builds = 0
Dangerous builds = 0
The dot product: 1.3306945734204e-09
Setting atom values ...
  1 settings made for x
  1 settings made for y
  1 settings made for z
Setting up cg style minimization ...
  Unit style    : metal
  Current step  : 14419
Per MPI rank memory allocation (min/avg/max) = 5.441 | 5.816 | 6.074 Mbytes
Step PotEng KinEng TotEng v_fx v_fy v_fz 
   14419   -1152449.3            0   -1152449.3  0.042208872 -0.011629924 -0.016703062 
   14590   -1152449.4            0   -1152449.4 -1.0039536e-05 -1.2505777e-05 2.1034402e-05 
Loop time of 2.02552 on 104 procs for 171 steps with 288751 atoms

99.9% CPU use with 104 MPI tasks x 1 OpenMP threads

Minimization stats:
  Stopping criterion = energy tolerance
  Energy initial, next-to-last, final = 
     -1152449.34904891  -1152449.35011429  -1152449.35011429
  Force two-norm initial, final = 0.14089772 0.00019207165
  Force max component initial, final = 0.06443843 3.5739440e-05
  Final line search alpha, max atom move = 1.0000000 3.5739440e-05
  Iterations, force evaluations = 171 342

MPI task timing breakdown:
Section |  min time  |  avg time  |  max time  |%varavg| %total
---------------------------------------------------------------
Pair    | 0.52376    | 1.4448     | 1.88       |  32.4 | 71.33
Neigh   | 0          | 0          | 0          |   0.0 |  0.00
Comm    | 0.032095   | 0.32805    | 0.9853     |  47.4 | 16.20
Output  | 0          | 0          | 0          |   0.0 |  0.00
Modify  | 1.9994e-05 | 0.0028256  | 0.0061399  |   2.5 |  0.14
Other   |            | 0.2499     |            |       | 12.34

Nlocal:        2776.45 ave        3957 max           0 min
Histogram: 8 4 4 0 4 12 8 2 28 34
Nghost:        3879.03 ave        5424 max         232 min
Histogram: 8 0 8 0 16 0 8 8 16 40
Neighs:        79213.4 ave      115370 max           0 min
Histogram: 8 4 4 0 10 6 8 8 24 32

Total # of neighbors = 8238191
Ave neighs/atom = 28.530433
Neighbor list builds = 0
Dangerous builds = 0
The dot product: -2.64492116316843e-08
Setting atom values ...
  1 settings made for x
  1 settings made for y
  1 settings made for z
Setting up cg style minimization ...
  Unit style    : metal
  Current step  : 14590
Per MPI rank memory allocation (min/avg/max) = 5.441 | 5.816 | 6.074 Mbytes
Step PotEng KinEng TotEng v_fx v_fy v_fz 
   14590   -1152449.3            0   -1152449.3  0.042495367 -0.013128375 -0.015349354 
   14767   -1152449.3            0   -1152449.3 -1.6034242e-05 -7.917614e-06 2.016766e-05 
Loop time of 2.07691 on 104 procs for 177 steps with 288751 atoms

99.9% CPU use with 104 MPI tasks x 1 OpenMP threads

Minimization stats:
  Stopping criterion = energy tolerance
  Energy initial, next-to-last, final = 
     -1152449.34628995  -1152449.34734093  -1152449.34734093
  Force two-norm initial, final = 0.14009667 0.0001554172
  Force max component initial, final = 0.062814948 3.6183463e-05
  Final line search alpha, max atom move = 1.0000000 3.6183463e-05
  Iterations, force evaluations = 177 354

MPI task timing breakdown:
Section |  min time  |  avg time  |  max time  |%varavg| %total
---------------------------------------------------------------
Pair    | 0.53497    | 1.4886     | 1.9532     |  33.0 | 71.68
Neigh   | 0          | 0          | 0          |   0.0 |  0.00
Comm    | 0.031825   | 0.33872    | 1.0019     |  47.7 | 16.31
Output  | 0          | 0          | 0          |   0.0 |  0.00
Modify  | 2.1147e-05 | 0.0029115  | 0.0062513  |   2.6 |  0.14
Other   |            | 0.2466     |            |       | 11.88

Nlocal:        2776.45 ave        3957 max           0 min
Histogram: 8 4 4 0 4 12 8 2 28 34
Nghost:        3879.03 ave        5424 max         232 min
Histogram: 8 0 8 0 16 0 8 8 16 40
Neighs:        79213.4 ave      115370 max           0 min
Histogram: 8 4 4 0 10 6 8 8 24 32

Total # of neighbors = 8238189
Ave neighs/atom = 28.530426
Neighbor list builds = 0
Dangerous builds = 0
The dot product: -4.4251637823424e-08
Setting atom values ...
  1 settings made for x
  1 settings made for y
  1 settings made for z
Setting up cg style minimization ...
  Unit style    : metal
  Current step  : 14767
Per MPI rank memory allocation (min/avg/max) = 5.441 | 5.816 | 6.074 Mbytes
Step PotEng KinEng TotEng v_fx v_fy v_fz 
   14767   -1152449.3            0   -1152449.3  0.042529014 -0.014301396 -0.014183161 
   14944   -1152449.3            0   -1152449.3 7.4252854e-06 -2.8057516e-05 2.6062321e-05 
Loop time of 2.06517 on 104 procs for 177 steps with 288751 atoms

99.9% CPU use with 104 MPI tasks x 1 OpenMP threads

Minimization stats:
  Stopping criterion = energy tolerance
  Energy initial, next-to-last, final = 
     -1152449.34208632  -1152449.34312006  -1152449.34312006
  Force two-norm initial, final = 0.13918244 0.0001521705
  Force max component initial, final = 0.061147177 2.8057516e-05
  Final line search alpha, max atom move = 1.0000000 2.8057516e-05
  Iterations, force evaluations = 177 354

MPI task timing breakdown:
Section |  min time  |  avg time  |  max time  |%varavg| %total
---------------------------------------------------------------
Pair    | 0.53543    | 1.4915     | 1.9478     |  33.0 | 72.22
Neigh   | 0          | 0          | 0          |   0.0 |  0.00
Comm    | 0.031629   | 0.33718    | 1.0095     |  48.2 | 16.33
Output  | 0          | 0          | 0          |   0.0 |  0.00
Modify  | 2.0749e-05 | 0.0029087  | 0.0062641  |   2.6 |  0.14
Other   |            | 0.2336     |            |       | 11.31

Nlocal:        2776.45 ave        3957 max           0 min
Histogram: 8 4 4 0 4 12 8 2 28 34
Nghost:        3879.03 ave        5424 max         232 min
Histogram: 8 0 8 0 16 0 8 8 16 40
Neighs:        79213.3 ave      115369 max           0 min
Histogram: 8 4 4 0 10 6 8 8 24 32

Total # of neighbors = 8238187
Ave neighs/atom = 28.530419
Neighbor list builds = 0
Dangerous builds = 0
The dot product: 3.7425027717631e-08
Setting atom values ...
  1 settings made for x
  1 settings made for y
  1 settings made for z
Setting up cg style minimization ...
  Unit style    : metal
  Current step  : 14944
Per MPI rank memory allocation (min/avg/max) = 5.441 | 5.816 | 6.074 Mbytes
Step PotEng KinEng TotEng v_fx v_fy v_fz 
   14944   -1152449.3            0   -1152449.3  0.042148588 -0.014942187 -0.013317338 
   15000   -1152449.3            0   -1152449.3 2.157763e-05 0.00012487663 -0.00015472001 
   15177   -1152449.3            0   -1152449.3 -1.0954572e-06 -3.9817901e-06 5.2233049e-06 
Loop time of 2.771 on 104 procs for 233 steps with 288751 atoms

99.9% CPU use with 104 MPI tasks x 1 OpenMP threads

Minimization stats:
  Stopping criterion = energy tolerance
  Energy initial, next-to-last, final = 
     -1152449.33643139  -1152449.33744825  -1152449.33744825
  Force two-norm initial, final = 0.13816186 1.7115438e-05
  Force max component initial, final = 0.059440482 5.2233049e-06
  Final line search alpha, max atom move = 1.0000000 5.2233049e-06
  Iterations, force evaluations = 233 466

MPI task timing breakdown:
Section |  min time  |  avg time  |  max time  |%varavg| %total
---------------------------------------------------------------
Pair    | 0.70096    | 1.9648     | 2.5739     |  37.9 | 70.91
Neigh   | 0          | 0          | 0          |   0.0 |  0.00
Comm    | 0.041509   | 0.44923    | 1.3272     |  54.6 | 16.21
Output  | 0.00010709 | 0.00011265 | 0.00024215 |   0.0 |  0.00
Modify  | 2.9015e-05 | 0.003836   | 0.0082843  |   2.9 |  0.14
Other   |            | 0.353      |            |       | 12.74

Nlocal:        2776.45 ave        3958 max           0 min
Histogram: 8 4 4 0 4 12 8 2 28 34
Nghost:        3879.03 ave        5424 max         232 min
Histogram: 8 0 8 0 16 0 8 8 16 40
Neighs:        79213.4 ave      115388 max           0 min
Histogram: 8 4 4 0 10 6 8 8 24 32

Total # of neighbors = 8238190
Ave neighs/atom = 28.530429
Neighbor list builds = 0
Dangerous builds = 0
The dot product: -8.54308545225918e-10
Setting atom values ...
  1 settings made for x
  1 settings made for y
  1 settings made for z
Setting up cg style minimization ...
  Unit style    : metal
  Current step  : 15177
Per MPI rank memory allocation (min/avg/max) = 5.441 | 5.816 | 6.074 Mbytes
Step PotEng KinEng TotEng v_fx v_fy v_fz 
   15177   -1152449.3            0   -1152449.3  0.041204092 -0.014870713 -0.012839744 
   15352   -1152449.3            0   -1152449.3 2.8391737e-05 -3.3124159e-05 1.6672548e-05 
Loop time of 2.05101 on 104 procs for 175 steps with 288751 atoms

99.9% CPU use with 104 MPI tasks x 1 OpenMP threads

Minimization stats:
  Stopping criterion = energy tolerance
  Energy initial, next-to-last, final = 
     -1152449.32931714  -1152449.33031749  -1152449.33031749
  Force two-norm initial, final = 0.13699339 0.00016282195
  Force max component initial, final = 0.057710859 4.0754983e-05
  Final line search alpha, max atom move = 1.0000000 4.0754983e-05
  Iterations, force evaluations = 175 350

MPI task timing breakdown:
Section |  min time  |  avg time  |  max time  |%varavg| %total
---------------------------------------------------------------
Pair    | 0.52834    | 1.4746     | 1.9329     |  32.9 | 71.90
Neigh   | 0          | 0          | 0          |   0.0 |  0.00
Comm    | 0.031964   | 0.33569    | 1.0009     |  47.6 | 16.37
Output  | 0          | 0          | 0          |   0.0 |  0.00
Modify  | 1.9865e-05 | 0.002879   | 0.0061592  |   2.5 |  0.14
Other   |            | 0.2379     |            |       | 11.60

Nlocal:        2776.45 ave        3958 max           0 min
Histogram: 8 4 4 0 4 12 8 2 28 34
Nghost:        3879.03 ave        5424 max         232 min
Histogram: 8 0 8 0 16 0 8 8 16 40
Neighs:        79213.4 ave      115388 max           0 min
Histogram: 8 4 4 0 10 6 8 8 24 32

Total # of neighbors = 8238191
Ave neighs/atom = 28.530433
Neighbor list builds = 0
Dangerous builds = 0
The dot product: 9.96046688819682e-08
Setting atom values ...
  1 settings made for x
  1 settings made for y
  1 settings made for z
Setting up cg style minimization ...
  Unit style    : metal
  Current step  : 15352
Per MPI rank memory allocation (min/avg/max) = 5.441 | 5.816 | 6.074 Mbytes
Step PotEng KinEng TotEng v_fx v_fy v_fz 
   15352   -1152449.3            0   -1152449.3  0.039716117 -0.014083762  -0.01276158 
   15532   -1152449.3            0   -1152449.3 4.3015759e-06 2.639599e-05 -3.25155e-05 
Loop time of 2.09726 on 104 procs for 180 steps with 288751 atoms

99.9% CPU use with 104 MPI tasks x 1 OpenMP threads

Minimization stats:
  Stopping criterion = energy tolerance
  Energy initial, next-to-last, final = 
     -1152449.32072889  -1152449.32171395  -1152449.32171395
  Force two-norm initial, final = 0.13568836 0.00013458148
  Force max component initial, final = 0.055957532 3.5554887e-05
  Final line search alpha, max atom move = 1.0000000 3.5554887e-05
  Iterations, force evaluations = 180 360

MPI task timing breakdown:
Section |  min time  |  avg time  |  max time  |%varavg| %total
---------------------------------------------------------------
Pair    | 0.54459    | 1.5131     | 1.9771     |  33.2 | 72.15
Neigh   | 0          | 0          | 0          |   0.0 |  0.00
Comm    | 0.032183   | 0.3406     | 1.0255     |  49.0 | 16.24
Output  | 0          | 0          | 0          |   0.0 |  0.00
Modify  | 2.2044e-05 | 0.0029643  | 0.0063678  |   2.6 |  0.14
Other   |            | 0.2406     |            |       | 11.47

Nlocal:        2776.45 ave        3959 max           0 min
Histogram: 8 4 4 0 4 12 8 2 28 34
Nghost:        3879.11 ave        5424 max         232 min
Histogram: 8 0 8 0 16 0 8 8 16 40
Neighs:        79213.4 ave      115410 max           0 min
Histogram: 8 4 4 0 10 6 8 8 24 32

Total # of neighbors = 8238190
Ave neighs/atom = 28.530429
Neighbor list builds = 0
Dangerous builds = 0
The dot product: 1.23519002168918e-11
Setting up cg style minimization ...
  Unit style    : metal
  Current step  : 15532
Per MPI rank memory allocation (min/avg/max) = 5.441 | 5.816 | 6.074 Mbytes
Step PotEng KinEng TotEng v_fx v_fy v_fz 
   15532   -1152449.3            0   -1152449.3   -0.2017332  -0.31382469  -0.28150441 
   15767   -1152449.4            0   -1152449.4 -1.0987855e-05 5.3965463e-06 1.6198619e-05 
Loop time of 2.75841 on 104 procs for 235 steps with 288751 atoms

99.9% CPU use with 104 MPI tasks x 1 OpenMP threads

Minimization stats:
  Stopping criterion = energy tolerance
  Energy initial, next-to-last, final = 
     -1152449.32171395  -1152449.35157314  -1152449.35157314
  Force two-norm initial, final = 0.46736171 0.00011474079
  Force max component initial, final = 0.31382469 1.6198619e-05
  Final line search alpha, max atom move = 1.0000000 1.6198619e-05
  Iterations, force evaluations = 235 470

MPI task timing breakdown:
Section |  min time  |  avg time  |  max time  |%varavg| %total
---------------------------------------------------------------
Pair    | 0.71557    | 1.9809     | 2.5966     |  38.0 | 71.81
Neigh   | 1.0165e-05 | 0.0029483  | 0.0042792  |   2.2 |  0.11
Comm    | 0.044627   | 0.44985    | 1.331      |  55.3 | 16.31
Output  | 0          | 0          | 0          |   0.0 |  0.00
Modify  | 2.557e-05  | 0.0025147  | 0.0064767  |   3.1 |  0.09
Other   |            | 0.3222     |            |       | 11.68

Nlocal:        2776.45 ave        3959 max           0 min
Histogram: 8 4 4 0 4 12 8 2 28 34
Nghost:        3879.12 ave        5424 max         232 min
Histogram: 8 0 8 0 16 0 8 8 16 40
Neighs:        79213.5 ave      115410 max           0 min
Histogram: 8 4 4 0 10 6 8 8 24 32

Total # of neighbors = 8238199
Ave neighs/atom = 28.530461
Neighbor list builds = 1
Dangerous builds = 0
