LAMMPS (29 Oct 2020)
OMP_NUM_THREADS environment is not set. Defaulting to 1 thread. (../comm.cpp:94)
  using 1 OpenMP thread(s) per MPI task
OMP_NUM_THREADS environment is not set. Defaulting to 1 thread. (../comm.cpp:94)
  using 1 OpenMP thread(s) per MPI task
Reading data file ...
  orthogonal box = (-122.39241 -121.13707 -37.090501) to (122.39241 121.13707 37.090501)
  13 by 4 by 1 MPI processor grid
  reading atoms ...
  288751 atoms
  read_data CPU = 0.437 seconds
199981 atoms in group inner
88770 atoms in group outer
1 atoms in group carbon
Neighbor list info ...
  update every 1 steps, delay 0 steps, check yes
  max neighbors/atom: 2000, page size: 100000
  master list distance cutoff = 5.6
  ghost atom cutoff = 5.6
  binsize = 2.8, bins = 88 87 27
  1 neighbor lists, perpetual/occasional/extra = 1 0 0
  (1) pair eam/alloy, perpetual
      attributes: half, newton on
      pair build: half/bin/atomonly/newton
      stencil: half/bin/3d/newton
      bin: standard
Setting up cg style minimization ...
  Unit style    : metal
  Current step  : 0
Per MPI rank memory allocation (min/avg/max) = 5.465 | 6.344 | 6.728 Mbytes
Step v_fx v_fy v_fz PotEng KinEng TotEng 
       0    0.3224723  -0.48422844  -0.49269377   -1152447.8            0   -1152447.8 
     148 3.2995078e-05 -1.9668413e-06 8.6222349e-06   -1152449.5            0   -1152449.5 
Loop time of 3.33333 on 52 procs for 148 steps with 288751 atoms

99.9% CPU use with 52 MPI tasks x 1 OpenMP threads

Minimization stats:
  Stopping criterion = energy tolerance
  Energy initial, next-to-last, final = 
     -1152447.84698335  -1152449.45035281  -1152449.45035281
  Force two-norm initial, final = 9.7882989 0.00020892393
  Force max component initial, final = 5.2457620 3.2995078e-05
  Final line search alpha, max atom move = 1.0000000 3.2995078e-05
  Iterations, force evaluations = 148 295

MPI task timing breakdown:
Section |  min time  |  avg time  |  max time  |%varavg| %total
---------------------------------------------------------------
Pair    | 0.85778    | 2.3743     | 3.1225     |  42.2 | 71.23
Neigh   | 4.7858e-05 | 0.012861   | 0.020099   |   4.9 |  0.39
Comm    | 0.051586   | 0.53913    | 1.6786     |  64.5 | 16.17
Output  | 0          | 0          | 0          |   0.0 |  0.00
Modify  | 4.5257e-05 | 0.0032909  | 0.0083114  |   3.5 |  0.10
Other   |            | 0.4038     |            |       | 12.11

Nlocal:        5552.90 ave        7909 max           0 min
Histogram: 4 2 2 0 2 6 4 0 15 17
Nghost:        6213.54 ave        8769 max         412 min
Histogram: 4 0 4 0 8 0 4 5 7 20
Neighs:       158427.0 ave      230538 max           0 min
Histogram: 4 2 2 0 5 3 4 4 12 16

Total # of neighbors = 8238222
Ave neighs/atom = 28.530540
Neighbor list builds = 2
Dangerous builds = 0
Setting atom values ...
  1 settings made for x
  1 settings made for y
  1 settings made for z
Setting up cg style minimization ...
  Unit style    : metal
  Current step  : 148
Per MPI rank memory allocation (min/avg/max) = 5.465 | 6.344 | 6.728 Mbytes
Step PotEng KinEng TotEng v_fx v_fy v_fz 
     148   -1152449.4            0   -1152449.4 0.00027113873 -0.0096987924 -0.008723543 
     294   -1152449.5            0   -1152449.5 1.3091928e-05 -8.2502236e-06 -2.7659931e-05 
Loop time of 3.24202 on 52 procs for 146 steps with 288751 atoms

99.9% CPU use with 52 MPI tasks x 1 OpenMP threads

Minimization stats:
  Stopping criterion = energy tolerance
  Energy initial, next-to-last, final = 
     -1152449.44959044  -1152449.45008247  -1152449.45008247
  Force two-norm initial, final = 0.10176901 0.00021214657
  Force max component initial, final = 0.051576651 2.7659931e-05
  Final line search alpha, max atom move = 1.0000000 2.7659931e-05
  Iterations, force evaluations = 146 292

MPI task timing breakdown:
Section |  min time  |  avg time  |  max time  |%varavg| %total
---------------------------------------------------------------
Pair    | 0.81768    | 2.3261     | 3.0494     |  42.3 | 71.75
Neigh   | 0          | 0          | 0          |   0.0 |  0.00
Comm    | 0.046178   | 0.52319    | 1.6519     |  64.8 | 16.14
Output  | 0          | 0          | 0          |   0.0 |  0.00
Modify  | 5.2363e-05 | 0.0049162  | 0.010378   |   3.2 |  0.15
Other   |            | 0.3878     |            |       | 11.96

Nlocal:        5552.90 ave        7913 max           0 min
Histogram: 4 2 2 0 2 6 4 1 14 17
Nghost:        6213.54 ave        8769 max         412 min
Histogram: 4 0 4 0 8 0 4 5 7 20
Neighs:       158427.0 ave      230665 max           0 min
Histogram: 4 2 2 0 5 3 4 4 12 16

Total # of neighbors = 8238197
Ave neighs/atom = 28.530454
Neighbor list builds = 0
Dangerous builds = 0
Setting atom values ...
  1 settings made for x
  1 settings made for y
  1 settings made for z
Setting up cg style minimization ...
  Unit style    : metal
  Current step  : 294
Per MPI rank memory allocation (min/avg/max) = 5.465 | 6.344 | 6.728 Mbytes
Step PotEng KinEng TotEng v_fx v_fy v_fz 
     294   -1152449.4            0   -1152449.4 -0.00051112188 -0.020430414 -0.018585719 
     469   -1152449.4            0   -1152449.4 3.0304247e-05 -7.3841499e-07 -5.6213596e-05 
Loop time of 3.9226 on 52 procs for 175 steps with 288751 atoms

99.9% CPU use with 52 MPI tasks x 1 OpenMP threads

Minimization stats:
  Stopping criterion = linesearch alpha is zero
  Energy initial, next-to-last, final = 
     -1152449.44665126  -1152449.44825768  -1152449.44825768
  Force two-norm initial, final = 0.18518195 0.00021851382
  Force max component initial, final = 0.093865315 5.6213596e-05
  Final line search alpha, max atom move = 0.25 1.4053399e-05
  Iterations, force evaluations = 175 353

MPI task timing breakdown:
Section |  min time  |  avg time  |  max time  |%varavg| %total
---------------------------------------------------------------
Pair    | 0.99313    | 2.8059     | 3.683      |  46.3 | 71.53
Neigh   | 0          | 0          | 0          |   0.0 |  0.00
Comm    | 0.055719   | 0.62681    | 1.9655     |  70.7 | 15.98
Output  | 0          | 0          | 0          |   0.0 |  0.00
Modify  | 5.9019e-05 | 0.0059308  | 0.012522   |   3.5 |  0.15
Other   |            | 0.484      |            |       | 12.34

Nlocal:        5552.90 ave        7913 max           0 min
Histogram: 4 2 2 0 2 6 4 1 14 17
Nghost:        6213.54 ave        8769 max         412 min
Histogram: 4 0 4 0 8 0 4 5 7 20
Neighs:       158427.0 ave      230672 max           0 min
Histogram: 4 2 2 0 5 3 4 4 12 16

Total # of neighbors = 8238198
Ave neighs/atom = 28.530457
Neighbor list builds = 0
Dangerous builds = 0
The dot product: 1.17892189814339e-07
Setting atom values ...
  1 settings made for x
  1 settings made for y
  1 settings made for z
Setting up cg style minimization ...
  Unit style    : metal
  Current step  : 469
Per MPI rank memory allocation (min/avg/max) = 5.465 | 6.344 | 6.728 Mbytes
Step PotEng KinEng TotEng v_fx v_fy v_fz 
     469   -1152449.4            0   -1152449.4 -0.0022743016  -0.02659312 -0.024877245 
     578   -1152449.4            0   -1152449.4 -1.9404635e-05 2.7003193e-06 4.4868234e-05 
Loop time of 2.42524 on 52 procs for 109 steps with 288751 atoms

99.9% CPU use with 52 MPI tasks x 1 OpenMP threads

Minimization stats:
  Stopping criterion = energy tolerance
  Energy initial, next-to-last, final = 
     -1152449.44328204  -1152449.44489489  -1152449.44489489
  Force two-norm initial, final = 0.18665156 0.00035228622
  Force max component initial, final = 0.092377425 6.9742562e-05
  Final line search alpha, max atom move = 1.0000000 6.9742562e-05
  Iterations, force evaluations = 109 218

MPI task timing breakdown:
Section |  min time  |  avg time  |  max time  |%varavg| %total
---------------------------------------------------------------
Pair    | 0.61597    | 1.7452     | 2.2777     |  36.5 | 71.96
Neigh   | 0          | 0          | 0          |   0.0 |  0.00
Comm    | 0.034806   | 0.39087    | 1.2468     |  56.4 | 16.12
Output  | 0          | 0          | 0          |   0.0 |  0.00
Modify  | 3.5287e-05 | 0.003675   | 0.0077805  |   2.8 |  0.15
Other   |            | 0.2855     |            |       | 11.77

Nlocal:        5552.90 ave        7912 max           0 min
Histogram: 4 2 2 0 2 6 4 0 15 17
Nghost:        6213.54 ave        8769 max         412 min
Histogram: 4 0 4 0 8 0 4 5 7 20
Neighs:       158427.0 ave      230645 max           0 min
Histogram: 4 2 2 0 5 3 4 4 12 16

Total # of neighbors = 8238196
Ave neighs/atom = 28.530450
Neighbor list builds = 0
Dangerous builds = 0
The dot product: -1.61554172721883e-07
Setting atom values ...
  1 settings made for x
  1 settings made for y
  1 settings made for z
Setting up cg style minimization ...
  Unit style    : metal
  Current step  : 578
Per MPI rank memory allocation (min/avg/max) = 5.465 | 6.344 | 6.728 Mbytes
Step PotEng KinEng TotEng v_fx v_fy v_fz 
     578   -1152449.4            0   -1152449.4 -0.0069316317  -0.03156482 -0.026816067 
     698   -1152449.4            0   -1152449.4 2.6650543e-05 -3.1745101e-06 -7.4510836e-05 
Loop time of 2.6565 on 52 procs for 120 steps with 288751 atoms

99.9% CPU use with 52 MPI tasks x 1 OpenMP threads

Minimization stats:
  Stopping criterion = energy tolerance
  Energy initial, next-to-last, final = 
     -1152449.43858328   -1152449.4402061   -1152449.4402061
  Force two-norm initial, final = 0.18710241 0.00024739321
  Force max component initial, final = 0.088867335 7.4510836e-05
  Final line search alpha, max atom move = 1.0000000 7.4510836e-05
  Iterations, force evaluations = 120 240

MPI task timing breakdown:
Section |  min time  |  avg time  |  max time  |%varavg| %total
---------------------------------------------------------------
Pair    | 0.67541    | 1.913      | 2.5047     |  38.3 | 72.01
Neigh   | 0          | 0          | 0          |   0.0 |  0.00
Comm    | 0.039385   | 0.42868    | 1.3535     |  58.7 | 16.14
Output  | 0          | 0          | 0          |   0.0 |  0.00
Modify  | 4.3479e-05 | 0.0040358  | 0.0085106  |   2.9 |  0.15
Other   |            | 0.3108     |            |       | 11.70

Nlocal:        5552.90 ave        7911 max           0 min
Histogram: 4 2 2 0 2 6 4 0 15 17
Nghost:        6213.54 ave        8769 max         412 min
Histogram: 4 0 4 0 8 0 4 5 7 20
Neighs:       158427.0 ave      230607 max           0 min
Histogram: 4 2 2 0 5 3 4 4 12 16

Total # of neighbors = 8238195
Ave neighs/atom = 28.530447
Neighbor list builds = 0
Dangerous builds = 0
The dot product: 3.04778589390899e-07
Setting atom values ...
  1 settings made for x
  1 settings made for y
  1 settings made for z
Setting up cg style minimization ...
  Unit style    : metal
  Current step  : 698
Per MPI rank memory allocation (min/avg/max) = 5.465 | 6.344 | 6.728 Mbytes
Step PotEng KinEng TotEng v_fx v_fy v_fz 
     698   -1152449.4            0   -1152449.4  -0.01127755  -0.03239539 -0.023727045 
     848   -1152449.4            0   -1152449.4 1.2969028e-05 2.4755086e-06 -3.6782474e-05 
Loop time of 3.32343 on 52 procs for 150 steps with 288751 atoms

99.9% CPU use with 52 MPI tasks x 1 OpenMP threads

Minimization stats:
  Stopping criterion = energy tolerance
  Energy initial, next-to-last, final = 
     -1152449.43258102  -1152449.43418187  -1152449.43418187
  Force two-norm initial, final = 0.18572277 0.000108592
  Force max component initial, final = 0.084873182 3.6782474e-05
  Final line search alpha, max atom move = 1.0000000 3.6782474e-05
  Iterations, force evaluations = 150 300

MPI task timing breakdown:
Section |  min time  |  avg time  |  max time  |%varavg| %total
---------------------------------------------------------------
Pair    | 0.83933    | 2.3892     | 3.1294     |  42.9 | 71.89
Neigh   | 0          | 0          | 0          |   0.0 |  0.00
Comm    | 0.046399   | 0.53348    | 1.6862     |  65.8 | 16.05
Output  | 0          | 0          | 0          |   0.0 |  0.00
Modify  | 4.8311e-05 | 0.0050353  | 0.010671   |   3.3 |  0.15
Other   |            | 0.3957     |            |       | 11.91

Nlocal:        5552.90 ave        7909 max           0 min
Histogram: 4 2 2 0 2 6 4 0 15 17
Nghost:        6213.54 ave        8769 max         412 min
Histogram: 4 0 4 0 8 0 4 5 7 20
Neighs:       158427.0 ave      230537 max           0 min
Histogram: 4 2 2 0 5 3 4 4 12 16

Total # of neighbors = 8238197
Ave neighs/atom = 28.530454
Neighbor list builds = 0
Dangerous builds = 0
The dot product: 1.25486720473257e-07
Setting atom values ...
  1 settings made for x
  1 settings made for y
  1 settings made for z
Setting up cg style minimization ...
  Unit style    : metal
  Current step  : 848
Per MPI rank memory allocation (min/avg/max) = 5.465 | 6.344 | 6.728 Mbytes
Step PotEng KinEng TotEng v_fx v_fy v_fz 
     848   -1152449.4            0   -1152449.4 -0.013820728 -0.030674086 -0.018309465 
     961   -1152449.4            0   -1152449.4 -1.2577449e-05  4.91289e-06 5.8383223e-05 
Loop time of 2.50028 on 52 procs for 113 steps with 288751 atoms

99.9% CPU use with 52 MPI tasks x 1 OpenMP threads

Minimization stats:
  Stopping criterion = energy tolerance
  Energy initial, next-to-last, final = 
     -1152449.42520885  -1152449.42677692  -1152449.42677692
  Force two-norm initial, final = 0.1836685 0.00019862781
  Force max component initial, final = 0.081424557 5.8383223e-05
  Final line search alpha, max atom move = 1.0000000 5.8383223e-05
  Iterations, force evaluations = 113 226

MPI task timing breakdown:
Section |  min time  |  avg time  |  max time  |%varavg| %total
---------------------------------------------------------------
Pair    | 0.63516    | 1.8008     | 2.3575     |  37.1 | 72.02
Neigh   | 0          | 0          | 0          |   0.0 |  0.00
Comm    | 0.037119   | 0.40287    | 1.2772     |  57.1 | 16.11
Output  | 0          | 0          | 0          |   0.0 |  0.00
Modify  | 3.6413e-05 | 0.0037968  | 0.0080353  |   2.8 |  0.15
Other   |            | 0.2929     |            |       | 11.71

Nlocal:        5552.90 ave        7907 max           0 min
Histogram: 4 2 2 0 2 6 4 0 15 17
Nghost:        6213.54 ave        8769 max         412 min
Histogram: 4 0 4 0 8 0 4 5 7 20
Neighs:       158427.0 ave      230466 max           0 min
Histogram: 4 2 2 0 5 3 4 4 12 16

Total # of neighbors = 8238198
Ave neighs/atom = 28.530457
Neighbor list builds = 0
Dangerous builds = 0
The dot product: -1.73468209260943e-07
Setting atom values ...
  1 settings made for x
  1 settings made for y
  1 settings made for z
Setting up cg style minimization ...
  Unit style    : metal
  Current step  : 961
Per MPI rank memory allocation (min/avg/max) = 5.465 | 6.344 | 6.728 Mbytes
Step PotEng KinEng TotEng v_fx v_fy v_fz 
     961   -1152449.4            0   -1152449.4 -0.014513093 -0.027654583 -0.012649343 
    1000   -1152449.4            0   -1152449.4 -2.2325154e-05 -3.6757706e-05 -3.9833583e-06 
    1081   -1152449.4            0   -1152449.4 3.1472625e-06 -4.8637013e-06 -2.6320993e-05 
Loop time of 2.67233 on 52 procs for 120 steps with 288751 atoms

99.9% CPU use with 52 MPI tasks x 1 OpenMP threads

Minimization stats:
  Stopping criterion = energy tolerance
  Energy initial, next-to-last, final = 
     -1152449.41641592    -1152449.417953    -1152449.417953
  Force two-norm initial, final = 0.18159073 0.00014554101
  Force max component initial, final = 0.078980625 2.6320993e-05
  Final line search alpha, max atom move = 1.0000000 2.6320993e-05
  Iterations, force evaluations = 120 240

MPI task timing breakdown:
Section |  min time  |  avg time  |  max time  |%varavg| %total
---------------------------------------------------------------
Pair    | 0.67651    | 1.9153     | 2.5076     |  38.3 | 71.67
Neigh   | 0          | 0          | 0          |   0.0 |  0.00
Comm    | 0.038844   | 0.43138    | 1.3746     |  58.8 | 16.14
Output  | 0.00013224 | 0.00013693 | 0.00028161 |   0.0 |  0.01
Modify  | 4.3949e-05 | 0.0040486  | 0.0085455  |   2.9 |  0.15
Other   |            | 0.3215     |            |       | 12.03

Nlocal:        5552.90 ave        7906 max           0 min
Histogram: 4 2 2 0 2 6 4 0 15 17
Nghost:        6213.54 ave        8769 max         412 min
Histogram: 4 0 4 0 8 0 4 5 7 20
Neighs:       158427.0 ave      230430 max           0 min
Histogram: 4 2 2 0 5 3 4 4 12 16

Total # of neighbors = 8238199
Ave neighs/atom = 28.530461
Neighbor list builds = 0
Dangerous builds = 0
The dot product: 5.61784316884488e-08
Setting atom values ...
  1 settings made for x
  1 settings made for y
  1 settings made for z
Setting up cg style minimization ...
  Unit style    : metal
  Current step  : 1081
Per MPI rank memory allocation (min/avg/max) = 5.465 | 6.344 | 6.728 Mbytes
Step PotEng KinEng TotEng v_fx v_fy v_fz 
    1081   -1152449.4            0   -1152449.4 -0.013560394  -0.02360195 -0.0076285454 
    1188   -1152449.4            0   -1152449.4 -8.7869933e-06 4.4309517e-06 5.3134193e-05 
Loop time of 2.36808 on 52 procs for 107 steps with 288751 atoms

99.9% CPU use with 52 MPI tasks x 1 OpenMP threads

Minimization stats:
  Stopping criterion = energy tolerance
  Energy initial, next-to-last, final = 
     -1152449.40616924  -1152449.40768871  -1152449.40768871
  Force two-norm initial, final = 0.17971399 0.00024003871
  Force max component initial, final = 0.077733303 5.3134193e-05
  Final line search alpha, max atom move = 1.0000000 5.3134193e-05
  Iterations, force evaluations = 107 214

MPI task timing breakdown:
Section |  min time  |  avg time  |  max time  |%varavg| %total
---------------------------------------------------------------
Pair    | 0.60234    | 1.7068     | 2.234      |  36.1 | 72.07
Neigh   | 0          | 0          | 0          |   0.0 |  0.00
Comm    | 0.03461    | 0.37996    | 1.2059     |  55.6 | 16.04
Output  | 0          | 0          | 0          |   0.0 |  0.00
Modify  | 3.445e-05  | 0.0035935  | 0.0076102  |   2.8 |  0.15
Other   |            | 0.2778     |            |       | 11.73

Nlocal:        5552.90 ave        7904 max           0 min
Histogram: 4 2 2 0 2 6 4 0 15 17
Nghost:        6213.54 ave        8769 max         412 min
Histogram: 4 0 4 0 8 0 4 5 7 20
Neighs:       158427.0 ave      230352 max           0 min
Histogram: 4 2 2 0 5 3 4 4 12 16

Total # of neighbors = 8238202
Ave neighs/atom = 28.530471
Neighbor list builds = 0
Dangerous builds = 0
The dot product: -5.15951730932721e-08
Setting atom values ...
  1 settings made for x
  1 settings made for y
  1 settings made for z
Setting up cg style minimization ...
  Unit style    : metal
  Current step  : 1188
Per MPI rank memory allocation (min/avg/max) = 5.465 | 6.344 | 6.728 Mbytes
Step PotEng KinEng TotEng v_fx v_fy v_fz 
    1188   -1152449.4            0   -1152449.4 -0.010717914 -0.017576036 -0.0028661138 
    1292   -1152449.4            0   -1152449.4 2.0074026e-05 1.0759728e-05 -6.2178088e-05 
Loop time of 2.30654 on 52 procs for 104 steps with 288751 atoms

99.9% CPU use with 52 MPI tasks x 1 OpenMP threads

Minimization stats:
  Stopping criterion = energy tolerance
  Energy initial, next-to-last, final = 
     -1152449.39446889  -1152449.39599991  -1152449.39599991
  Force two-norm initial, final = 0.17805677 0.00028358509
  Force max component initial, final = 0.077605621 6.2178088e-05
  Final line search alpha, max atom move = 1.0000000 6.2178088e-05
  Iterations, force evaluations = 104 208

MPI task timing breakdown:
Section |  min time  |  avg time  |  max time  |%varavg| %total
---------------------------------------------------------------
Pair    | 0.58197    | 1.6632     | 2.1743     |  35.8 | 72.11
Neigh   | 0          | 0          | 0          |   0.0 |  0.00
Comm    | 0.031741   | 0.3746     | 1.2008     |  55.2 | 16.24
Output  | 0          | 0          | 0          |   0.0 |  0.00
Modify  | 3.5195e-05 | 0.0035017  | 0.0074241  |   2.7 |  0.15
Other   |            | 0.2652     |            |       | 11.50

Nlocal:        5552.90 ave        7902 max           0 min
Histogram: 4 2 2 0 2 6 4 0 15 17
Nghost:        6213.54 ave        8769 max         412 min
Histogram: 4 0 4 0 8 0 4 5 7 20
Neighs:       158427.0 ave      230289 max           0 min
Histogram: 4 2 2 0 5 3 4 4 12 16

Total # of neighbors = 8238203
Ave neighs/atom = 28.530474
Neighbor list builds = 0
Dangerous builds = 0
The dot product: 2.91812479891654e-08
Setting atom values ...
  1 settings made for x
  1 settings made for y
  1 settings made for z
Setting up cg style minimization ...
  Unit style    : metal
  Current step  : 1292
Per MPI rank memory allocation (min/avg/max) = 5.465 | 6.344 | 6.728 Mbytes
Step PotEng KinEng TotEng v_fx v_fy v_fz 
    1292   -1152449.4            0   -1152449.4 -0.006132979 -0.0091374856 0.0020424468 
    1399   -1152449.4            0   -1152449.4 5.9564242e-06 -3.4922825e-06 -3.8444537e-05 
Loop time of 2.36728 on 52 procs for 107 steps with 288751 atoms

99.9% CPU use with 52 MPI tasks x 1 OpenMP threads

Minimization stats:
  Stopping criterion = energy tolerance
  Energy initial, next-to-last, final = 
     -1152449.38136323  -1152449.38295924  -1152449.38295924
  Force two-norm initial, final = 0.17690671 0.00032696239
  Force max component initial, final = 0.078909648 7.9983123e-05
  Final line search alpha, max atom move = 1.0000000 7.9983123e-05
  Iterations, force evaluations = 107 214

MPI task timing breakdown:
Section |  min time  |  avg time  |  max time  |%varavg| %total
---------------------------------------------------------------
Pair    | 0.59938    | 1.7066     | 2.2338     |  36.2 | 72.09
Neigh   | 0          | 0          | 0          |   0.0 |  0.00
Comm    | 0.033281   | 0.379      | 1.1934     |  55.6 | 16.01
Output  | 0          | 0          | 0          |   0.0 |  0.00
Modify  | 3.6396e-05 | 0.0036002  | 0.0076168  |   2.8 |  0.15
Other   |            | 0.278      |            |       | 11.75

Nlocal:        5552.90 ave        7896 max           0 min
Histogram: 4 2 2 0 2 6 4 0 14 18
Nghost:        6213.50 ave        8769 max         412 min
Histogram: 4 0 4 0 8 0 4 5 7 20
Neighs:       158427.0 ave      230062 max           0 min
Histogram: 4 2 2 0 5 3 4 4 12 16

Total # of neighbors = 8238203
Ave neighs/atom = 28.530474
Neighbor list builds = 0
Dangerous builds = 0
The dot product: -9.07132522805238e-08
Setting atom values ...
  1 settings made for x
  1 settings made for y
  1 settings made for z
Setting up cg style minimization ...
  Unit style    : metal
  Current step  : 1399
Per MPI rank memory allocation (min/avg/max) = 5.465 | 6.344 | 6.728 Mbytes
Step PotEng KinEng TotEng v_fx v_fy v_fz 
    1399   -1152449.4            0   -1152449.4 -0.00033380128 0.0030095753 0.0093856418 
    1552   -1152449.4            0   -1152449.4 -2.6672077e-05 -6.8690762e-06 0.00010195325 
Loop time of 3.38102 on 52 procs for 153 steps with 288751 atoms

99.9% CPU use with 52 MPI tasks x 1 OpenMP threads

Minimization stats:
  Stopping criterion = energy tolerance
  Energy initial, next-to-last, final = 
     -1152449.36698029  -1152449.36886139  -1152449.36886139
  Force two-norm initial, final = 0.17675702 0.00030890516
  Force max component initial, final = 0.08171673 0.00010195325
  Final line search alpha, max atom move = 1.0000000 0.00010195325
  Iterations, force evaluations = 153 306

MPI task timing breakdown:
Section |  min time  |  avg time  |  max time  |%varavg| %total
---------------------------------------------------------------
Pair    | 0.85733    | 2.4375     | 3.191      |  43.2 | 72.09
Neigh   | 0          | 0          | 0          |   0.0 |  0.00
Comm    | 0.048616   | 0.54379    | 1.7246     |  66.6 | 16.08
Output  | 0          | 0          | 0          |   0.0 |  0.00
Modify  | 5.1244e-05 | 0.0051343  | 0.010893   |   3.3 |  0.15
Other   |            | 0.3946     |            |       | 11.67

Nlocal:        5552.90 ave        7894 max           0 min
Histogram: 4 2 2 0 2 6 4 0 14 18
Nghost:        6213.50 ave        8769 max         412 min
Histogram: 4 0 4 0 8 0 4 5 7 20
Neighs:       158427.0 ave      230011 max           0 min
Histogram: 4 2 2 0 5 3 4 4 12 16

Total # of neighbors = 8238205
Ave neighs/atom = 28.530481
Neighbor list builds = 0
Dangerous builds = 0
The dot product: 5.0728858749752e-07
Setting atom values ...
  1 settings made for x
  1 settings made for y
  1 settings made for z
Setting up cg style minimization ...
  Unit style    : metal
  Current step  : 1552
Per MPI rank memory allocation (min/avg/max) = 5.465 | 6.344 | 6.728 Mbytes
Step PotEng KinEng TotEng v_fx v_fy v_fz 
    1552   -1152449.4            0   -1152449.4 0.0056014547  0.022525791  0.023710214 
    1701   -1152449.4            0   -1152449.4 -1.6924763e-05 4.2422652e-07 6.7516125e-05 
Loop time of 3.29638 on 52 procs for 149 steps with 288751 atoms

99.9% CPU use with 52 MPI tasks x 1 OpenMP threads

Minimization stats:
  Stopping criterion = energy tolerance
  Energy initial, next-to-last, final = 
     -1152449.35178873  -1152449.35391316  -1152449.35391316
  Force two-norm initial, final = 0.17934876 0.0003741371
  Force max component initial, final = 0.086836189 6.7516125e-05
  Final line search alpha, max atom move = 1.0000000 6.7516125e-05
  Iterations, force evaluations = 149 298

MPI task timing breakdown:
Section |  min time  |  avg time  |  max time  |%varavg| %total
---------------------------------------------------------------
Pair    | 0.83865    | 2.3748     | 3.1075     |  42.7 | 72.04
Neigh   | 0          | 0          | 0          |   0.0 |  0.00
Comm    | 0.045677   | 0.53212    | 1.6897     |  65.6 | 16.14
Output  | 0          | 0          | 0          |   0.0 |  0.00
Modify  | 5.3469e-05 | 0.0050559  | 0.010608   |   3.3 |  0.15
Other   |            | 0.3844     |            |       | 11.66

Nlocal:        5552.90 ave        7894 max           0 min
Histogram: 4 2 2 0 2 6 4 0 14 18
Nghost:        6213.52 ave        8769 max         412 min
Histogram: 4 0 4 0 8 0 4 5 7 20
Neighs:       158427.0 ave      230011 max           0 min
Histogram: 4 2 2 0 5 3 4 4 12 16

Total # of neighbors = 8238204
Ave neighs/atom = 28.530478
Neighbor list builds = 0
Dangerous builds = 0
The dot product: 5.95094816930854e-07
Setting atom values ...
  1 settings made for x
  1 settings made for y
  1 settings made for z
Setting up cg style minimization ...
  Unit style    : metal
  Current step  : 1701
Per MPI rank memory allocation (min/avg/max) = 5.465 | 6.344 | 6.728 Mbytes
Step PotEng KinEng TotEng v_fx v_fy v_fz 
    1701   -1152449.3            0   -1152449.3 0.0072673259  0.037684771  0.031220917 
    1897   -1152449.3            0   -1152449.3 -1.8119206e-06 -1.875491e-06 3.3409441e-06 
Loop time of 4.34175 on 52 procs for 196 steps with 288751 atoms

99.9% CPU use with 52 MPI tasks x 1 OpenMP threads

Minimization stats:
  Stopping criterion = energy tolerance
  Energy initial, next-to-last, final = 
     -1152449.33585089  -1152449.33815234  -1152449.33815234
  Force two-norm initial, final = 0.1828906 0.00012292801
  Force max component initial, final = 0.093508366 1.5441202e-05
  Final line search alpha, max atom move = 1.0000000 1.5441202e-05
  Iterations, force evaluations = 196 392

MPI task timing breakdown:
Section |  min time  |  avg time  |  max time  |%varavg| %total
---------------------------------------------------------------
Pair    | 1.0976     | 3.1262     | 4.0889     |  49.0 | 72.00
Neigh   | 0          | 0          | 0          |   0.0 |  0.00
Comm    | 0.065646   | 0.69823    | 2.2044     |  75.3 | 16.08
Output  | 0          | 0          | 0          |   0.0 |  0.00
Modify  | 6.818e-05  | 0.0065728  | 0.013882   |   3.7 |  0.15
Other   |            | 0.5107     |            |       | 11.76

Nlocal:        5552.90 ave        7896 max           0 min
Histogram: 4 2 2 0 2 6 4 0 14 18
Nghost:        6213.52 ave        8769 max         412 min
Histogram: 4 0 4 0 8 0 4 5 7 20
Neighs:       158427.0 ave      230078 max           0 min
Histogram: 4 2 2 0 5 3 4 4 12 16

Total # of neighbors = 8238205
Ave neighs/atom = 28.530481
Neighbor list builds = 0
Dangerous builds = 0
The dot product: -2.94545301153016e-10
Setting atom values ...
  1 settings made for x
  1 settings made for y
  1 settings made for z
Setting up cg style minimization ...
  Unit style    : metal
  Current step  : 1897
Per MPI rank memory allocation (min/avg/max) = 5.465 | 6.344 | 6.728 Mbytes
Step PotEng KinEng TotEng v_fx v_fy v_fz 
    1897   -1152449.3            0   -1152449.3 0.0057737447  0.042149269  0.028702414 
    2000   -1152449.3            0   -1152449.3 6.6491342e-05 4.0987009e-06 -0.0001931724 
    2082   -1152449.3            0   -1152449.3 2.1906687e-05 1.2677798e-07 -6.4975324e-05 
Loop time of 4.08346 on 52 procs for 185 steps with 288751 atoms

99.9% CPU use with 52 MPI tasks x 1 OpenMP threads

Minimization stats:
  Stopping criterion = energy tolerance
  Energy initial, next-to-last, final = 
     -1152449.31902018  -1152449.32120864  -1152449.32120864
  Force two-norm initial, final = 0.18311948 0.00018401193
  Force max component initial, final = 0.099858566 6.4975324e-05
  Final line search alpha, max atom move = 1.0000000 6.4975324e-05
  Iterations, force evaluations = 185 370

MPI task timing breakdown:
Section |  min time  |  avg time  |  max time  |%varavg| %total
---------------------------------------------------------------
Pair    | 1.0347     | 2.9411     | 3.855      |  47.5 | 72.02
Neigh   | 0          | 0          | 0          |   0.0 |  0.00
Comm    | 0.056133   | 0.65749    | 2.0756     |  72.8 | 16.10
Output  | 0.000216   | 0.00022073 | 0.00038888 |   0.0 |  0.01
Modify  | 6.31e-05   | 0.0061909  | 0.013125   |   3.6 |  0.15
Other   |            | 0.4785     |            |       | 11.72

Nlocal:        5552.90 ave        7900 max           0 min
Histogram: 4 2 2 0 2 6 4 0 14 18
Nghost:        6213.63 ave        8769 max         412 min
Histogram: 4 0 4 0 8 0 4 5 7 20
Neighs:       158427.0 ave      230229 max           0 min
Histogram: 4 2 2 0 5 3 4 4 12 16

Total # of neighbors = 8238204
Ave neighs/atom = 28.530478
Neighbor list builds = 0
Dangerous builds = 0
The dot product: -5.27216396056985e-07
Setting atom values ...
  1 settings made for x
  1 settings made for y
  1 settings made for z
Setting up cg style minimization ...
  Unit style    : metal
  Current step  : 2082
Per MPI rank memory allocation (min/avg/max) = 5.465 | 6.344 | 6.728 Mbytes
Step PotEng KinEng TotEng v_fx v_fy v_fz 
    2082   -1152449.3            0   -1152449.3   0.00387675  0.039039549  0.021899019 
    2272   -1152449.3            0   -1152449.3 1.088318e-05 -2.4730024e-06 -3.1512027e-05 
Loop time of 4.23522 on 52 procs for 190 steps with 288751 atoms

99.9% CPU use with 52 MPI tasks x 1 OpenMP threads

Minimization stats:
  Stopping criterion = linesearch alpha is zero
  Energy initial, next-to-last, final = 
     -1152449.30088897  -1152449.30295027  -1152449.30295027
  Force two-norm initial, final = 0.18109443 0.00015119451
  Force max component initial, final = 0.10520797 3.7001614e-05
  Final line search alpha, max atom move = 0.5 1.8500807e-05
  Iterations, force evaluations = 190 381

MPI task timing breakdown:
Section |  min time  |  avg time  |  max time  |%varavg| %total
---------------------------------------------------------------
Pair    | 1.0655     | 3.0299     | 3.9727     |  48.3 | 71.54
Neigh   | 0          | 0          | 0          |   0.0 |  0.00
Comm    | 0.056862   | 0.68256    | 2.1467     |  73.6 | 16.12
Output  | 0          | 0          | 0          |   0.0 |  0.00
Modify  | 6.1645e-05 | 0.0063835  | 0.013545   |   3.7 |  0.15
Other   |            | 0.5163     |            |       | 12.19

Nlocal:        5552.90 ave        7904 max           0 min
Histogram: 4 2 2 0 2 6 4 0 15 17
Nghost:        6213.63 ave        8769 max         412 min
Histogram: 4 0 4 0 8 0 4 5 7 20
Neighs:       158427.0 ave      230386 max           0 min
Histogram: 4 2 2 0 5 3 4 4 12 16

Total # of neighbors = 8238209
Ave neighs/atom = 28.530495
Neighbor list builds = 0
Dangerous builds = 0
The dot product: -2.68155813176039e-07
Setting atom values ...
  1 settings made for x
  1 settings made for y
  1 settings made for z
Setting up cg style minimization ...
  Unit style    : metal
  Current step  : 2272
Per MPI rank memory allocation (min/avg/max) = 5.465 | 6.344 | 6.728 Mbytes
Step PotEng KinEng TotEng v_fx v_fy v_fz 
    2272   -1152449.3            0   -1152449.3 0.0019628827  0.033487907  0.016920977 
    2468   -1152449.3            0   -1152449.3 -2.4281235e-06 3.263758e-06 8.2346081e-06 
Loop time of 4.33969 on 52 procs for 196 steps with 288751 atoms

99.9% CPU use with 52 MPI tasks x 1 OpenMP threads

Minimization stats:
  Stopping criterion = energy tolerance
  Energy initial, next-to-last, final = 
     -1152449.28142486   -1152449.2834252   -1152449.2834252
  Force two-norm initial, final = 0.17883264 0.00011869113
  Force max component initial, final = 0.10940768 1.3306974e-05
  Final line search alpha, max atom move = 1.0000000 1.3306974e-05
  Iterations, force evaluations = 196 392

MPI task timing breakdown:
Section |  min time  |  avg time  |  max time  |%varavg| %total
---------------------------------------------------------------
Pair    | 1.0974     | 3.1116     | 4.0826     |  48.8 | 71.70
Neigh   | 0          | 0          | 0          |   0.0 |  0.00
Comm    | 0.059026   | 0.69787    | 2.1996     |  74.7 | 16.08
Output  | 0          | 0          | 0          |   0.0 |  0.00
Modify  | 6.5574e-05 | 0.0065713  | 0.013961   |   3.7 |  0.15
Other   |            | 0.5236     |            |       | 12.07

Nlocal:        5552.90 ave        7906 max           0 min
Histogram: 4 2 2 0 2 6 4 0 15 17
Nghost:        6213.63 ave        8769 max         412 min
Histogram: 4 0 4 0 8 0 4 5 7 20
Neighs:       158427.0 ave      230464 max           0 min
Histogram: 4 2 2 0 5 3 4 4 12 16

Total # of neighbors = 8238212
Ave neighs/atom = 28.530506
Neighbor list builds = 0
Dangerous builds = 0
The dot product: 9.81238229739083e-08
Setting atom values ...
  1 settings made for x
  1 settings made for y
  1 settings made for z
Setting up cg style minimization ...
  Unit style    : metal
  Current step  : 2468
Per MPI rank memory allocation (min/avg/max) = 5.465 | 6.344 | 6.728 Mbytes
Step PotEng KinEng TotEng v_fx v_fy v_fz 
    2468   -1152449.3            0   -1152449.3 -0.00024217285  0.027827863    0.0151702 
    2649   -1152449.3            0   -1152449.3 -1.5753129e-05 -1.2756332e-06 3.6365479e-05 
Loop time of 4.00348 on 52 procs for 181 steps with 288751 atoms

99.9% CPU use with 52 MPI tasks x 1 OpenMP threads

Minimization stats:
  Stopping criterion = energy tolerance
  Energy initial, next-to-last, final = 
     -1152449.26076455  -1152449.26268225  -1152449.26268225
  Force two-norm initial, final = 0.17684548 0.00019314574
  Force max component initial, final = 0.11282473 3.6365479e-05
  Final line search alpha, max atom move = 1.0000000 3.6365479e-05
  Iterations, force evaluations = 181 362

MPI task timing breakdown:
Section |  min time  |  avg time  |  max time  |%varavg| %total
---------------------------------------------------------------
Pair    | 1.0282     | 2.8897     | 3.776      |  46.9 | 72.18
Neigh   | 0          | 0          | 0          |   0.0 |  0.00
Comm    | 0.056804   | 0.64719    | 2.0693     |  72.6 | 16.17
Output  | 0          | 0          | 0          |   0.0 |  0.00
Modify  | 5.8525e-05 | 0.0061094  | 0.013045   |   3.6 |  0.15
Other   |            | 0.4605     |            |       | 11.50

Nlocal:        5552.90 ave        7906 max           0 min
Histogram: 4 2 2 0 2 6 4 0 15 17
Nghost:        6213.63 ave        8769 max         412 min
Histogram: 4 0 4 0 8 0 4 5 7 20
Neighs:       158427.0 ave      230472 max           0 min
Histogram: 4 2 2 0 5 3 4 4 12 16

Total # of neighbors = 8238217
Ave neighs/atom = 28.530523
Neighbor list builds = 0
Dangerous builds = 0
The dot product: 2.81138450121283e-07
Setting atom values ...
  1 settings made for x
  1 settings made for y
  1 settings made for z
Setting up cg style minimization ...
  Unit style    : metal
  Current step  : 2649
Per MPI rank memory allocation (min/avg/max) = 5.465 | 6.344 | 6.728 Mbytes
Step PotEng KinEng TotEng v_fx v_fy v_fz 
    2649   -1152449.2            0   -1152449.2 -0.0019650694  0.022702517  0.014162532 
    2811   -1152449.2            0   -1152449.2 2.7912729e-05 1.2283877e-06 -6.1211547e-05 
Loop time of 3.5829 on 52 procs for 162 steps with 288751 atoms

99.9% CPU use with 52 MPI tasks x 1 OpenMP threads

Minimization stats:
  Stopping criterion = energy tolerance
  Energy initial, next-to-last, final = 
     -1152449.23885705  -1152449.24073691  -1152449.24073691
  Force two-norm initial, final = 0.17520905 0.00029248699
  Force max component initial, final = 0.11582211 6.1211547e-05
  Final line search alpha, max atom move = 1.0000000 6.1211547e-05
  Iterations, force evaluations = 162 324

MPI task timing breakdown:
Section |  min time  |  avg time  |  max time  |%varavg| %total
---------------------------------------------------------------
Pair    | 0.9074     | 2.572      | 3.3778     |  44.4 | 71.79
Neigh   | 0          | 0          | 0          |   0.0 |  0.00
Comm    | 0.049142   | 0.57296    | 1.8043     |  68.0 | 15.99
Output  | 0          | 0          | 0          |   0.0 |  0.00
Modify  | 5.2226e-05 | 0.0054331  | 0.011485   |   3.4 |  0.15
Other   |            | 0.4325     |            |       | 12.07

Nlocal:        5552.90 ave        7907 max           0 min
Histogram: 4 2 2 0 2 6 4 0 15 17
Nghost:        6213.63 ave        8769 max         412 min
Histogram: 4 0 4 0 8 0 4 5 7 20
Neighs:       158427.0 ave      230518 max           0 min
Histogram: 4 2 2 0 5 3 4 4 12 16

Total # of neighbors = 8238212
Ave neighs/atom = 28.530506
Neighbor list builds = 0
Dangerous builds = 0
The dot product: -5.36015223978438e-07
Setting atom values ...
  1 settings made for x
  1 settings made for y
  1 settings made for z
Setting up cg style minimization ...
  Unit style    : metal
  Current step  : 2811
Per MPI rank memory allocation (min/avg/max) = 5.465 | 6.344 | 6.728 Mbytes
Step PotEng KinEng TotEng v_fx v_fy v_fz 
    2811   -1152449.2            0   -1152449.2 -0.004033061  0.019879806  0.015575049 
    2976   -1152449.2            0   -1152449.2 -1.2085046e-05 1.0089493e-06 2.5529229e-05 
Loop time of 3.64476 on 52 procs for 165 steps with 288751 atoms

99.9% CPU use with 52 MPI tasks x 1 OpenMP threads

Minimization stats:
  Stopping criterion = energy tolerance
  Energy initial, next-to-last, final = 
     -1152449.21579658  -1152449.21781665  -1152449.21781665
  Force two-norm initial, final = 0.17423014 0.0002581821
  Force max component initial, final = 0.11865312 3.6798974e-05
  Final line search alpha, max atom move = 1.0000000 3.6798974e-05
  Iterations, force evaluations = 165 330

MPI task timing breakdown:
Section |  min time  |  avg time  |  max time  |%varavg| %total
---------------------------------------------------------------
Pair    | 0.94039    | 2.6348     | 3.4412     |  44.7 | 72.29
Neigh   | 0          | 0          | 0          |   0.0 |  0.00
Comm    | 0.055709   | 0.58846    | 1.8867     |  69.4 | 16.15
Output  | 0          | 0          | 0          |   0.0 |  0.00
Modify  | 5.6001e-05 | 0.0055759  | 0.011866   |   3.4 |  0.15
Other   |            | 0.4159     |            |       | 11.41

Nlocal:        5552.90 ave        7908 max           0 min
Histogram: 4 2 2 0 2 6 4 0 15 17
Nghost:        6213.63 ave        8769 max         412 min
Histogram: 4 0 4 0 8 0 4 5 7 20
Neighs:       158427.0 ave      230548 max           0 min
Histogram: 4 2 2 0 5 3 4 4 12 16

Total # of neighbors = 8238211
Ave neighs/atom = 28.530502
Neighbor list builds = 0
Dangerous builds = 0
The dot product: 3.11761037303113e-07
Setting atom values ...
  1 settings made for x
  1 settings made for y
  1 settings made for z
Setting up cg style minimization ...
  Unit style    : metal
  Current step  : 2976
Per MPI rank memory allocation (min/avg/max) = 5.465 | 6.344 | 6.728 Mbytes
Step PotEng KinEng TotEng v_fx v_fy v_fz 
    2976   -1152449.2            0   -1152449.2 -0.0086031071    0.0216971  0.023067338 
    3000   -1152449.2            0   -1152449.2 6.1446741e-05 2.8674858e-05 -0.00011052662 
    3156   -1152449.2            0   -1152449.2 -3.9116828e-06 -4.4569241e-06 6.2590265e-06 
Loop time of 3.99932 on 52 procs for 180 steps with 288751 atoms

99.9% CPU use with 52 MPI tasks x 1 OpenMP threads

Minimization stats:
  Stopping criterion = energy tolerance
  Energy initial, next-to-last, final = 
     -1152449.19205987  -1152449.19427988  -1152449.19427988
  Force two-norm initial, final = 0.17437242 0.00016303469
  Force max component initial, final = 0.12118399 2.7665548e-05
  Final line search alpha, max atom move = 1.0000000 2.7665548e-05
  Iterations, force evaluations = 180 360

MPI task timing breakdown:
Section |  min time  |  avg time  |  max time  |%varavg| %total
---------------------------------------------------------------
Pair    | 1.0168     | 2.8665     | 3.7567     |  46.8 | 71.68
Neigh   | 0          | 0          | 0          |   0.0 |  0.00
Comm    | 0.057042   | 0.64357    | 2.0386     |  71.9 | 16.09
Output  | 0.00013295 | 0.00013691 | 0.00028075 |   0.0 |  0.00
Modify  | 6.1679e-05 | 0.0060557  | 0.012851   |   3.6 |  0.15
Other   |            | 0.483      |            |       | 12.08

Nlocal:        5552.90 ave        7908 max           0 min
Histogram: 4 2 2 0 2 6 4 0 15 17
Nghost:        6213.58 ave        8769 max         412 min
Histogram: 4 0 4 0 8 0 4 5 7 20
Neighs:       158427.0 ave      230561 max           0 min
Histogram: 4 2 2 0 5 3 4 4 12 16

Total # of neighbors = 8238212
Ave neighs/atom = 28.530506
Neighbor list builds = 0
Dangerous builds = 0
The dot product: 6.29635979671336e-08
Setting atom values ...
  1 settings made for x
  1 settings made for y
  1 settings made for z
Setting up cg style minimization ...
  Unit style    : metal
  Current step  : 3156
Per MPI rank memory allocation (min/avg/max) = 5.465 | 6.344 | 6.728 Mbytes
Step PotEng KinEng TotEng v_fx v_fy v_fz 
    3156   -1152449.2            0   -1152449.2 -0.013472041  0.024929005  0.029749452 
    3358   -1152449.2            0   -1152449.2 9.5430399e-06 2.0657198e-06 -1.6509373e-05 
Loop time of 4.47471 on 52 procs for 202 steps with 288751 atoms

99.9% CPU use with 52 MPI tasks x 1 OpenMP threads

Minimization stats:
  Stopping criterion = linesearch alpha is zero
  Energy initial, next-to-last, final = 
     -1152449.16788213  -1152449.17006794  -1152449.17006794
  Force two-norm initial, final = 0.17516862 0.00010097199
  Force max component initial, final = 0.1238567 1.6509373e-05
  Final line search alpha, max atom move = 0.5 8.2546864e-06
  Iterations, force evaluations = 202 405

MPI task timing breakdown:
Section |  min time  |  avg time  |  max time  |%varavg| %total
---------------------------------------------------------------
Pair    | 1.1488     | 3.2201     | 4.2228     |  49.5 | 71.96
Neigh   | 0          | 0          | 0          |   0.0 |  0.00
Comm    | 0.066039   | 0.7213     | 2.2825     |  76.1 | 16.12
Output  | 0          | 0          | 0          |   0.0 |  0.00
Modify  | 7.0115e-05 | 0.0068147  | 0.014482   |   3.8 |  0.15
Other   |            | 0.5265     |            |       | 11.77

Nlocal:        5552.90 ave        7907 max           0 min
Histogram: 4 2 2 0 2 6 4 0 15 17
Nghost:        6213.54 ave        8769 max         412 min
Histogram: 4 0 4 0 8 0 4 5 7 20
Neighs:       158427.0 ave      230526 max           0 min
Histogram: 4 2 2 0 5 3 4 4 12 16

Total # of neighbors = 8238215
Ave neighs/atom = 28.530516
Neighbor list builds = 0
Dangerous builds = 0
The dot product: -2.49152149502717e-07
Setting atom values ...
  1 settings made for x
  1 settings made for y
  1 settings made for z
Setting up cg style minimization ...
  Unit style    : metal
  Current step  : 3358
Per MPI rank memory allocation (min/avg/max) = 5.465 | 6.344 | 6.728 Mbytes
Step PotEng KinEng TotEng v_fx v_fy v_fz 
    3358   -1152449.1            0   -1152449.1  -0.01451219  0.023750946  0.028176601 
    3577   -1152449.1            0   -1152449.1 -6.5767917e-06 -5.6944728e-08 1.0824086e-05 
Loop time of 4.84638 on 52 procs for 219 steps with 288751 atoms

99.9% CPU use with 52 MPI tasks x 1 OpenMP threads

Minimization stats:
  Stopping criterion = linesearch alpha is zero
  Energy initial, next-to-last, final = 
     -1152449.14281465  -1152449.14487217  -1152449.14487217
  Force two-norm initial, final = 0.17468714 5.7639138e-05
  Force max component initial, final = 0.12696302 1.7386458e-05
  Final line search alpha, max atom move = 0.5 8.6932291e-06
  Iterations, force evaluations = 219 439

MPI task timing breakdown:
Section |  min time  |  avg time  |  max time  |%varavg| %total
---------------------------------------------------------------
Pair    | 1.2275     | 3.4867     | 4.575      |  51.7 | 71.94
Neigh   | 0          | 0          | 0          |   0.0 |  0.00
Comm    | 0.065813   | 0.7804     | 2.4772     |  79.4 | 16.10
Output  | 0          | 0          | 0          |   0.0 |  0.00
Modify  | 7.3467e-05 | 0.0073412  | 0.015591   |   4.0 |  0.15
Other   |            | 0.572      |            |       | 11.80

Nlocal:        5552.90 ave        7909 max           0 min
Histogram: 4 2 2 0 2 6 4 0 15 17
Nghost:        6213.50 ave        8769 max         412 min
Histogram: 4 0 4 0 8 0 4 5 7 20
Neighs:       158427.0 ave      230588 max           0 min
Histogram: 4 2 2 0 5 3 4 4 12 16

Total # of neighbors = 8238215
Ave neighs/atom = 28.530516
Neighbor list builds = 0
Dangerous builds = 0
The dot product: 1.62911538089487e-07
Setting atom values ...
  1 settings made for x
  1 settings made for y
  1 settings made for z
Setting up cg style minimization ...
  Unit style    : metal
  Current step  : 3577
Per MPI rank memory allocation (min/avg/max) = 5.465 | 6.344 | 6.728 Mbytes
Step PotEng KinEng TotEng v_fx v_fy v_fz 
    3577   -1152449.1            0   -1152449.1 -0.013551022  0.020289233  0.023767323 
    3767   -1152449.1            0   -1152449.1 -2.1870835e-05 -3.82275e-06 3.3190679e-05 
Loop time of 4.23778 on 52 procs for 190 steps with 288751 atoms

99.9% CPU use with 52 MPI tasks x 1 OpenMP threads

Minimization stats:
  Stopping criterion = linesearch alpha is zero
  Energy initial, next-to-last, final = 
     -1152449.11663357   -1152449.1185004   -1152449.1185004
  Force two-norm initial, final = 0.17384162 0.00012226536
  Force max component initial, final = 0.12993048 3.3190679e-05
  Final line search alpha, max atom move = 0.5 1.6595340e-05
  Iterations, force evaluations = 190 383

MPI task timing breakdown:
Section |  min time  |  avg time  |  max time  |%varavg| %total
---------------------------------------------------------------
Pair    | 1.0857     | 3.0527     | 3.9948     |  48.3 | 72.04
Neigh   | 0          | 0          | 0          |   0.0 |  0.00
Comm    | 0.063986   | 0.68085    | 2.156      |  74.6 | 16.07
Output  | 0          | 0          | 0          |   0.0 |  0.00
Modify  | 5.9942e-05 | 0.0064411  | 0.013597   |   3.7 |  0.15
Other   |            | 0.4978     |            |       | 11.75

Nlocal:        5552.90 ave        7909 max           0 min
Histogram: 4 2 2 0 2 6 4 0 15 17
Nghost:        6213.58 ave        8770 max         412 min
Histogram: 4 0 4 0 8 0 4 5 7 20
Neighs:       158427.0 ave      230595 max           0 min
Histogram: 4 2 2 0 5 3 4 4 12 16

Total # of neighbors = 8238213
Ave neighs/atom = 28.530509
Neighbor list builds = 0
Dangerous builds = 0
The dot product: 4.163833564822e-07
Setting atom values ...
  1 settings made for x
  1 settings made for y
  1 settings made for z
Setting up cg style minimization ...
  Unit style    : metal
  Current step  : 3767
Per MPI rank memory allocation (min/avg/max) = 5.465 | 6.344 | 6.728 Mbytes
Step PotEng KinEng TotEng v_fx v_fy v_fz 
    3767   -1152449.1            0   -1152449.1 -0.010955736  0.015855012  0.017847247 
    3948   -1152449.1            0   -1152449.1 8.7141761e-06 5.2180467e-07 -1.2693011e-05 
Loop time of 4.00757 on 52 procs for 181 steps with 288751 atoms

99.9% CPU use with 52 MPI tasks x 1 OpenMP threads

Minimization stats:
  Stopping criterion = linesearch alpha is zero
  Energy initial, next-to-last, final = 
     -1152449.08911195  -1152449.09084725  -1152449.09084725
  Force two-norm initial, final = 0.17327674 0.00014208394
  Force max component initial, final = 0.13279578 1.8013549e-05
  Final line search alpha, max atom move = 0.5 9.0067743e-06
  Iterations, force evaluations = 181 363

MPI task timing breakdown:
Section |  min time  |  avg time  |  max time  |%varavg| %total
---------------------------------------------------------------
Pair    | 1.014      | 2.8803     | 3.7835     |  47.1 | 71.87
Neigh   | 0          | 0          | 0          |   0.0 |  0.00
Comm    | 0.055002   | 0.64641    | 2.0505     |  72.0 | 16.13
Output  | 0          | 0          | 0          |   0.0 |  0.00
Modify  | 6.1843e-05 | 0.0060967  | 0.012972   |   3.6 |  0.15
Other   |            | 0.4748     |            |       | 11.85

Nlocal:        5552.90 ave        7910 max           0 min
Histogram: 4 2 2 0 2 6 4 0 15 17
Nghost:        6213.54 ave        8770 max         412 min
Histogram: 4 0 4 0 8 0 4 5 7 20
Neighs:       158427.0 ave      230618 max           0 min
Histogram: 4 2 2 0 5 3 4 4 12 16

Total # of neighbors = 8238213
Ave neighs/atom = 28.530509
Neighbor list builds = 0
Dangerous builds = 0
The dot product: -1.39625084607772e-07
Setting atom values ...
  1 settings made for x
  1 settings made for y
  1 settings made for z
Setting up cg style minimization ...
  Unit style    : metal
  Current step  : 3948
Per MPI rank memory allocation (min/avg/max) = 5.465 | 6.344 | 6.728 Mbytes
Step PotEng KinEng TotEng v_fx v_fy v_fz 
    3948   -1152449.1            0   -1152449.1 -0.0080781461  0.011371443  0.012440048 
    4000   -1152449.1            0   -1152449.1 0.00034310331 4.5645657e-05 -0.00047741185 
    4135   -1152449.1            0   -1152449.1 2.4544608e-05 3.0846664e-06 -3.4170066e-05 
Loop time of 4.14372 on 52 procs for 187 steps with 288751 atoms

99.9% CPU use with 52 MPI tasks x 1 OpenMP threads

Minimization stats:
  Stopping criterion = linesearch alpha is zero
  Energy initial, next-to-last, final = 
     -1152449.06024826  -1152449.06190641  -1152449.06190641
  Force two-norm initial, final = 0.17331779 0.0001237547
  Force max component initial, final = 0.13547349 3.4170066e-05
  Final line search alpha, max atom move = 0.5 1.7085033e-05
  Iterations, force evaluations = 187 375

MPI task timing breakdown:
Section |  min time  |  avg time  |  max time  |%varavg| %total
---------------------------------------------------------------
Pair    | 1.0543     | 2.9911     | 3.9109     |  47.9 | 72.19
Neigh   | 0          | 0          | 0          |   0.0 |  0.00
Comm    | 0.060102   | 0.67054    | 2.1429     |  74.2 | 16.18
Output  | 0.00013511 | 0.00013942 | 0.00028836 |   0.0 |  0.00
Modify  | 6.3234e-05 | 0.0062985  | 0.013367   |   3.7 |  0.15
Other   |            | 0.4756     |            |       | 11.48

Nlocal:        5552.90 ave        7911 max           0 min
Histogram: 4 2 2 0 2 6 4 0 15 17
Nghost:        6213.58 ave        8770 max         412 min
Histogram: 4 0 4 0 8 0 4 5 7 20
Neighs:       158427.0 ave      230649 max           0 min
Histogram: 4 2 2 0 5 3 4 4 12 16

Total # of neighbors = 8238214
Ave neighs/atom = 28.530512
Neighbor list builds = 0
Dangerous builds = 0
The dot product: -3.16858151334092e-07
Setting atom values ...
  1 settings made for x
  1 settings made for y
  1 settings made for z
Setting up cg style minimization ...
  Unit style    : metal
  Current step  : 4135
Per MPI rank memory allocation (min/avg/max) = 5.465 | 6.344 | 6.728 Mbytes
Step PotEng KinEng TotEng v_fx v_fy v_fz 
    4135     -1152449            0     -1152449 -0.0055140046 0.0074781001 0.0081266719 
    4289     -1152449            0     -1152449 1.2727654e-05 3.9282736e-06 -1.6962339e-05 
Loop time of 3.39988 on 52 procs for 154 steps with 288751 atoms

99.9% CPU use with 52 MPI tasks x 1 OpenMP threads

Minimization stats:
  Stopping criterion = energy tolerance
  Energy initial, next-to-last, final = 
     -1152449.03009265  -1152449.03173371  -1152449.03173371
  Force two-norm initial, final = 0.17386432 0.000317051
  Force max component initial, final = 0.13791707 4.5390857e-05
  Final line search alpha, max atom move = 1.0000000 4.5390857e-05
  Iterations, force evaluations = 154 308

MPI task timing breakdown:
Section |  min time  |  avg time  |  max time  |%varavg| %total
---------------------------------------------------------------
Pair    | 0.86218    | 2.4435     | 3.2117     |  43.4 | 71.87
Neigh   | 0          | 0          | 0          |   0.0 |  0.00
Comm    | 0.047111   | 0.54648    | 1.714      |  66.2 | 16.07
Output  | 0          | 0          | 0          |   0.0 |  0.00
Modify  | 5.0528e-05 | 0.0051681  | 0.010908   |   3.3 |  0.15
Other   |            | 0.4048     |            |       | 11.91

Nlocal:        5552.90 ave        7912 max           0 min
Histogram: 4 2 2 0 2 6 4 0 15 17
Nghost:        6213.40 ave        8770 max         412 min
Histogram: 4 0 4 0 8 0 4 5 7 20
Neighs:       158427.0 ave      230672 max           0 min
Histogram: 4 2 2 0 5 3 4 4 12 16

Total # of neighbors = 8238218
Ave neighs/atom = 28.530526
Neighbor list builds = 0
Dangerous builds = 0
The dot product: -1.36524237011771e-07
Setting atom values ...
  1 settings made for x
  1 settings made for y
  1 settings made for z
Setting up cg style minimization ...
  Unit style    : metal
  Current step  : 4289
Per MPI rank memory allocation (min/avg/max) = 5.465 | 6.344 | 6.728 Mbytes
Step PotEng KinEng TotEng v_fx v_fy v_fz 
    4289     -1152449            0     -1152449 -0.0036049294 0.0045808585 0.0051204885 
    4447     -1152449            0     -1152449 -2.907915e-05 -1.2822957e-05 3.7454129e-05 
Loop time of 3.55812 on 52 procs for 158 steps with 288751 atoms

99.9% CPU use with 52 MPI tasks x 1 OpenMP threads

Minimization stats:
  Stopping criterion = linesearch alpha is zero
  Energy initial, next-to-last, final = 
     -1152448.99879553  -1152449.00044434  -1152449.00044434
  Force two-norm initial, final = 0.17462945 0.00030747989
  Force max component initial, final = 0.14007058 6.2713481e-05
  Final line search alpha, max atom move = 0.125 7.8391851e-06
  Iterations, force evaluations = 158 321

MPI task timing breakdown:
Section |  min time  |  avg time  |  max time  |%varavg| %total
---------------------------------------------------------------
Pair    | 0.91676    | 2.5668     | 3.3493     |  44.0 | 72.14
Neigh   | 0          | 0          | 0          |   0.0 |  0.00
Comm    | 0.054687   | 0.57871    | 1.8559     |  68.7 | 16.26
Output  | 0          | 0          | 0          |   0.0 |  0.00
Modify  | 5.1455e-05 | 0.0054454  | 0.0115     |   3.4 |  0.15
Other   |            | 0.4072     |            |       | 11.44

Nlocal:        5552.90 ave        7913 max           0 min
Histogram: 4 2 2 0 2 6 4 1 14 17
Nghost:        6213.35 ave        8770 max         412 min
Histogram: 4 0 4 0 8 0 4 5 7 20
Neighs:       158427.0 ave      230708 max           0 min
Histogram: 4 2 2 0 5 3 4 4 12 16

Total # of neighbors = 8238216
Ave neighs/atom = 28.530519
Neighbor list builds = 0
Dangerous builds = 0
The dot product: 2.72526478578849e-07
Setting atom values ...
  1 settings made for x
  1 settings made for y
  1 settings made for z
Setting up cg style minimization ...
  Unit style    : metal
  Current step  : 4447
Per MPI rank memory allocation (min/avg/max) = 5.465 | 6.344 | 6.728 Mbytes
Step PotEng KinEng TotEng v_fx v_fy v_fz 
    4447     -1152449            0     -1152449 -0.0018881454 0.0025435934 0.0026238115 
    4663     -1152449            0     -1152449 -3.9625465e-06 -1.8006535e-06 4.986707e-06 
Loop time of 4.7825 on 52 procs for 216 steps with 288751 atoms

99.9% CPU use with 52 MPI tasks x 1 OpenMP threads

Minimization stats:
  Stopping criterion = linesearch alpha is zero
  Energy initial, next-to-last, final = 
     -1152448.96643841  -1152448.96809688  -1152448.96809688
  Force two-norm initial, final = 0.17543103 7.3184103e-05
  Force max component initial, final = 0.14189779 9.2907819e-06
  Final line search alpha, max atom move = 0.5 4.6453909e-06
  Iterations, force evaluations = 216 433

MPI task timing breakdown:
Section |  min time  |  avg time  |  max time  |%varavg| %total
---------------------------------------------------------------
Pair    | 1.2163     | 3.4432     | 4.512      |  51.4 | 72.00
Neigh   | 0          | 0          | 0          |   0.0 |  0.00
Comm    | 0.065199   | 0.77169    | 2.4488     |  79.0 | 16.14
Output  | 0          | 0          | 0          |   0.0 |  0.00
Modify  | 6.9016e-05 | 0.0072604  | 0.015389   |   3.9 |  0.15
Other   |            | 0.5603     |            |       | 11.72

Nlocal:        5552.90 ave        7913 max           0 min
Histogram: 4 2 2 0 2 6 4 1 14 17
Nghost:        6213.35 ave        8770 max         412 min
Histogram: 4 0 4 0 8 0 4 5 7 20
Neighs:       158427.0 ave      230711 max           0 min
Histogram: 4 2 2 0 5 3 4 4 12 16

Total # of neighbors = 8238218
Ave neighs/atom = 28.530526
Neighbor list builds = 0
Dangerous builds = 0
The dot product: 3.43754586607407e-08
Setting atom values ...
  1 settings made for x
  1 settings made for y
  1 settings made for z
Setting up cg style minimization ...
  Unit style    : metal
  Current step  : 4663
Per MPI rank memory allocation (min/avg/max) = 5.465 | 6.344 | 6.728 Mbytes
Step PotEng KinEng TotEng v_fx v_fy v_fz 
    4663   -1152448.9            0   -1152448.9 -0.00037176003 0.0013246299 0.00056316416 
    4885   -1152448.9            0   -1152448.9 -1.1842793e-05 -2.0733654e-06 1.4837507e-05 
Loop time of 4.91927 on 52 procs for 222 steps with 288751 atoms

99.9% CPU use with 52 MPI tasks x 1 OpenMP threads

Minimization stats:
  Stopping criterion = linesearch alpha is zero
  Energy initial, next-to-last, final = 
      -1152448.9331167   -1152448.9348318   -1152448.9348318
  Force two-norm initial, final = 0.17630667 6.6595474e-05
  Force max component initial, final = 0.14363928 1.4837507e-05
  Final line search alpha, max atom move = 0.5 7.4187537e-06
  Iterations, force evaluations = 222 445

MPI task timing breakdown:
Section |  min time  |  avg time  |  max time  |%varavg| %total
---------------------------------------------------------------
Pair    | 1.2689     | 3.5465     | 4.6451     |  51.9 | 72.09
Neigh   | 0          | 0          | 0          |   0.0 |  0.00
Comm    | 0.068213   | 0.79333    | 2.5122     |  79.9 | 16.13
Output  | 0          | 0          | 0          |   0.0 |  0.00
Modify  | 7.2382e-05 | 0.007539   | 0.016007   |   4.0 |  0.15
Other   |            | 0.5719     |            |       | 11.63

Nlocal:        5552.90 ave        7911 max           0 min
Histogram: 4 2 2 0 2 6 4 0 15 17
Nghost:        6213.35 ave        8770 max         412 min
Histogram: 4 0 4 0 8 0 4 5 7 20
Neighs:       158427.0 ave      230650 max           0 min
Histogram: 4 2 2 0 5 3 4 4 12 16

Total # of neighbors = 8238215
Ave neighs/atom = 28.530516
Neighbor list builds = 0
Dangerous builds = 0
The dot product: 9.89904264904041e-08
Setting atom values ...
  1 settings made for x
  1 settings made for y
  1 settings made for z
Setting up cg style minimization ...
  Unit style    : metal
  Current step  : 4885
Per MPI rank memory allocation (min/avg/max) = 5.465 | 6.344 | 6.728 Mbytes
Step PotEng KinEng TotEng v_fx v_fy v_fz 
    4885   -1152448.9            0   -1152448.9   0.00101626 0.00066783377 -0.0012161591 
    5000   -1152448.9            0   -1152448.9 -8.2443942e-05 -2.2436213e-05 0.00010083571 
    5049   -1152448.9            0   -1152448.9 6.0171716e-05 7.4475522e-06 -7.4206672e-05 
Loop time of 3.64818 on 52 procs for 164 steps with 288751 atoms

99.9% CPU use with 52 MPI tasks x 1 OpenMP threads

Minimization stats:
  Stopping criterion = energy tolerance
  Energy initial, next-to-last, final = 
     -1152448.89897992  -1152448.90061788  -1152448.90061788
  Force two-norm initial, final = 0.17703519 0.00029490955
  Force max component initial, final = 0.14506995 7.4206672e-05
  Final line search alpha, max atom move = 1.0000000 7.4206672e-05
  Iterations, force evaluations = 164 328

MPI task timing breakdown:
Section |  min time  |  avg time  |  max time  |%varavg| %total
---------------------------------------------------------------
Pair    | 0.9223     | 2.6122     | 3.4188     |  44.6 | 71.60
Neigh   | 0          | 0          | 0          |   0.0 |  0.00
Comm    | 0.053223   | 0.58691    | 1.854      |  68.1 | 16.09
Output  | 0.00014043 | 0.00014439 | 0.00029804 |   0.0 |  0.00
Modify  | 5.613e-05  | 0.0055061  | 0.011663   |   3.4 |  0.15
Other   |            | 0.4435     |            |       | 12.16

Nlocal:        5552.90 ave        7912 max           0 min
Histogram: 4 2 2 0 2 6 4 0 15 17
Nghost:        6213.29 ave        8770 max         412 min
Histogram: 4 0 4 0 8 0 4 5 7 20
Neighs:       158427.0 ave      230687 max           0 min
Histogram: 4 2 2 0 5 3 4 4 12 16

Total # of neighbors = 8238214
Ave neighs/atom = 28.530512
Neighbor list builds = 0
Dangerous builds = 0
The dot product: -4.17160927203929e-07
Setting atom values ...
  1 settings made for x
  1 settings made for y
  1 settings made for z
Setting up cg style minimization ...
  Unit style    : metal
  Current step  : 5049
Per MPI rank memory allocation (min/avg/max) = 5.465 | 6.344 | 6.728 Mbytes
Step PotEng KinEng TotEng v_fx v_fy v_fz 
    5049   -1152448.9            0   -1152448.9  0.003586454 0.00028793698 -0.0043676545 
    5220   -1152448.9            0   -1152448.9 3.6050505e-05 5.846232e-06 -4.3702592e-05 
Loop time of 3.82566 on 52 procs for 171 steps with 288751 atoms

99.9% CPU use with 52 MPI tasks x 1 OpenMP threads

Minimization stats:
  Stopping criterion = energy tolerance
  Energy initial, next-to-last, final = 
     -1152448.86373993  -1152448.86535003  -1152448.86535003
  Force two-norm initial, final = 0.17829547 0.00021262364
  Force max component initial, final = 0.14678769 4.3702592e-05
  Final line search alpha, max atom move = 1.0000000 4.3702592e-05
  Iterations, force evaluations = 171 342

MPI task timing breakdown:
Section |  min time  |  avg time  |  max time  |%varavg| %total
---------------------------------------------------------------
Pair    | 0.97678    | 2.7311     | 3.5902     |  45.6 | 71.39
Neigh   | 0          | 0          | 0          |   0.0 |  0.00
Comm    | 0.055277   | 0.61554    | 1.9337     |  69.5 | 16.09
Output  | 0          | 0          | 0          |   0.0 |  0.00
Modify  | 5.7713e-05 | 0.005797   | 0.012233   |   3.5 |  0.15
Other   |            | 0.4732     |            |       | 12.37

Nlocal:        5552.90 ave        7911 max           0 min
Histogram: 4 2 2 0 2 6 4 0 15 17
Nghost:        6213.27 ave        8770 max         412 min
Histogram: 4 0 4 0 8 0 4 5 7 20
Neighs:       158427.0 ave      230669 max           0 min
Histogram: 4 2 2 0 5 3 4 4 12 16

Total # of neighbors = 8238214
Ave neighs/atom = 28.530512
Neighbor list builds = 0
Dangerous builds = 0
The dot product: -2.01909699492124e-07
Setting atom values ...
  1 settings made for x
  1 settings made for y
  1 settings made for z
Setting up cg style minimization ...
  Unit style    : metal
  Current step  : 5220
Per MPI rank memory allocation (min/avg/max) = 5.465 | 6.344 | 6.728 Mbytes
Step PotEng KinEng TotEng v_fx v_fy v_fz 
    5220   -1152448.8            0   -1152448.8 0.0060873536 0.00022725347 -0.007344225 
    5405   -1152448.8            0   -1152448.8 -1.386112e-05 -3.1592309e-06 1.6543612e-05 
Loop time of 4.13614 on 52 procs for 185 steps with 288751 atoms

99.9% CPU use with 52 MPI tasks x 1 OpenMP threads

Minimization stats:
  Stopping criterion = linesearch alpha is zero
  Energy initial, next-to-last, final = 
     -1152448.82742703  -1152448.82914003  -1152448.82914003
  Force two-norm initial, final = 0.1795936 0.00024494824
  Force max component initial, final = 0.14839447 1.6543612e-05
  Final line search alpha, max atom move = 0.125 2.0679515e-06
  Iterations, force evaluations = 185 375

MPI task timing breakdown:
Section |  min time  |  avg time  |  max time  |%varavg| %total
---------------------------------------------------------------
Pair    | 1.046      | 2.9718     | 3.9087     |  47.9 | 71.85
Neigh   | 0          | 0          | 0          |   0.0 |  0.00
Comm    | 0.056132   | 0.66644    | 2.1014     |  73.0 | 16.11
Output  | 0          | 0          | 0          |   0.0 |  0.00
Modify  | 6.1405e-05 | 0.0062765  | 0.013269   |   3.7 |  0.15
Other   |            | 0.4917     |            |       | 11.89

Nlocal:        5552.90 ave        7910 max           0 min
Histogram: 4 2 2 0 2 6 4 0 15 17
Nghost:        6213.23 ave        8770 max         412 min
Histogram: 4 0 4 0 8 0 4 5 7 20
Neighs:       158427.0 ave      230633 max           0 min
Histogram: 4 2 2 0 5 3 4 4 12 16

Total # of neighbors = 8238216
Ave neighs/atom = 28.530519
Neighbor list builds = 0
Dangerous builds = 0
The dot product: 7.08296600333882e-08
Setting atom values ...
  1 settings made for x
  1 settings made for y
  1 settings made for z
Setting up cg style minimization ...
  Unit style    : metal
  Current step  : 5405
Per MPI rank memory allocation (min/avg/max) = 5.465 | 6.344 | 6.728 Mbytes
Step PotEng KinEng TotEng v_fx v_fy v_fz 
    5405   -1152448.8            0   -1152448.8 0.0078018037 0.00047297159 -0.0093031563 
    5594   -1152448.8            0   -1152448.8 6.0004742e-06 1.0795998e-08 -7.1793254e-06 
Loop time of 4.19897 on 52 procs for 189 steps with 288751 atoms

99.9% CPU use with 52 MPI tasks x 1 OpenMP threads

Minimization stats:
  Stopping criterion = energy tolerance
  Energy initial, next-to-last, final = 
     -1152448.79040103  -1152448.79202501  -1152448.79202501
  Force two-norm initial, final = 0.18014108 0.00013406431
  Force max component initial, final = 0.14940908 1.0717962e-05
  Final line search alpha, max atom move = 1.0000000 1.0717962e-05
  Iterations, force evaluations = 189 380

MPI task timing breakdown:
Section |  min time  |  avg time  |  max time  |%varavg| %total
---------------------------------------------------------------
Pair    | 1.0815     | 3.0349     | 3.9614     |  48.1 | 72.28
Neigh   | 0          | 0          | 0          |   0.0 |  0.00
Comm    | 0.064334   | 0.67782    | 2.16       |  74.6 | 16.14
Output  | 0          | 0          | 0          |   0.0 |  0.00
Modify  | 6.2203e-05 | 0.0064124  | 0.01411    |   3.7 |  0.15
Other   |            | 0.4798     |            |       | 11.43

Nlocal:        5552.90 ave        7909 max           0 min
Histogram: 4 2 2 0 2 6 4 0 15 17
Nghost:        6213.23 ave        8770 max         412 min
Histogram: 4 0 4 0 8 0 4 5 7 20
Neighs:       158427.0 ave      230583 max           0 min
Histogram: 4 2 2 0 5 3 4 4 12 16

Total # of neighbors = 8238213
Ave neighs/atom = 28.530509
Neighbor list builds = 0
Dangerous builds = 0
The dot product: -2.08086699072149e-08
Setting atom values ...
  1 settings made for x
  1 settings made for y
  1 settings made for z
Setting up cg style minimization ...
  Unit style    : metal
  Current step  : 5594
Per MPI rank memory allocation (min/avg/max) = 5.465 | 6.344 | 6.728 Mbytes
Step PotEng KinEng TotEng v_fx v_fy v_fz 
    5594   -1152448.8            0   -1152448.8  0.010829124 0.0010287893 -0.012797821 
    5755   -1152448.8            0   -1152448.8 2.4608562e-06 1.8641475e-06 -2.7953893e-06 
Loop time of 3.55333 on 52 procs for 161 steps with 288751 atoms

99.9% CPU use with 52 MPI tasks x 1 OpenMP threads

Minimization stats:
  Stopping criterion = energy tolerance
  Energy initial, next-to-last, final = 
     -1152448.75226926  -1152448.75389814  -1152448.75389814
  Force two-norm initial, final = 0.18117708 0.00028037983
  Force max component initial, final = 0.15077789 2.1612960e-05
  Final line search alpha, max atom move = 1.0000000 2.1612960e-05
  Iterations, force evaluations = 161 322

MPI task timing breakdown:
Section |  min time  |  avg time  |  max time  |%varavg| %total
---------------------------------------------------------------
Pair    | 0.91742    | 2.56       | 3.3544     |  44.0 | 72.04
Neigh   | 0          | 0          | 0          |   0.0 |  0.00
Comm    | 0.049807   | 0.56958    | 1.7941     |  67.7 | 16.03
Output  | 0          | 0          | 0          |   0.0 |  0.00
Modify  | 5.4938e-05 | 0.0054421  | 0.011447   |   3.4 |  0.15
Other   |            | 0.4184     |            |       | 11.77

Nlocal:        5552.90 ave        7908 max           0 min
Histogram: 4 2 2 0 2 6 4 0 15 17
Nghost:        6213.23 ave        8770 max         412 min
Histogram: 4 0 4 0 8 0 4 5 7 20
Neighs:       158427.0 ave      230562 max           0 min
Histogram: 4 2 2 0 5 3 4 4 12 16

Total # of neighbors = 8238212
Ave neighs/atom = 28.530506
Neighbor list builds = 0
Dangerous builds = 0
The dot product: -5.84498360257927e-09
Setting atom values ...
  1 settings made for x
  1 settings made for y
  1 settings made for z
Setting up cg style minimization ...
  Unit style    : metal
  Current step  : 5755
Per MPI rank memory allocation (min/avg/max) = 5.465 | 6.344 | 6.728 Mbytes
Step PotEng KinEng TotEng v_fx v_fy v_fz 
    5755   -1152448.7            0   -1152448.7  0.013654538 0.0018838158 -0.016031417 
    5970   -1152448.7            0   -1152448.7 -1.326998e-05 -3.779595e-06 1.5442846e-05 
Loop time of 4.75782 on 52 procs for 215 steps with 288751 atoms

99.9% CPU use with 52 MPI tasks x 1 OpenMP threads

Minimization stats:
  Stopping criterion = linesearch alpha is zero
  Energy initial, next-to-last, final = 
      -1152448.7132047  -1152448.71499442  -1152448.71499442
  Force two-norm initial, final = 0.18167313 9.0631387e-05
  Force max component initial, final = 0.15186093 2.3074550e-05
  Final line search alpha, max atom move = 0.5 1.1537275e-05
  Iterations, force evaluations = 215 431

MPI task timing breakdown:
Section |  min time  |  avg time  |  max time  |%varavg| %total
---------------------------------------------------------------
Pair    | 1.2105     | 3.4304     | 4.4908     |  51.2 | 72.10
Neigh   | 0          | 0          | 0          |   0.0 |  0.00
Comm    | 0.069866   | 0.76505    | 2.4278     |  79.0 | 16.08
Output  | 0          | 0          | 0          |   0.0 |  0.00
Modify  | 7.1513e-05 | 0.0072359  | 0.0153     |   3.9 |  0.15
Other   |            | 0.5551     |            |       | 11.67

Nlocal:        5552.90 ave        7906 max           0 min
Histogram: 4 2 2 0 2 6 4 0 15 17
Nghost:        6213.17 ave        8770 max         412 min
Histogram: 4 0 4 0 8 0 4 5 7 20
Neighs:       158427.0 ave      230481 max           0 min
Histogram: 4 2 2 0 5 3 4 4 12 16

Total # of neighbors = 8238212
Ave neighs/atom = 28.530506
Neighbor list builds = 0
Dangerous builds = 0
The dot product: 2.03574905701739e-08
Setting atom values ...
  1 settings made for x
  1 settings made for y
  1 settings made for z
Setting up cg style minimization ...
  Unit style    : metal
  Current step  : 5970
Per MPI rank memory allocation (min/avg/max) = 5.465 | 6.344 | 6.728 Mbytes
Step PotEng KinEng TotEng v_fx v_fy v_fz 
    5970   -1152448.7            0   -1152448.7  0.015518977 0.0025526013 -0.018141822 
    6000   -1152448.7            0   -1152448.7 0.00090987438 0.00017434922 -0.0010618707 
    6116   -1152448.7            0   -1152448.7 8.5515559e-07 -4.3720895e-06 -1.3251035e-06 
Loop time of 3.25669 on 52 procs for 146 steps with 288751 atoms

99.9% CPU use with 52 MPI tasks x 1 OpenMP threads

Minimization stats:
  Stopping criterion = linesearch alpha is zero
  Energy initial, next-to-last, final = 
     -1152448.67383059  -1152448.67557409  -1152448.67557409
  Force two-norm initial, final = 0.18055251 0.00015896675
  Force max component initial, final = 0.15188149 2.1639171e-05
  Final line search alpha, max atom move = 0.25 5.4097929e-06
  Iterations, force evaluations = 146 295

MPI task timing breakdown:
Section |  min time  |  avg time  |  max time  |%varavg| %total
---------------------------------------------------------------
Pair    | 0.82437    | 2.3418     | 3.077      |  42.5 | 71.91
Neigh   | 0          | 0          | 0          |   0.0 |  0.00
Comm    | 0.0445     | 0.52534    | 1.6566     |  64.9 | 16.13
Output  | 0.00013269 | 0.00013678 | 0.00028303 |   0.0 |  0.00
Modify  | 4.9213e-05 | 0.0049454  | 0.010483   |   3.2 |  0.15
Other   |            | 0.3845     |            |       | 11.81

Nlocal:        5552.90 ave        7906 max           0 min
Histogram: 4 2 2 0 2 6 4 0 15 17
Nghost:        6213.13 ave        8770 max         412 min
Histogram: 4 0 4 0 8 0 4 5 7 20
Neighs:       158427.0 ave      230476 max           0 min
Histogram: 4 2 2 0 5 3 4 4 12 16

Total # of neighbors = 8238205
Ave neighs/atom = 28.530481
Neighbor list builds = 0
Dangerous builds = 0
The dot product: 5.18959192062752e-09
Setting atom values ...
  1 settings made for x
  1 settings made for y
  1 settings made for z
Setting up cg style minimization ...
  Unit style    : metal
  Current step  : 6116
Per MPI rank memory allocation (min/avg/max) = 5.465 | 6.344 | 6.728 Mbytes
Step PotEng KinEng TotEng v_fx v_fy v_fz 
    6116   -1152448.6            0   -1152448.6  0.018308564 0.0037672714 -0.021358413 
    6300   -1152448.6            0   -1152448.6 4.5806475e-06 -4.74863e-06 -5.7675513e-06 
Loop time of 4.09551 on 52 procs for 184 steps with 288751 atoms

99.9% CPU use with 52 MPI tasks x 1 OpenMP threads

Minimization stats:
  Stopping criterion = linesearch alpha is zero
  Energy initial, next-to-last, final = 
     -1152448.63407846  -1152448.63606541  -1152448.63606541
  Force two-norm initial, final = 0.179656 0.00021361852
  Force max component initial, final = 0.15168925 2.0474788e-05
  Final line search alpha, max atom move = 0.25 5.1186969e-06
  Iterations, force evaluations = 184 371

MPI task timing breakdown:
Section |  min time  |  avg time  |  max time  |%varavg| %total
---------------------------------------------------------------
Pair    | 1.0625     | 2.9588     | 3.8693     |  47.2 | 72.24
Neigh   | 0          | 0          | 0          |   0.0 |  0.00
Comm    | 0.057582   | 0.66233    | 2.1199     |  73.2 | 16.17
Output  | 0          | 0          | 0          |   0.0 |  0.00
Modify  | 5.9708e-05 | 0.0063218  | 0.013562   |   3.7 |  0.15
Other   |            | 0.4681     |            |       | 11.43

Nlocal:        5552.90 ave        7905 max           0 min
Histogram: 4 2 2 0 2 6 4 0 15 17
Nghost:        6213.13 ave        8770 max         412 min
Histogram: 4 0 4 0 8 0 4 5 7 20
Neighs:       158427.0 ave      230446 max           0 min
Histogram: 4 2 2 0 5 3 4 4 12 16

Total # of neighbors = 8238200
Ave neighs/atom = 28.530464
Neighbor list builds = 0
Dangerous builds = 0
The dot product: 1.2516463932618e-08
Setting atom values ...
  1 settings made for x
  1 settings made for y
  1 settings made for z
Setting up cg style minimization ...
  Unit style    : metal
  Current step  : 6300
Per MPI rank memory allocation (min/avg/max) = 5.465 | 6.344 | 6.728 Mbytes
Step PotEng KinEng TotEng v_fx v_fy v_fz 
    6300   -1152448.6            0   -1152448.6  0.020941461 0.0014076308 -0.024689482 
    6514   -1152448.6            0   -1152448.6 7.1677256e-06 -3.0203268e-07 -8.5115673e-06 
Loop time of 4.74587 on 52 procs for 214 steps with 288751 atoms

99.9% CPU use with 52 MPI tasks x 1 OpenMP threads

Minimization stats:
  Stopping criterion = linesearch alpha is zero
  Energy initial, next-to-last, final = 
     -1152448.59530652  -1152448.59744586  -1152448.59744586
  Force two-norm initial, final = 0.17777197 9.0896078e-05
  Force max component initial, final = 0.14919587 8.5115673e-06
  Final line search alpha, max atom move = 0.5 4.2557836e-06
  Iterations, force evaluations = 214 429

MPI task timing breakdown:
Section |  min time  |  avg time  |  max time  |%varavg| %total
---------------------------------------------------------------
Pair    | 1.2099     | 3.4062     | 4.4721     |  50.9 | 71.77
Neigh   | 0          | 0          | 0          |   0.0 |  0.00
Comm    | 0.068194   | 0.76213    | 2.4075     |  78.2 | 16.06
Output  | 0          | 0          | 0          |   0.0 |  0.00
Modify  | 7.0354e-05 | 0.0071904  | 0.015213   |   3.9 |  0.15
Other   |            | 0.5704     |            |       | 12.02

Nlocal:        5552.90 ave        7903 max           0 min
Histogram: 4 2 2 0 2 6 4 0 15 17
Nghost:        6213.13 ave        8770 max         412 min
Histogram: 4 0 4 0 8 0 4 5 7 20
Neighs:       158427.0 ave      230368 max           0 min
Histogram: 4 2 2 0 5 3 4 4 12 16

Total # of neighbors = 8238205
Ave neighs/atom = 28.530481
Neighbor list builds = 0
Dangerous builds = 0
The dot product: 7.49812334765409e-09
Setting atom values ...
  1 settings made for x
  1 settings made for y
  1 settings made for z
Setting up cg style minimization ...
  Unit style    : metal
  Current step  : 6514
Per MPI rank memory allocation (min/avg/max) = 5.465 | 6.344 | 6.728 Mbytes
Step PotEng KinEng TotEng v_fx v_fy v_fz 
    6514   -1152448.6            0   -1152448.6  0.022036605 -0.00050286926 -0.026180679 
    6791   -1152448.6            0   -1152448.6 3.1839954e-07 -7.3346416e-08 -3.8367823e-07 
Loop time of 6.13738 on 52 procs for 277 steps with 288751 atoms

99.9% CPU use with 52 MPI tasks x 1 OpenMP threads

Minimization stats:
  Stopping criterion = linesearch alpha is zero
  Energy initial, next-to-last, final = 
     -1152448.55834082  -1152448.57009284  -1152448.57009284
  Force two-norm initial, final = 0.18456408 1.7938712e-05
  Force max component initial, final = 0.14666028 4.6320618e-07
  Final line search alpha, max atom move = 0.5 2.3160309e-07
  Iterations, force evaluations = 277 555

MPI task timing breakdown:
Section |  min time  |  avg time  |  max time  |%varavg| %total
---------------------------------------------------------------
Pair    | 1.5924     | 4.4248     | 5.7819     |  57.7 | 72.10
Neigh   | 1.8736e-05 | 0.0057838  | 0.0085021  |   3.2 |  0.09
Comm    | 0.090018   | 0.98782    | 3.1342     |  89.5 | 16.10
Output  | 0          | 0          | 0          |   0.0 |  0.00
Modify  | 8.3832e-05 | 0.0093741  | 0.019856   |   4.5 |  0.15
Other   |            | 0.7096     |            |       | 11.56

Nlocal:        5552.90 ave        7902 max           0 min
Histogram: 4 2 2 0 2 6 4 0 15 17
Nghost:        6213.23 ave        8770 max         412 min
Histogram: 4 0 4 0 8 0 4 5 7 20
Neighs:       158427.0 ave      230347 max           0 min
Histogram: 4 2 2 0 5 3 4 4 12 16

Total # of neighbors = 8238195
Ave neighs/atom = 28.530447
Neighbor list builds = 1
Dangerous builds = 0
The dot product: -6.80143740081269e-09
Setting atom values ...
  1 settings made for x
  1 settings made for y
  1 settings made for z
Setting up cg style minimization ...
  Unit style    : metal
  Current step  : 6791
Per MPI rank memory allocation (min/avg/max) = 5.465 | 6.344 | 6.728 Mbytes
Step PotEng KinEng TotEng v_fx v_fy v_fz 
    6791   -1152448.5            0   -1152448.5  0.014523188 0.0020525838 -0.016434295 
    7000   -1152448.5            0   -1152448.5 -0.0001333505 -1.1599079e-05 0.0001515139 
    7146   -1152448.5            0   -1152448.5 -3.9044515e-05 -4.5512456e-06 4.4264545e-05 
Loop time of 7.83868 on 52 procs for 355 steps with 288751 atoms

99.9% CPU use with 52 MPI tasks x 1 OpenMP threads

Minimization stats:
  Stopping criterion = energy tolerance
  Energy initial, next-to-last, final = 
[...]
Nghost:        6213.60 ave        8770 max         412 min
Histogram: 4 0 4 0 8 0 4 5 7 20
Neighs:       158426.0 ave      230877 max           0 min
Histogram: 4 2 2 0 5 3 4 4 12 16

Total # of neighbors = 8238174
Ave neighs/atom = 28.530374
Neighbor list builds = 0
Dangerous builds = 0
The dot product: -7.50700845661634e-09
Setting atom values ...
  1 settings made for x
  1 settings made for y
  1 settings made for z
Setting up cg style minimization ...
  Unit style    : metal
  Current step  : 25812
Per MPI rank memory allocation (min/avg/max) = 5.465 | 6.344 | 6.728 Mbytes
Step PotEng KinEng TotEng v_fx v_fy v_fz 
   25812   -1152449.1            0   -1152449.1 -0.00090752536 0.0072731696 0.0096722958 
   25988   -1152449.1            0   -1152449.1 2.9040564e-06  2.63008e-06 1.1767781e-06 
Loop time of 3.93072 on 52 procs for 176 steps with 288751 atoms

99.9% CPU use with 52 MPI tasks x 1 OpenMP threads

Minimization stats:
  Stopping criterion = linesearch alpha is zero
  Energy initial, next-to-last, final = 
     -1152449.10684896  -1152449.10820809  -1152449.10820809
  Force two-norm initial, final = 0.16202841 0.00011081203
  Force max component initial, final = 0.094539656 2.2448556e-05
  Final line search alpha, max atom move = 0.5 1.1224278e-05
  Iterations, force evaluations = 176 353

MPI task timing breakdown:
Section |  min time  |  avg time  |  max time  |%varavg| %total
---------------------------------------------------------------
Pair    | 1.013      | 2.8071     | 3.7141     |  46.0 | 71.41
Neigh   | 0          | 0          | 0          |   0.0 |  0.00
Comm    | 0.053177   | 0.62765    | 1.9606     |  70.3 | 15.97
Output  | 0          | 0          | 0          |   0.0 |  0.00
Modify  | 5.5355e-05 | 0.0059746  | 0.012631   |   3.6 |  0.15
Other   |            | 0.49       |            |       | 12.47

Nlocal:        5552.90 ave        7921 max           0 min
Histogram: 4 2 2 0 3 5 4 2 13 17
Nghost:        6213.60 ave        8770 max         412 min
Histogram: 4 0 4 0 8 0 4 5 7 20
Neighs:       158426.0 ave      230877 max           0 min
Histogram: 4 2 2 0 5 3 4 4 12 16

Total # of neighbors = 8238172
Ave neighs/atom = 28.530367
Neighbor list builds = 0
Dangerous builds = 0
The dot product: 8.42394857650613e-09
Setting atom values ...
  1 settings made for x
  1 settings made for y
  1 settings made for z
Setting up cg style minimization ...
  Unit style    : metal
  Current step  : 25988
Per MPI rank memory allocation (min/avg/max) = 5.465 | 6.344 | 6.728 Mbytes
Step PotEng KinEng TotEng v_fx v_fy v_fz 
   25988   -1152449.1            0   -1152449.1 -0.0010623652 0.0061405297 0.0083877396 
   26000   -1152449.1            0   -1152449.1 0.00068450853 0.00051224792 0.00014475785 
   26158   -1152449.1            0   -1152449.1 1.0190298e-05 -8.7057275e-06 -1.8125177e-05 
Loop time of 3.78672 on 52 procs for 170 steps with 288751 atoms

99.9% CPU use with 52 MPI tasks x 1 OpenMP threads

Minimization stats:
  Stopping criterion = energy tolerance
  Energy initial, next-to-last, final = 
     -1152449.08705905  -1152449.08845546  -1152449.08845546
  Force two-norm initial, final = 0.16180879 0.00015818929
  Force max component initial, final = 0.095373582 3.4735912e-05
  Final line search alpha, max atom move = 1.0000000 3.4735912e-05
  Iterations, force evaluations = 170 340

MPI task timing breakdown:
Section |  min time  |  avg time  |  max time  |%varavg| %total
---------------------------------------------------------------
Pair    | 0.9763     | 2.7086     | 3.5688     |  45.2 | 71.53
Neigh   | 0          | 0          | 0          |   0.0 |  0.00
Comm    | 0.058156   | 0.60981    | 1.9311     |  69.2 | 16.10
Output  | 0.00013976 | 0.00014409 | 0.00031759 |   0.0 |  0.00
Modify  | 5.6657e-05 | 0.005753   | 0.01212    |   3.5 |  0.15
Other   |            | 0.4624     |            |       | 12.21

Nlocal:        5552.90 ave        7921 max           0 min
Histogram: 4 2 2 0 3 5 4 2 13 17
Nghost:        6213.60 ave        8770 max         412 min
Histogram: 4 0 4 0 8 0 4 5 7 20
Neighs:       158426.0 ave      230892 max           0 min
Histogram: 4 2 2 0 5 3 4 4 12 16

Total # of neighbors = 8238172
Ave neighs/atom = 28.530367
Neighbor list builds = 0
Dangerous builds = 0
The dot product: -1.81270387717875e-08
Setting atom values ...
  1 settings made for x
  1 settings made for y
  1 settings made for z
Setting up cg style minimization ...
  Unit style    : metal
  Current step  : 26158
Per MPI rank memory allocation (min/avg/max) = 5.465 | 6.344 | 6.728 Mbytes
Step PotEng KinEng TotEng v_fx v_fy v_fz 
   26158   -1152449.1            0   -1152449.1 -0.0011751056  0.005187336 0.0072925891 
   26356   -1152449.1            0   -1152449.1 2.5105165e-06 2.2612908e-06 1.0102834e-06 
Loop time of 4.45012 on 52 procs for 198 steps with 288751 atoms

99.9% CPU use with 52 MPI tasks x 1 OpenMP threads

Minimization stats:
  Stopping criterion = linesearch alpha is zero
  Energy initial, next-to-last, final = 
     -1152449.06626219  -1152449.06764824  -1152449.06764824
  Force two-norm initial, final = 0.16179548 6.9028072e-05
  Force max component initial, final = 0.09608583 9.3048681e-06
  Final line search alpha, max atom move = 0.5 4.6524341e-06
  Iterations, force evaluations = 198 397

MPI task timing breakdown:
Section |  min time  |  avg time  |  max time  |%varavg| %total
---------------------------------------------------------------
Pair    | 1.1387     | 3.156      | 4.1806     |  48.8 | 70.92
Neigh   | 0          | 0          | 0          |   0.0 |  0.00
Comm    | 0.060647   | 0.71154    | 2.2122     |  74.1 | 15.99
Output  | 0          | 0          | 0          |   0.0 |  0.00
Modify  | 6.2748e-05 | 0.0067184  | 0.014135   |   3.8 |  0.15
Other   |            | 0.5759     |            |       | 12.94

Nlocal:        5552.90 ave        7921 max           0 min
Histogram: 4 2 2 0 3 5 4 2 13 17
Nghost:        6213.60 ave        8770 max         412 min
Histogram: 4 0 4 0 8 0 4 5 7 20
Neighs:       158426.0 ave      230897 max           0 min
Histogram: 4 2 2 0 5 3 4 4 12 16

Total # of neighbors = 8238171
Ave neighs/atom = 28.530364
Neighbor list builds = 0
Dangerous builds = 0
The dot product: 6.96853522634202e-09
Setting atom values ...
  1 settings made for x
  1 settings made for y
  1 settings made for z
Setting up cg style minimization ...
  Unit style    : metal
  Current step  : 26356
Per MPI rank memory allocation (min/avg/max) = 5.465 | 6.344 | 6.728 Mbytes
Step PotEng KinEng TotEng v_fx v_fy v_fz 
   26356     -1152449            0     -1152449 -0.0011585791 0.0043049967 0.0061891391 
   26555     -1152449            0     -1152449 -1.8128058e-05 -6.1967365e-06 5.2878667e-06 
Loop time of 4.44638 on 52 procs for 199 steps with 288751 atoms

99.9% CPU use with 52 MPI tasks x 1 OpenMP threads

Minimization stats:
  Stopping criterion = linesearch alpha is zero
  Energy initial, next-to-last, final = 
     -1152449.04430517  -1152449.04565829  -1152449.04565829
  Force two-norm initial, final = 0.16193994 7.4885411e-05
  Force max component initial, final = 0.096812649 1.8128058e-05
  Final line search alpha, max atom move = 0.5 9.0640288e-06
  Iterations, force evaluations = 199 399

MPI task timing breakdown:
Section |  min time  |  avg time  |  max time  |%varavg| %total
---------------------------------------------------------------
Pair    | 1.1506     | 3.1763     | 4.1849     |  48.9 | 71.43
Neigh   | 0          | 0          | 0          |   0.0 |  0.00
Comm    | 0.067123   | 0.71661    | 2.255      |  74.6 | 16.12
Output  | 0          | 0          | 0          |   0.0 |  0.00
Modify  | 6.6075e-05 | 0.0067269  | 0.01426    |   3.8 |  0.15
Other   |            | 0.5468     |            |       | 12.30

Nlocal:        5552.90 ave        7920 max           0 min
Histogram: 4 2 2 0 2 6 4 2 13 17
Nghost:        6213.67 ave        8770 max         412 min
Histogram: 4 0 4 0 8 0 4 5 7 20
Neighs:       158426.0 ave      230872 max           0 min
Histogram: 4 2 2 0 5 3 4 4 12 16

Total # of neighbors = 8238170
Ave neighs/atom = 28.530360
Neighbor list builds = 0
Dangerous builds = 0
The dot product: -2.19377667349219e-08
Setting atom values ...
  1 settings made for x
  1 settings made for y
  1 settings made for z
Setting up cg style minimization ...
  Unit style    : metal
  Current step  : 26555
Per MPI rank memory allocation (min/avg/max) = 5.465 | 6.344 | 6.728 Mbytes
Step PotEng KinEng TotEng v_fx v_fy v_fz 
   26555     -1152449            0     -1152449 -0.00086583708 0.0035181037 0.0050034334 
   26749     -1152449            0     -1152449 -2.6197635e-06 -6.2662171e-07 1.0974276e-06 
Loop time of 4.31667 on 52 procs for 194 steps with 288751 atoms

99.9% CPU use with 52 MPI tasks x 1 OpenMP threads

Minimization stats:
  Stopping criterion = energy tolerance
  Energy initial, next-to-last, final = 
     -1152449.02104529  -1152449.02237784  -1152449.02237784
  Force two-norm initial, final = 0.16218827 8.5837068e-05
  Force max component initial, final = 0.097479198 1.0488045e-05
  Final line search alpha, max atom move = 1.0000000 1.0488045e-05
  Iterations, force evaluations = 194 388

MPI task timing breakdown:
Section |  min time  |  avg time  |  max time  |%varavg| %total
---------------------------------------------------------------
Pair    | 1.1123     | 3.0834     | 4.0774     |  48.2 | 71.43
Neigh   | 0          | 0          | 0          |   0.0 |  0.00
Comm    | 0.060505   | 0.69084    | 2.1676     |  73.5 | 16.00
Output  | 0          | 0          | 0          |   0.0 |  0.00
Modify  | 6.3545e-05 | 0.0065632  | 0.013893   |   3.7 |  0.15
Other   |            | 0.5359     |            |       | 12.41

Nlocal:        5552.90 ave        7920 max           0 min
Histogram: 4 2 2 0 2 6 4 2 13 17
Nghost:        6213.67 ave        8770 max         412 min
Histogram: 4 0 4 0 8 0 4 5 7 20
Neighs:       158426.0 ave      230866 max           0 min
Histogram: 4 2 2 0 5 3 4 4 12 16

Total # of neighbors = 8238171
Ave neighs/atom = 28.530364
Neighbor list builds = 0
Dangerous builds = 0
The dot product: -2.56239239846647e-09
Setting atom values ...
  1 settings made for x
  1 settings made for y
  1 settings made for z
Setting up cg style minimization ...
  Unit style    : metal
  Current step  : 26749
Per MPI rank memory allocation (min/avg/max) = 5.465 | 6.344 | 6.728 Mbytes
Step PotEng KinEng TotEng v_fx v_fy v_fz 
   26749     -1152449            0     -1152449 -0.00024352368 0.0028483995 0.0037255354 
   26953     -1152449            0     -1152449 4.9202829e-06 -1.345718e-06 -5.2033884e-06 
Loop time of 4.52557 on 52 procs for 204 steps with 288751 atoms

99.9% CPU use with 52 MPI tasks x 1 OpenMP threads

Minimization stats:
  Stopping criterion = linesearch alpha is zero
  Energy initial, next-to-last, final = 
     -1152448.99639367  -1152448.99770811  -1152448.99770811
  Force two-norm initial, final = 0.16261599 7.1041970e-05
  Force max component initial, final = 0.09807955 1.1318592e-05
  Final line search alpha, max atom move = 0.5 5.6592960e-06
  Iterations, force evaluations = 204 409

MPI task timing breakdown:
Section |  min time  |  avg time  |  max time  |%varavg| %total
---------------------------------------------------------------
Pair    | 1.1737     | 3.2487     | 4.2746     |  49.4 | 71.78
Neigh   | 0          | 0          | 0          |   0.0 |  0.00
Comm    | 0.061426   | 0.72858    | 2.2993     |  76.1 | 16.10
Output  | 0          | 0          | 0          |   0.0 |  0.00
Modify  | 6.7499e-05 | 0.0069104  | 0.014678   |   3.8 |  0.15
Other   |            | 0.5414     |            |       | 11.96

Nlocal:        5552.90 ave        7920 max           0 min
Histogram: 4 2 2 0 2 6 4 2 13 17
Nghost:        6213.71 ave        8770 max         412 min
Histogram: 4 0 4 0 8 0 4 5 7 20
Neighs:       158426.0 ave      230861 max           0 min
Histogram: 4 2 2 0 5 3 4 4 12 16

Total # of neighbors = 8238173
Ave neighs/atom = 28.530370
Neighbor list builds = 0
Dangerous builds = 0
The dot product: 2.24742340863445e-09
Setting atom values ...
  1 settings made for x
  1 settings made for y
  1 settings made for z
Setting up cg style minimization ...
  Unit style    : metal
  Current step  : 26953
Per MPI rank memory allocation (min/avg/max) = 5.465 | 6.344 | 6.728 Mbytes
Step PotEng KinEng TotEng v_fx v_fy v_fz 
   26953     -1152449            0     -1152449 0.00057604922 0.0022518903  0.002396339 
   27000     -1152449            0     -1152449 4.1853646e-05 -0.00012304223 -0.00018344849 
   27146     -1152449            0     -1152449 1.6012767e-06 6.8480042e-06 7.3950452e-06 
Loop time of 4.32297 on 52 procs for 193 steps with 288751 atoms

99.9% CPU use with 52 MPI tasks x 1 OpenMP threads

Minimization stats:
  Stopping criterion = energy tolerance
  Energy initial, next-to-last, final = 
     -1152448.97024966  -1152448.97154957  -1152448.97154957
  Force two-norm initial, final = 0.1632701 9.8500717e-05
  Force max component initial, final = 0.098674428 1.8311298e-05
  Final line search alpha, max atom move = 1.0000000 1.8311298e-05
  Iterations, force evaluations = 193 386

MPI task timing breakdown:
Section |  min time  |  avg time  |  max time  |%varavg| %total
---------------------------------------------------------------
Pair    | 1.1052     | 3.0721     | 4.0806     |  48.2 | 71.06
Neigh   | 0          | 0          | 0          |   0.0 |  0.00
Comm    | 0.059531   | 0.69352    | 2.1757     |  73.3 | 16.04
Output  | 0.0001437  | 0.00015472 | 0.00033681 |   0.0 |  0.00
Modify  | 6.3259e-05 | 0.0065192  | 0.013732   |   3.7 |  0.15
Other   |            | 0.5507     |            |       | 12.74

Nlocal:        5552.90 ave        7920 max           0 min
Histogram: 4 2 2 0 2 6 4 2 13 17
Nghost:        6213.67 ave        8770 max         412 min
Histogram: 4 0 4 0 8 0 4 5 7 20
Neighs:       158426.0 ave      230865 max           0 min
Histogram: 4 2 2 0 5 3 4 4 12 16

Total # of neighbors = 8238171
Ave neighs/atom = 28.530364
Neighbor list builds = 0
Dangerous builds = 0
The dot product: 6.99201217769939e-09
Setting atom values ...
  1 settings made for x
  1 settings made for y
  1 settings made for z
Setting up cg style minimization ...
  Unit style    : metal
  Current step  : 27146
Per MPI rank memory allocation (min/avg/max) = 5.465 | 6.344 | 6.728 Mbytes
Step PotEng KinEng TotEng v_fx v_fy v_fz 
   27146   -1152448.9            0   -1152448.9 0.0014203946 0.0017466728  0.001163014 
   27385   -1152448.9            0   -1152448.9 3.5399785e-07 -6.9876103e-07 -1.1251945e-06 
Loop time of 5.30878 on 52 procs for 239 steps with 288751 atoms

99.9% CPU use with 52 MPI tasks x 1 OpenMP threads

Minimization stats:
  Stopping criterion = linesearch alpha is zero
  Energy initial, next-to-last, final = 
     -1152448.94252208  -1152448.94381621  -1152448.94381621
  Force two-norm initial, final = 0.16415924 1.4859002e-05
  Force max component initial, final = 0.099249515 4.4042909e-06
  Final line search alpha, max atom move = 0.5 2.2021455e-06
  Iterations, force evaluations = 239 479

MPI task timing breakdown:
Section |  min time  |  avg time  |  max time  |%varavg| %total
---------------------------------------------------------------
Pair    | 1.3738     | 3.8056     | 5.0142     |  53.5 | 71.68
Neigh   | 0          | 0          | 0          |   0.0 |  0.00
Comm    | 0.07229    | 0.85299    | 2.6863     |  81.9 | 16.07
Output  | 0          | 0          | 0          |   0.0 |  0.00
Modify  | 7.3244e-05 | 0.0081043  | 0.017126   |   4.1 |  0.15
Other   |            | 0.6421     |            |       | 12.10

Nlocal:        5552.90 ave        7920 max           0 min
Histogram: 4 2 2 0 2 6 4 2 13 17
Nghost:        6213.69 ave        8771 max         412 min
Histogram: 4 0 4 0 8 0 4 5 7 20
Neighs:       158426.0 ave      230864 max           0 min
Histogram: 4 2 2 0 5 3 4 4 12 16

Total # of neighbors = 8238172
Ave neighs/atom = 28.530367
Neighbor list builds = 0
Dangerous builds = 0
The dot product: 1.65976775509322e-10
Setting atom values ...
  1 settings made for x
  1 settings made for y
  1 settings made for z
Setting up cg style minimization ...
  Unit style    : metal
  Current step  : 27385
Per MPI rank memory allocation (min/avg/max) = 5.465 | 6.344 | 6.728 Mbytes
Step PotEng KinEng TotEng v_fx v_fy v_fz 
   27385   -1152448.9            0   -1152448.9 0.0020841648 0.0012918538 0.00012223399 
   27574   -1152448.9            0   -1152448.9 1.8878292e-05 1.2476895e-05 2.074778e-06 
Loop time of 4.21784 on 52 procs for 189 steps with 288751 atoms

99.9% CPU use with 52 MPI tasks x 1 OpenMP threads

Minimization stats:
  Stopping criterion = linesearch alpha is zero
  Energy initial, next-to-last, final = 
     -1152448.91314135  -1152448.91443507  -1152448.91443507
  Force two-norm initial, final = 0.16520777 0.00012065616
  Force max component initial, final = 0.099773589 3.9390475e-05
  Final line search alpha, max atom move = 0.5 1.9695238e-05
  Iterations, force evaluations = 189 379

MPI task timing breakdown:
Section |  min time  |  avg time  |  max time  |%varavg| %total
---------------------------------------------------------------
Pair    | 1.0848     | 3.0134     | 3.9826     |  47.7 | 71.44
Neigh   | 0          | 0          | 0          |   0.0 |  0.00
Comm    | 0.060516   | 0.6776     | 2.137      |  72.9 | 16.07
Output  | 0          | 0          | 0          |   0.0 |  0.00
Modify  | 6.5319e-05 | 0.0063916  | 0.013552   |   3.7 |  0.15
Other   |            | 0.5204     |            |       | 12.34

Nlocal:        5552.90 ave        7920 max           0 min
Histogram: 4 2 2 0 2 6 4 2 13 17
Nghost:        6213.54 ave        8770 max         412 min
Histogram: 4 0 4 0 8 0 4 5 7 20
Neighs:       158426.0 ave      230858 max           0 min
Histogram: 4 2 2 0 5 3 4 4 12 16

Total # of neighbors = 8238170
Ave neighs/atom = 28.530360
Neighbor list builds = 0
Dangerous builds = 0
The dot product: 2.90866093894661e-08
Setting atom values ...
  1 settings made for x
  1 settings made for y
  1 settings made for z
Setting up cg style minimization ...
  Unit style    : metal
  Current step  : 27574
Per MPI rank memory allocation (min/avg/max) = 5.465 | 6.344 | 6.728 Mbytes
Step PotEng KinEng TotEng v_fx v_fy v_fz 
   27574   -1152448.9            0   -1152448.9 0.0023684291 0.00090781809 -0.00055838681 
   27712   -1152448.9            0   -1152448.9 6.2799817e-05 6.6276478e-05 3.7869193e-05 
Loop time of 3.06966 on 52 procs for 138 steps with 288751 atoms

99.9% CPU use with 52 MPI tasks x 1 OpenMP threads

Minimization stats:
  Stopping criterion = energy tolerance
  Energy initial, next-to-last, final = 
     -1152448.88204782  -1152448.88334344  -1152448.88334344
  Force two-norm initial, final = 0.16634026 0.0004569768
  Force max component initial, final = 0.10022662 0.00014932284
  Final line search alpha, max atom move = 1.0000000 0.00014932284
  Iterations, force evaluations = 138 276

MPI task timing breakdown:
Section |  min time  |  avg time  |  max time  |%varavg| %total
---------------------------------------------------------------
Pair    | 0.7917     | 2.1963     | 2.897      |  40.7 | 71.55
Neigh   | 0          | 0          | 0          |   0.0 |  0.00
Comm    | 0.041733   | 0.49254    | 1.5488     |  62.3 | 16.05
Output  | 0          | 0          | 0          |   0.0 |  0.00
Modify  | 4.3464e-05 | 0.0046683  | 0.0099546  |   3.2 |  0.15
Other   |            | 0.3762     |            |       | 12.25

Nlocal:        5552.90 ave        7920 max           0 min
Histogram: 4 2 2 0 2 6 4 2 13 17
Nghost:        6213.54 ave        8770 max         412 min
Histogram: 4 0 4 0 8 0 4 5 7 20
Neighs:       158426.0 ave      230857 max           0 min
Histogram: 4 2 2 0 5 3 4 4 12 16

Total # of neighbors = 8238169
Ave neighs/atom = 28.530357
Neighbor list builds = 0
Dangerous builds = 0
The dot product: 9.60411274823677e-08
