LAMMPS (29 Oct 2020)
OMP_NUM_THREADS environment is not set. Defaulting to 1 thread. (../comm.cpp:94)
  using 1 OpenMP thread(s) per MPI task
OMP_NUM_THREADS environment is not set. Defaulting to 1 thread. (../comm.cpp:94)
  using 1 OpenMP thread(s) per MPI task
Reading data file ...
  orthogonal box = (-122.39241 -121.13707 -37.090501) to (122.39241 121.13707 37.090501)
  13 by 4 by 2 MPI processor grid
  reading atoms ...
  288751 atoms
  read_data CPU = 0.367 seconds
199981 atoms in group inner
88770 atoms in group outer
1 atoms in group carbon
Neighbor list info ...
  update every 1 steps, delay 0 steps, check yes
  max neighbors/atom: 2000, page size: 100000
  master list distance cutoff = 5.6
  ghost atom cutoff = 5.6
  binsize = 2.8, bins = 88 87 27
  1 neighbor lists, perpetual/occasional/extra = 1 0 0
  (1) pair eam/alloy, perpetual
      attributes: half, newton on
      pair build: half/bin/atomonly/newton
      stencil: half/bin/3d/newton
      bin: standard
Setting up cg style minimization ...
  Unit style    : metal
  Current step  : 0
Per MPI rank memory allocation (min/avg/max) = 5.441 | 5.816 | 6.074 Mbytes
Step v_fx v_fy v_fz PotEng KinEng TotEng 
       0    9.2589799   0.21494723   -8.1285502   -1152446.2            0   -1152446.2 
     158 3.4751302e-05 -2.6982236e-06 -3.5571577e-05   -1152449.3            0   -1152449.3 
Loop time of 1.87993 on 104 procs for 158 steps with 288751 atoms

99.8% CPU use with 104 MPI tasks x 1 OpenMP threads

Minimization stats:
  Stopping criterion = energy tolerance
  Energy initial, next-to-last, final = 
     -1152446.23480014  -1152449.34502403  -1152449.34502403
  Force two-norm initial, final = 22.470913 0.00017697811
  Force max component initial, final = 15.081250 5.4906483e-05
  Final line search alpha, max atom move = 1.0000000 5.4906483e-05
  Iterations, force evaluations = 158 314

MPI task timing breakdown:
Section |  min time  |  avg time  |  max time  |%varavg| %total
---------------------------------------------------------------
Pair    | 0.4994     | 1.3268     | 1.724      |  30.5 | 70.58
Neigh   | 3.1485e-05 | 0.0088133  | 0.012771   |   3.9 |  0.47
Comm    | 0.035347   | 0.30282    | 0.8957     |  44.9 | 16.11
Output  | 0          | 0          | 0          |   0.0 |  0.00
Modify  | 1.861e-05  | 0.0016988  | 0.0043311  |   2.6 |  0.09
Other   |            | 0.2398     |            |       | 12.76

Nlocal:        2776.45 ave        3960 max           0 min
Histogram: 8 4 4 0 4 12 8 2 28 34
Nghost:        3879.01 ave        5424 max         232 min
Histogram: 8 0 8 0 16 0 8 8 16 40
Neighs:        79213.5 ave      115434 max           0 min
Histogram: 8 4 4 0 10 6 8 8 24 32

Total # of neighbors = 8238207
Ave neighs/atom = 28.530488
Neighbor list builds = 3
Dangerous builds = 0
Setting atom values ...
  1 settings made for x
  1 settings made for y
  1 settings made for z
Setting up cg style minimization ...
  Unit style    : metal
  Current step  : 158
Per MPI rank memory allocation (min/avg/max) = 5.441 | 5.816 | 6.074 Mbytes
Step PotEng KinEng TotEng v_fx v_fy v_fz 
     158   -1152449.3            0   -1152449.3  0.026901204 -0.061764802 -0.053250077 
     380   -1152449.3            0   -1152449.3 -1.0514488e-06 4.980125e-06 7.2062972e-06 
Loop time of 2.61399 on 104 procs for 222 steps with 288751 atoms

99.9% CPU use with 104 MPI tasks x 1 OpenMP threads

Minimization stats:
  Stopping criterion = energy tolerance
  Energy initial, next-to-last, final = 
     -1152449.33749804  -1152449.34254307  -1152449.34254307
  Force two-norm initial, final = 0.34067855 3.9914718e-05
  Force max component initial, final = 0.16219895 9.8808989e-06
  Final line search alpha, max atom move = 1.0000000 9.8808989e-06
  Iterations, force evaluations = 222 444

MPI task timing breakdown:
Section |  min time  |  avg time  |  max time  |%varavg| %total
---------------------------------------------------------------
Pair    | 0.68111    | 1.8712     | 2.4502     |  36.8 | 71.59
Neigh   | 0          | 0          | 0          |   0.0 |  0.00
Comm    | 0.045316   | 0.42779    | 1.2757     |  53.9 | 16.37
Output  | 0          | 0          | 0          |   0.0 |  0.00
Modify  | 3.0485e-05 | 0.0036616  | 0.0078073  |   2.9 |  0.14
Other   |            | 0.3113     |            |       | 11.91

Nlocal:        2776.45 ave        3961 max           0 min
Histogram: 8 4 4 0 6 10 8 2 28 34
Nghost:        3879.02 ave        5424 max         232 min
Histogram: 8 0 8 0 16 0 8 8 16 40
Neighs:        79213.3 ave      115469 max           0 min
Histogram: 8 4 4 0 10 6 8 8 24 32

Total # of neighbors = 8238184
Ave neighs/atom = 28.530409
Neighbor list builds = 0
Dangerous builds = 0
Setting atom values ...
  1 settings made for x
  1 settings made for y
  1 settings made for z
Setting up cg style minimization ...
  Unit style    : metal
  Current step  : 380
Per MPI rank memory allocation (min/avg/max) = 5.441 | 5.816 | 6.074 Mbytes
Step PotEng KinEng TotEng v_fx v_fy v_fz 
     380   -1152449.3            0   -1152449.3  0.034718669 -0.063265606 -0.055092815 
     609   -1152449.3            0   -1152449.3 1.7599664e-06 -4.4575602e-06 -5.6997582e-06 
Loop time of 2.67104 on 104 procs for 229 steps with 288751 atoms

99.9% CPU use with 104 MPI tasks x 1 OpenMP threads

Minimization stats:
  Stopping criterion = energy tolerance
  Energy initial, next-to-last, final = 
      -1152449.3321129  -1152449.33610811  -1152449.33610811
  Force two-norm initial, final = 0.30554327 2.5643618e-05
  Force max component initial, final = 0.13969916 6.5776212e-06
  Final line search alpha, max atom move = 1.0000000 6.5776212e-06
  Iterations, force evaluations = 229 458

MPI task timing breakdown:
Section |  min time  |  avg time  |  max time  |%varavg| %total
---------------------------------------------------------------
Pair    | 0.70133    | 1.9214     | 2.5088     |  37.4 | 71.94
Neigh   | 0          | 0          | 0          |   0.0 |  0.00
Comm    | 0.048109   | 0.43375    | 1.2966     |  54.9 | 16.24
Output  | 0          | 0          | 0          |   0.0 |  0.00
Modify  | 2.7877e-05 | 0.00377    | 0.0080659  |   2.9 |  0.14
Other   |            | 0.3121     |            |       | 11.68

Nlocal:        2776.45 ave        3961 max           0 min
Histogram: 8 4 4 0 6 10 8 2 28 34
Nghost:        3879.02 ave        5424 max         232 min
Histogram: 8 0 8 0 16 0 8 8 16 40
Neighs:        79213.3 ave      115457 max           0 min
Histogram: 8 4 4 0 10 6 8 8 24 32

Total # of neighbors = 8238185
Ave neighs/atom = 28.530412
Neighbor list builds = 0
Dangerous builds = 0
The dot product: 4.54366030049298e-07
The angle: 86.5019206393577
Setting atom values ...
  1 settings made for x
  1 settings made for y
  1 settings made for z
Setting up cg style minimization ...
  Unit style    : metal
  Current step  : 609
Per MPI rank memory allocation (min/avg/max) = 5.441 | 5.816 | 6.074 Mbytes
Step PotEng KinEng TotEng v_fx v_fy v_fz 
     609   -1152449.3            0   -1152449.3  0.042230946 -0.066693477 -0.068809541 
     842   -1152449.3            0   -1152449.3 -1.633973e-06 3.0996993e-06 4.108344e-06 
Loop time of 2.73464 on 104 procs for 233 steps with 288751 atoms

99.9% CPU use with 104 MPI tasks x 1 OpenMP threads

Minimization stats:
  Stopping criterion = energy tolerance
  Energy initial, next-to-last, final = 
     -1152449.32234664  -1152449.32623171  -1152449.32623171
  Force two-norm initial, final = 0.30345814 1.8364449e-05
  Force max component initial, final = 0.13054498 5.0516875e-06
  Final line search alpha, max atom move = 1.0000000 5.0516875e-06
  Iterations, force evaluations = 233 466

MPI task timing breakdown:
Section |  min time  |  avg time  |  max time  |%varavg| %total
---------------------------------------------------------------
Pair    | 0.71477    | 1.9633     | 2.5558     |  37.7 | 71.79
Neigh   | 0          | 0          | 0          |   0.0 |  0.00
Comm    | 0.046914   | 0.44438    | 1.319      |  55.3 | 16.25
Output  | 0          | 0          | 0          |   0.0 |  0.00
Modify  | 3.1712e-05 | 0.0038463  | 0.0082019  |   2.9 |  0.14
Other   |            | 0.3231     |            |       | 11.82

Nlocal:        2776.45 ave        3959 max           0 min
Histogram: 8 4 4 0 4 12 8 2 28 34
Nghost:        3879.06 ave        5424 max         232 min
Histogram: 8 0 8 0 16 0 8 8 16 40
Neighs:        79213.3 ave      115398 max           0 min
Histogram: 8 4 4 0 10 6 8 8 24 32

Total # of neighbors = 8238186
Ave neighs/atom = 28.530415
Neighbor list builds = 0
Dangerous builds = 0
The dot product: -4.24591211904874e-07
The angle: 94.5099793103582
Setting atom values ...
  1 settings made for x
  1 settings made for y
  1 settings made for z
Setting up cg style minimization ...
  Unit style    : metal
  Current step  : 842
Per MPI rank memory allocation (min/avg/max) = 5.441 | 5.816 | 6.074 Mbytes
Step PotEng KinEng TotEng v_fx v_fy v_fz 
     842   -1152449.3            0   -1152449.3  0.047899941 -0.063056689 -0.079265378 
     997   -1152449.3            0   -1152449.3 1.6082158e-06 -1.9805925e-06 -2.1470018e-06 
Loop time of 1.81658 on 104 procs for 155 steps with 288751 atoms

99.9% CPU use with 104 MPI tasks x 1 OpenMP threads

Minimization stats:
  Stopping criterion = energy tolerance
  Energy initial, next-to-last, final = 
     -1152449.30972995  -1152449.31351593  -1152449.31351593
  Force two-norm initial, final = 0.29791883 2.6812638e-05
  Force max component initial, final = 0.13029721 6.6209388e-06
  Final line search alpha, max atom move = 1.0000000 6.6209388e-06
  Iterations, force evaluations = 155 310

MPI task timing breakdown:
Section |  min time  |  avg time  |  max time  |%varavg| %total
---------------------------------------------------------------
Pair    | 0.47471    | 1.2993     | 1.6924     |  30.6 | 71.52
Neigh   | 0          | 0          | 0          |   0.0 |  0.00
Comm    | 0.033506   | 0.29317    | 0.87788    |  45.4 | 16.14
Output  | 0          | 0          | 0          |   0.0 |  0.00
Modify  | 1.927e-05  | 0.0025578  | 0.0054963  |   2.4 |  0.14
Other   |            | 0.2216     |            |       | 12.20

Nlocal:        2776.45 ave        3955 max           0 min
Histogram: 8 4 4 0 4 12 8 0 30 34
Nghost:        3879.10 ave        5424 max         232 min
Histogram: 8 0 8 0 16 0 8 8 16 40
Neighs:        79213.3 ave      115288 max           0 min
Histogram: 8 4 4 0 10 6 8 8 24 32

Total # of neighbors = 8238188
Ave neighs/atom = 28.530422
Neighbor list builds = 0
Dangerous builds = 0
The dot product: 2.57757919795759e-07
The angle: 85.5665614431553
Setting atom values ...
  1 settings made for x
  1 settings made for y
  1 settings made for z
Setting up cg style minimization ...
  Unit style    : metal
  Current step  : 997
Per MPI rank memory allocation (min/avg/max) = 5.441 | 5.816 | 6.074 Mbytes
Step PotEng KinEng TotEng v_fx v_fy v_fz 
     997   -1152449.3            0   -1152449.3  0.051334599 -0.054963069 -0.081767844 
    1000   -1152449.3            0   -1152449.3 0.0057338645 -0.0054368646 -0.005142185 
    1148   -1152449.3            0   -1152449.3 9.9431727e-06 -1.0215083e-05 -1.3389171e-05 
Loop time of 1.75435 on 104 procs for 151 steps with 288751 atoms

99.9% CPU use with 104 MPI tasks x 1 OpenMP threads

Minimization stats:
  Stopping criterion = energy tolerance
  Energy initial, next-to-last, final = 
     -1152449.29420495  -1152449.29785891  -1152449.29785891
  Force two-norm initial, final = 0.28952608 0.00016775759
  Force max component initial, final = 0.14150165 4.4029296e-05
  Final line search alpha, max atom move = 1.0000000 4.4029296e-05
  Iterations, force evaluations = 151 302

MPI task timing breakdown:
Section |  min time  |  avg time  |  max time  |%varavg| %total
---------------------------------------------------------------
Pair    | 0.46326    | 1.2704     | 1.6572     |  30.3 | 72.41
Neigh   | 0          | 0          | 0          |   0.0 |  0.00
Comm    | 0.029121   | 0.28664    | 0.85478    |  44.7 | 16.34
Output  | 8.872e-05  | 9.6028e-05 | 0.00016474 |   0.0 |  0.01
Modify  | 1.91e-05   | 0.0024939  | 0.0053646  |   2.4 |  0.14
Other   |            | 0.1947     |            |       | 11.10

Nlocal:        2776.45 ave        3951 max           0 min
Histogram: 8 4 4 0 4 12 8 1 29 34
Nghost:        3879.13 ave        5424 max         232 min
Histogram: 8 0 8 0 16 0 8 8 16 40
Neighs:        79213.4 ave      115140 max           0 min
Histogram: 8 4 4 0 10 6 8 8 24 32

Total # of neighbors = 8238189
Ave neighs/atom = 28.530426
Neighbor list builds = 0
Dangerous builds = 0
The dot product: 1.3208758740357e-06
The angle: 86.1273482691301
Setting atom values ...
  1 settings made for x
  1 settings made for y
  1 settings made for z
Setting up cg style minimization ...
  Unit style    : metal
  Current step  : 1148
Per MPI rank memory allocation (min/avg/max) = 5.441 | 5.816 | 6.074 Mbytes
Step PotEng KinEng TotEng v_fx v_fy v_fz 
    1148   -1152449.3            0   -1152449.3  0.052539778 -0.046090996 -0.078241533 
    1356   -1152449.3            0   -1152449.3 -3.6278923e-06 3.559502e-06 9.0927012e-06 
Loop time of 2.42708 on 104 procs for 208 steps with 288751 atoms

99.9% CPU use with 104 MPI tasks x 1 OpenMP threads

Minimization stats:
  Stopping criterion = energy tolerance
  Energy initial, next-to-last, final = 
     -1152449.27559843  -1152449.27912378  -1152449.27912378
  Force two-norm initial, final = 0.28067489 5.7862600e-05
  Force max component initial, final = 0.15123922 9.0927012e-06
  Final line search alpha, max atom move = 1.0000000 9.0927012e-06
  Iterations, force evaluations = 208 416

MPI task timing breakdown:
Section |  min time  |  avg time  |  max time  |%varavg| %total
---------------------------------------------------------------
Pair    | 0.64963    | 1.7471     | 2.261      |  35.1 | 71.98
Neigh   | 0          | 0          | 0          |   0.0 |  0.00
Comm    | 0.045467   | 0.3929     | 1.1784     |  52.6 | 16.19
Output  | 0          | 0          | 0          |   0.0 |  0.00
Modify  | 2.6331e-05 | 0.0034276  | 0.0073242  |   2.8 |  0.14
Other   |            | 0.2837     |            |       | 11.69

Nlocal:        2776.45 ave        3947 max           0 min
Histogram: 8 4 4 0 4 12 8 2 26 36
Nghost:        3879.12 ave        5424 max         232 min
Histogram: 8 0 8 0 16 0 8 8 16 40
Neighs:        79213.3 ave      115011 max           0 min
Histogram: 8 4 4 0 10 6 8 8 24 32

Total # of neighbors = 8238185
Ave neighs/atom = 28.530412
Neighbor list builds = 0
Dangerous builds = 0
The dot product: -5.93912407315004e-07
The angle: 93.2684961672841
Setting atom values ...
  1 settings made for x
  1 settings made for y
  1 settings made for z
Setting up cg style minimization ...
  Unit style    : metal
  Current step  : 1356
Per MPI rank memory allocation (min/avg/max) = 5.441 | 5.816 | 6.074 Mbytes
Step PotEng KinEng TotEng v_fx v_fy v_fz 
    1356   -1152449.3            0   -1152449.3  0.052196264 -0.038321334 -0.071775572 
    1561   -1152449.3            0   -1152449.3 -9.4059727e-07 7.6669191e-07 3.0362699e-06 
Loop time of 2.41525 on 104 procs for 205 steps with 288751 atoms

99.9% CPU use with 104 MPI tasks x 1 OpenMP threads

Minimization stats:
  Stopping criterion = energy tolerance
  Energy initial, next-to-last, final = 
     -1152449.25379303  -1152449.25720367  -1152449.25720367
  Force two-norm initial, final = 0.27273312 6.8891371e-05
  Force max component initial, final = 0.15965548 1.3922389e-05
  Final line search alpha, max atom move = 1.0000000 1.3922389e-05
  Iterations, force evaluations = 205 410

MPI task timing breakdown:
Section |  min time  |  avg time  |  max time  |%varavg| %total
---------------------------------------------------------------
Pair    | 0.62678    | 1.7275     | 2.2559     |  35.4 | 71.52
Neigh   | 0          | 0          | 0          |   0.0 |  0.00
Comm    | 0.048837   | 0.39244    | 1.1593     |  51.7 | 16.25
Output  | 0          | 0          | 0          |   0.0 |  0.00
Modify  | 2.6857e-05 | 0.0033884  | 0.0072211  |   2.7 |  0.14
Other   |            | 0.292      |            |       | 12.09

Nlocal:        2776.45 ave        3943 max           0 min
Histogram: 8 4 4 0 4 12 8 2 26 36
Nghost:        3879.10 ave        5424 max         232 min
Histogram: 8 0 8 0 16 0 8 8 16 40
Neighs:        79213.3 ave      114896 max           0 min
Histogram: 8 4 4 0 10 6 8 8 22 34

Total # of neighbors = 8238187
Ave neighs/atom = 28.530419
Neighbor list builds = 0
Dangerous builds = 0
The dot product: -1.49043833061882e-07
The angle: 92.6125724909882
Setting atom values ...
  1 settings made for x
  1 settings made for y
  1 settings made for z
Setting up cg style minimization ...
  Unit style    : metal
  Current step  : 1561
Per MPI rank memory allocation (min/avg/max) = 5.441 | 5.816 | 6.074 Mbytes
Step PotEng KinEng TotEng v_fx v_fy v_fz 
    1561   -1152449.2            0   -1152449.2  0.051202578 -0.032283102 -0.063967577 
    1756   -1152449.2            0   -1152449.2 -3.8381165e-06 2.4048528e-06 1.5216083e-05 
Loop time of 2.26018 on 104 procs for 195 steps with 288751 atoms

99.9% CPU use with 104 MPI tasks x 1 OpenMP threads

Minimization stats:
  Stopping criterion = energy tolerance
  Energy initial, next-to-last, final = 
     -1152449.22870006  -1152449.23201994  -1152449.23201994
  Force two-norm initial, final = 0.26640829 9.3070689e-05
  Force max component initial, final = 0.16721031 1.5216083e-05
  Final line search alpha, max atom move = 1.0000000 1.5216083e-05
  Iterations, force evaluations = 195 390

MPI task timing breakdown:
Section |  min time  |  avg time  |  max time  |%varavg| %total
---------------------------------------------------------------
Pair    | 0.59723    | 1.6348     | 2.1269     |  34.3 | 72.33
Neigh   | 0          | 0          | 0          |   0.0 |  0.00
Comm    | 0.045028   | 0.36682    | 1.1068     |  51.2 | 16.23
Output  | 0          | 0          | 0          |   0.0 |  0.00
Modify  | 2.3864e-05 | 0.0032138  | 0.0068921  |   2.7 |  0.14
Other   |            | 0.2554     |            |       | 11.30

Nlocal:        2776.45 ave        3934 max           0 min
Histogram: 8 4 4 0 4 12 8 0 28 36
Nghost:        3879.10 ave        5424 max         232 min
Histogram: 8 0 8 0 16 0 8 8 16 40
Neighs:        79213.3 ave      114591 max           0 min
Histogram: 8 4 4 0 8 8 8 8 20 36

Total # of neighbors = 8238186
Ave neighs/atom = 28.530415
Neighbor list builds = 0
Dangerous builds = 0
The dot product: -5.70764510480675e-07
The angle: 92.0603230149248
Setting atom values ...
  1 settings made for x
  1 settings made for y
  1 settings made for z
Setting up cg style minimization ...
  Unit style    : metal
  Current step  : 1756
Per MPI rank memory allocation (min/avg/max) = 5.441 | 5.816 | 6.074 Mbytes
Step PotEng KinEng TotEng v_fx v_fy v_fz 
    1756   -1152449.2            0   -1152449.2  0.053481901  -0.02971884 -0.060348298 
    1954   -1152449.2            0   -1152449.2 1.1019982e-05 -6.1543777e-06 -1.1581539e-05 
Loop time of 2.30056 on 104 procs for 198 steps with 288751 atoms

99.9% CPU use with 104 MPI tasks x 1 OpenMP threads

Minimization stats:
  Stopping criterion = energy tolerance
  Energy initial, next-to-last, final = 
     -1152449.20031515  -1152449.20360294  -1152449.20360294
  Force two-norm initial, final = 0.26343518 8.8357186e-05
  Force max component initial, final = 0.17418827 1.1581539e-05
  Final line search alpha, max atom move = 1.0000000 1.1581539e-05
  Iterations, force evaluations = 198 396

MPI task timing breakdown:
Section |  min time  |  avg time  |  max time  |%varavg| %total
---------------------------------------------------------------
Pair    | 0.60778    | 1.6669     | 2.1714     |  34.7 | 72.46
Neigh   | 0          | 0          | 0          |   0.0 |  0.00
Comm    | 0.042967   | 0.3723     | 1.1179     |  51.6 | 16.18
Output  | 0          | 0          | 0          |   0.0 |  0.00
Modify  | 2.5097e-05 | 0.0032614  | 0.0070067  |   2.7 |  0.14
Other   |            | 0.2581     |            |       | 11.22

Nlocal:        2776.45 ave        3930 max           0 min
Histogram: 8 4 4 0 4 12 8 0 26 38
Nghost:        3879.10 ave        5424 max         232 min
Histogram: 8 0 8 0 16 0 8 8 16 40
Neighs:        79213.3 ave      114487 max           0 min
Histogram: 8 4 4 0 8 8 8 8 20 36

Total # of neighbors = 8238185
Ave neighs/atom = 28.530412
Neighbor list builds = 0
Dangerous builds = 0
The dot product: 6.7739075604035e-07
The angle: 87.7337424906808
Setting atom values ...
  1 settings made for x
  1 settings made for y
  1 settings made for z
Setting up cg style minimization ...
  Unit style    : metal
  Current step  : 1954
Per MPI rank memory allocation (min/avg/max) = 5.441 | 5.816 | 6.074 Mbytes
Step PotEng KinEng TotEng v_fx v_fy v_fz 
    1954   -1152449.2            0   -1152449.2  0.061152366 -0.029718458 -0.065961432 
    2000   -1152449.2            0   -1152449.2 0.00043151545 -0.00021147902 -0.00043973968 
    2215   -1152449.2            0   -1152449.2 -8.819797e-07 4.2914958e-07 9.4365099e-07 
Loop time of 3.04624 on 104 procs for 261 steps with 288751 atoms

99.9% CPU use with 104 MPI tasks x 1 OpenMP threads

Minimization stats:
  Stopping criterion = energy tolerance
  Energy initial, next-to-last, final = 
     -1152449.16889738  -1152449.17238234  -1152449.17238234
  Force two-norm initial, final = 0.26578007 5.4527183e-06
  Force max component initial, final = 0.1815215 9.4365099e-07
  Final line search alpha, max atom move = 1.0000000 9.4365099e-07
  Iterations, force evaluations = 261 522

MPI task timing breakdown:
Section |  min time  |  avg time  |  max time  |%varavg| %total
---------------------------------------------------------------
Pair    | 0.79723    | 2.193      | 2.8511     |  39.9 | 71.99
Neigh   | 0          | 0          | 0          |   0.0 |  0.00
Comm    | 0.051426   | 0.49168    | 1.4952     |  59.6 | 16.14
Output  | 0.00010054 | 0.00010947 | 0.00021668 |   0.0 |  0.00
Modify  | 3.2933e-05 | 0.0043025  | 0.0092195  |   3.1 |  0.14
Other   |            | 0.3572     |            |       | 11.72

Nlocal:        2776.45 ave        3930 max           0 min
Histogram: 8 4 4 0 4 12 8 0 26 38
Nghost:        3879.10 ave        5424 max         232 min
Histogram: 8 0 8 0 16 0 8 8 16 40
Neighs:        79213.3 ave      114488 max           0 min
Histogram: 8 4 4 0 8 8 8 8 20 36

Total # of neighbors = 8238185
Ave neighs/atom = 28.530412
Neighbor list builds = 0
Dangerous builds = 0
The dot product: -6.90255224753774e-08
The angle: 92.9069361199292
Setting atom values ...
  1 settings made for x
  1 settings made for y
  1 settings made for z
Setting up cg style minimization ...
  Unit style    : metal
  Current step  : 2215
Per MPI rank memory allocation (min/avg/max) = 5.441 | 5.816 | 6.074 Mbytes
Step PotEng KinEng TotEng v_fx v_fy v_fz 
    2215   -1152449.1            0   -1152449.1  0.069040365 -0.027631065 -0.072509938 
    2410   -1152449.1            0   -1152449.1 -2.3613098e-05 8.8070933e-06 3.0554237e-05 
Loop time of 2.25906 on 104 procs for 195 steps with 288751 atoms

99.9% CPU use with 104 MPI tasks x 1 OpenMP threads

Minimization stats:
  Stopping criterion = energy tolerance
  Energy initial, next-to-last, final = 
     -1152449.13485637  -1152449.13852468  -1152449.13852468
  Force two-norm initial, final = 0.26942274 0.00012797154
  Force max component initial, final = 0.18993526 3.0554237e-05
  Final line search alpha, max atom move = 1.0000000 3.0554237e-05
  Iterations, force evaluations = 195 390

MPI task timing breakdown:
Section |  min time  |  avg time  |  max time  |%varavg| %total
---------------------------------------------------------------
Pair    | 0.59354    | 1.6406     | 2.1345     |  34.6 | 72.62
Neigh   | 0          | 0          | 0          |   0.0 |  0.00
Comm    | 0.035024   | 0.37117    | 1.1162     |  51.0 | 16.43
Output  | 0          | 0          | 0          |   0.0 |  0.00
Modify  | 2.4988e-05 | 0.0032251  | 0.006969   |   2.7 |  0.14
Other   |            | 0.2441     |            |       | 10.81

Nlocal:        2776.45 ave        3930 max           0 min
Histogram: 8 4 4 0 4 12 8 0 26 38
Nghost:        3879.09 ave        5424 max         232 min
Histogram: 8 0 8 0 16 0 8 8 16 40
Neighs:        79213.3 ave      114490 max           0 min
Histogram: 8 4 4 0 8 8 8 8 20 36

Total # of neighbors = 8238182
Ave neighs/atom = 28.530402
Neighbor list builds = 0
Dangerous builds = 0
The dot product: -2.18571002728021e-06
The angle: 93.1634812053533
Setting atom values ...
  1 settings made for x
  1 settings made for y
  1 settings made for z
Setting up cg style minimization ...
  Unit style    : metal
  Current step  : 2410
Per MPI rank memory allocation (min/avg/max) = 5.441 | 5.816 | 6.074 Mbytes
Step PotEng KinEng TotEng v_fx v_fy v_fz 
    2410   -1152449.1            0   -1152449.1  0.078838397 -0.026238348 -0.069701372 
    2608   -1152449.1            0   -1152449.1 2.5367724e-05 -7.5121817e-06 -2.8475767e-05 
Loop time of 2.31378 on 104 procs for 198 steps with 288751 atoms

99.9% CPU use with 104 MPI tasks x 1 OpenMP threads

Minimization stats:
  Stopping criterion = energy tolerance
  Energy initial, next-to-last, final = 
     -1152449.09808358  -1152449.10201937  -1152449.10201937
  Force two-norm initial, final = 0.27272628 0.00012990768
  Force max component initial, final = 0.19874598 2.8475767e-05
  Final line search alpha, max atom move = 1.0000000 2.8475767e-05
  Iterations, force evaluations = 198 396

MPI task timing breakdown:
Section |  min time  |  avg time  |  max time  |%varavg| %total
---------------------------------------------------------------
Pair    | 0.60566    | 1.6601     | 2.1565     |  34.7 | 71.75
Neigh   | 0          | 0          | 0          |   0.0 |  0.00
Comm    | 0.049381   | 0.37556    | 1.1224     |  51.0 | 16.23
Output  | 0          | 0          | 0          |   0.0 |  0.00
Modify  | 2.6544e-05 | 0.0032726  | 0.0069811  |   2.7 |  0.14
Other   |            | 0.2749     |            |       | 11.88

Nlocal:        2776.45 ave        3930 max           0 min
Histogram: 8 4 4 0 4 12 8 0 26 38
Nghost:        3879.07 ave        5425 max         232 min
Histogram: 8 0 8 0 16 0 8 8 16 40
Neighs:        79213.3 ave      114451 max           0 min
Histogram: 8 4 4 0 8 8 8 8 20 36

Total # of neighbors = 8238182
Ave neighs/atom = 28.530402
Neighbor list builds = 0
Dangerous builds = 0
The dot product: 2.3121788597086e-06
The angle: 86.589691720468
Setting atom values ...
  1 settings made for x
  1 settings made for y
  1 settings made for z
Setting up cg style minimization ...
  Unit style    : metal
  Current step  : 2608
Per MPI rank memory allocation (min/avg/max) = 5.441 | 5.816 | 6.074 Mbytes
Step PotEng KinEng TotEng v_fx v_fy v_fz 
    2608   -1152449.1            0   -1152449.1  0.097393678 -0.028891848 -0.056798749 
    2791   -1152449.1            0   -1152449.1 -2.6915611e-05 6.1062578e-06  2.57955e-05 
Loop time of 2.12111 on 104 procs for 183 steps with 288751 atoms

99.9% CPU use with 104 MPI tasks x 1 OpenMP threads

Minimization stats:
  Stopping criterion = energy tolerance
  Energy initial, next-to-last, final = 
     -1152449.05877363  -1152449.06307385  -1152449.06307385
  Force two-norm initial, final = 0.27886361 0.0001774747
  Force max component initial, final = 0.20960008 2.6915611e-05
  Final line search alpha, max atom move = 1.0000000 2.6915611e-05
  Iterations, force evaluations = 183 366

MPI task timing breakdown:
Section |  min time  |  avg time  |  max time  |%varavg| %total
---------------------------------------------------------------
Pair    | 0.55987    | 1.5373     | 2.0025     |  33.3 | 72.47
Neigh   | 0          | 0          | 0          |   0.0 |  0.00
Comm    | 0.037633   | 0.34593    | 1.0311     |  49.1 | 16.31
Output  | 0          | 0          | 0          |   0.0 |  0.00
Modify  | 2.3204e-05 | 0.0030144  | 0.0064604  |   2.6 |  0.14
Other   |            | 0.2349     |            |       | 11.07

Nlocal:        2776.45 ave        3930 max           0 min
Histogram: 8 4 4 0 4 12 8 0 26 38
Nghost:        3879.09 ave        5425 max         232 min
Histogram: 8 0 8 0 16 0 8 8 16 40
Neighs:        79213.3 ave      114451 max           0 min
Histogram: 8 4 4 0 8 8 8 8 20 36

Total # of neighbors = 8238181
Ave neighs/atom = 28.530398
Neighbor list builds = 0
Dangerous builds = 0
The dot product: -2.23010969167271e-06
The angle: 93.3842892220554
Setting atom values ...
  1 settings made for x
  1 settings made for y
  1 settings made for z
Setting up cg style minimization ...
  Unit style    : metal
  Current step  : 2791
Per MPI rank memory allocation (min/avg/max) = 5.441 | 5.816 | 6.074 Mbytes
Step PotEng KinEng TotEng v_fx v_fy v_fz 
    2791     -1152449            0     -1152449   0.10915444 -0.028954857 -0.036544195 
    3000     -1152449            0     -1152449 -7.1577935e-06 1.2884903e-07 1.1061572e-05 
    3013     -1152449            0     -1152449 1.0605466e-05 -1.0073572e-06 -1.2392276e-05 
Loop time of 2.58003 on 104 procs for 222 steps with 288751 atoms

99.9% CPU use with 104 MPI tasks x 1 OpenMP threads

Minimization stats:
  Stopping criterion = energy tolerance
  Energy initial, next-to-last, final = 
     -1152449.01708563  -1152449.02155919  -1152449.02155919
  Force two-norm initial, final = 0.28423423 4.6389004e-05
  Force max component initial, final = 0.22166794 1.2392276e-05
  Final line search alpha, max atom move = 1.0000000 1.2392276e-05
  Iterations, force evaluations = 222 444

MPI task timing breakdown:
Section |  min time  |  avg time  |  max time  |%varavg| %total
---------------------------------------------------------------
Pair    | 0.6804     | 1.8595     | 2.4083     |  36.6 | 72.07
Neigh   | 0          | 0          | 0          |   0.0 |  0.00
Comm    | 0.047709   | 0.41636    | 1.2564     |  54.8 | 16.14
Output  | 0.00013418 | 0.00014083 | 0.00029889 |   0.0 |  0.01
Modify  | 2.8083e-05 | 0.0036569  | 0.0078128  |   2.9 |  0.14
Other   |            | 0.3003     |            |       | 11.64

Nlocal:        2776.45 ave        3930 max           0 min
Histogram: 8 4 4 0 4 12 8 0 26 38
Nghost:        3879.09 ave        5425 max         232 min
Histogram: 8 0 8 0 16 0 8 8 16 40
Neighs:        79213.3 ave      114453 max           0 min
Histogram: 8 4 4 0 8 8 8 8 20 36

Total # of neighbors = 8238183
Ave neighs/atom = 28.530405
Neighbor list builds = 0
Dangerous builds = 0
The dot product: 7.16878518683051e-07
The angle: 87.4857768695411
Setting atom values ...
  1 settings made for x
  1 settings made for y
  1 settings made for z
Setting up cg style minimization ...
  Unit style    : metal
  Current step  : 3013
Per MPI rank memory allocation (min/avg/max) = 5.441 | 5.816 | 6.074 Mbytes
Step PotEng KinEng TotEng v_fx v_fy v_fz 
    3013     -1152449            0     -1152449   0.11053251 -0.026998814 -0.010667132 
    3224     -1152449            0     -1152449 -8.5818723e-06 2.2036343e-07 9.9453244e-06 
Loop time of 2.44552 on 104 procs for 211 steps with 288751 atoms

99.9% CPU use with 104 MPI tasks x 1 OpenMP threads

Minimization stats:
  Stopping criterion = energy tolerance
  Energy initial, next-to-last, final = 
     -1152448.97279298  -1152448.97732673  -1152448.97732673
  Force two-norm initial, final = 0.28853466 5.9524449e-05
  Force max component initial, final = 0.23413808 1.6050588e-05
  Final line search alpha, max atom move = 1.0000000 1.6050588e-05
  Iterations, force evaluations = 211 422

MPI task timing breakdown:
Section |  min time  |  avg time  |  max time  |%varavg| %total
---------------------------------------------------------------
Pair    | 0.64528    | 1.7726     | 2.3098     |  35.8 | 72.49
Neigh   | 0          | 0          | 0          |   0.0 |  0.00
Comm    | 0.043546   | 0.39777    | 1.1938     |  53.1 | 16.27
Output  | 0          | 0          | 0          |   0.0 |  0.00
Modify  | 2.6643e-05 | 0.0034781  | 0.0074256  |   2.8 |  0.14
Other   |            | 0.2716     |            |       | 11.11

Nlocal:        2776.45 ave        3930 max           0 min
Histogram: 8 4 4 0 4 12 8 0 26 38
Nghost:        3879.09 ave        5425 max         232 min
Histogram: 8 0 8 0 16 0 8 8 16 40
Neighs:        79213.3 ave      114438 max           0 min
Histogram: 8 4 4 0 8 8 8 8 20 36

Total # of neighbors = 8238185
Ave neighs/atom = 28.530412
Neighbor list builds = 0
Dangerous builds = 0
The dot product: -3.78053624780138e-07
The angle: 91.6489494075039
Setting atom values ...
  1 settings made for x
  1 settings made for y
  1 settings made for z
Setting up cg style minimization ...
  Unit style    : metal
  Current step  : 3224
Per MPI rank memory allocation (min/avg/max) = 5.441 | 5.816 | 6.074 Mbytes
Step PotEng KinEng TotEng v_fx v_fy v_fz 
    3224   -1152448.9            0   -1152448.9   0.10337767  -0.02341253  0.012986731 
    3353   -1152448.9            0   -1152448.9 -2.8467407e-05 7.894973e-07 2.5901903e-05 
Loop time of 1.48889 on 104 procs for 129 steps with 288751 atoms

99.9% CPU use with 104 MPI tasks x 1 OpenMP threads

Minimization stats:
  Stopping criterion = energy tolerance
  Energy initial, next-to-last, final = 
     -1152448.92565306  -1152448.93018009  -1152448.93018009
  Force two-norm initial, final = 0.29345183 0.00014088988
  Force max component initial, final = 0.24673612 3.0417208e-05
  Final line search alpha, max atom move = 1.0000000 3.0417208e-05
  Iterations, force evaluations = 129 258

MPI task timing breakdown:
Section |  min time  |  avg time  |  max time  |%varavg| %total
---------------------------------------------------------------
Pair    | 0.395      | 1.08       | 1.3993     |  27.9 | 72.53
Neigh   | 0          | 0          | 0          |   0.0 |  0.00
Comm    | 0.025517   | 0.2419     | 0.73132    |  41.5 | 16.25
Output  | 0          | 0          | 0          |   0.0 |  0.00
Modify  | 1.6531e-05 | 0.0021291  | 0.0045222  |   2.2 |  0.14
Other   |            | 0.1649     |            |       | 11.08

Nlocal:        2776.45 ave        3930 max           0 min
Histogram: 8 4 4 0 4 12 8 0 26 38
Nghost:        3879.09 ave        5425 max         232 min
Histogram: 8 0 8 0 16 0 8 8 16 40
Neighs:        79213.3 ave      114447 max           0 min
Histogram: 8 4 4 0 8 8 8 8 20 36

Total # of neighbors = 8238188
Ave neighs/atom = 28.530422
Neighbor list builds = 0
Dangerous builds = 0
The dot product: -8.57919952428361e-07
The angle: 91.2770039002713
Setting atom values ...
  1 settings made for x
  1 settings made for y
  1 settings made for z
Setting up cg style minimization ...
  Unit style    : metal
  Current step  : 3353
Per MPI rank memory allocation (min/avg/max) = 5.441 | 5.816 | 6.074 Mbytes
Step PotEng KinEng TotEng v_fx v_fy v_fz 
    3353   -1152448.9            0   -1152448.9  0.091128536   -0.0187122  0.029047531 
    3481   -1152448.9            0   -1152448.9 1.7774472e-05 3.2025142e-06 -3.47109e-05 
Loop time of 1.49408 on 104 procs for 128 steps with 288751 atoms

99.9% CPU use with 104 MPI tasks x 1 OpenMP threads

Minimization stats:
  Stopping criterion = energy tolerance
  Energy initial, next-to-last, final = 
     -1152448.87538042  -1152448.87985345  -1152448.87985345
  Force two-norm initial, final = 0.29901033 0.0001944631
  Force max component initial, final = 0.25872482 3.4710900e-05
  Final line search alpha, max atom move = 1.0000000 3.4710900e-05
  Iterations, force evaluations = 128 256

MPI task timing breakdown:
Section |  min time  |  avg time  |  max time  |%varavg| %total
---------------------------------------------------------------
Pair    | 0.3906     | 1.0782     | 1.4054     |  28.0 | 72.16
Neigh   | 0          | 0          | 0          |   0.0 |  0.00
Comm    | 0.026478   | 0.24273    | 0.7263     |  41.4 | 16.25
Output  | 0          | 0          | 0          |   0.0 |  0.00
Modify  | 1.6395e-05 | 0.0021197  | 0.004542   |   2.2 |  0.14
Other   |            | 0.1711     |            |       | 11.45

Nlocal:        2776.45 ave        3930 max           0 min
Histogram: 8 4 4 0 4 12 8 0 26 38
Nghost:        3879.09 ave        5425 max         232 min
Histogram: 8 0 8 0 16 0 8 8 16 40
Neighs:        79213.4 ave      114446 max           0 min
Histogram: 8 4 4 0 8 8 8 8 20 36

Total # of neighbors = 8238195
Ave neighs/atom = 28.530447
Neighbor list builds = 0
Dangerous builds = 0
The dot product: -1.52957046106563e-07
The angle: 90.2239756135438
Setting atom values ...
  1 settings made for x
  1 settings made for y
  1 settings made for z
Setting up cg style minimization ...
  Unit style    : metal
  Current step  : 3481
Per MPI rank memory allocation (min/avg/max) = 5.441 | 5.816 | 6.074 Mbytes
Step PotEng KinEng TotEng v_fx v_fy v_fz 
    3481   -1152448.8            0   -1152448.8  0.076830716 -0.014019353  0.037993727 
    3785   -1152448.8            0   -1152448.8 3.0160353e-07 -1.8093843e-08 -1.0630948e-07 
Loop time of 3.52524 on 104 procs for 304 steps with 288751 atoms

99.9% CPU use with 104 MPI tasks x 1 OpenMP threads

Minimization stats:
  Stopping criterion = energy tolerance
  Energy initial, next-to-last, final = 
     -1152448.82171689  -1152448.82609088  -1152448.82609088
  Force two-norm initial, final = 0.30438427 1.7965598e-06
  Force max component initial, final = 0.26956072 3.0160353e-07
  Final line search alpha, max atom move = 1.0000000 3.0160353e-07
  Iterations, force evaluations = 304 608

MPI task timing breakdown:
Section |  min time  |  avg time  |  max time  |%varavg| %total
---------------------------------------------------------------
Pair    | 0.93093    | 2.5492     | 3.3304     |  43.0 | 72.31
Neigh   | 0          | 0          | 0          |   0.0 |  0.00
Comm    | 0.062057   | 0.57348    | 1.7287     |  63.7 | 16.27
Output  | 0          | 0          | 0          |   0.0 |  0.00
Modify  | 3.8383e-05 | 0.0050102  | 0.010707   |   3.3 |  0.14
Other   |            | 0.3975     |            |       | 11.28

Nlocal:        2776.45 ave        3930 max           0 min
Histogram: 8 4 4 0 4 12 8 0 26 38
Nghost:        3879.09 ave        5425 max         232 min
Histogram: 8 0 8 0 16 0 8 8 16 40
Neighs:        79213.4 ave      114446 max           0 min
Histogram: 8 4 4 0 8 8 8 8 20 36

Total # of neighbors = 8238198
Ave neighs/atom = 28.530457
Neighbor list builds = 0
Dangerous builds = 0
The dot product: 6.54727728686582e-09
The angle: 88.8287405951927
Setting atom values ...
  1 settings made for x
  1 settings made for y
  1 settings made for z
Setting up cg style minimization ...
  Unit style    : metal
  Current step  : 3785
Per MPI rank memory allocation (min/avg/max) = 5.441 | 5.816 | 6.074 Mbytes
Step PotEng KinEng TotEng v_fx v_fy v_fz 
    3785   -1152448.8            0   -1152448.8  0.062305641 -0.010069629   0.04217437 
    4000   -1152448.8            0   -1152448.8 -8.9669868e-07 -1.9393977e-07 2.2161194e-06 
    4052   -1152448.8            0   -1152448.8 -6.6191767e-07 -3.6856982e-08 7.5024741e-07 
Loop time of 3.08923 on 104 procs for 267 steps with 288751 atoms

99.9% CPU use with 104 MPI tasks x 1 OpenMP threads

Minimization stats:
  Stopping criterion = energy tolerance
  Energy initial, next-to-last, final = 
     -1152448.76453193  -1152448.76876553  -1152448.76876553
  Force two-norm initial, final = 0.30904907 5.0481957e-06
  Force max component initial, final = 0.27922764 9.3566995e-07
  Final line search alpha, max atom move = 1.0000000 9.3566995e-07
  Iterations, force evaluations = 267 534

MPI task timing breakdown:
Section |  min time  |  avg time  |  max time  |%varavg| %total
---------------------------------------------------------------
Pair    | 0.81621    | 2.2466     | 2.9172     |  40.3 | 72.72
Neigh   | 0          | 0          | 0          |   0.0 |  0.00
Comm    | 0.053499   | 0.50186    | 1.5116     |  59.9 | 16.25
Output  | 0.00010101 | 0.000107   | 0.00025754 |   0.0 |  0.00
Modify  | 3.3795e-05 | 0.0044028  | 0.0094719  |   3.1 |  0.14
Other   |            | 0.3362     |            |       | 10.88

Nlocal:        2776.45 ave        3930 max           0 min
Histogram: 8 4 4 0 4 12 8 0 26 38
Nghost:        3879.12 ave        5425 max         232 min
Histogram: 8 0 8 0 16 0 8 8 16 40
Neighs:        79213.4 ave      114446 max           0 min
Histogram: 8 4 4 0 8 8 8 8 20 36

Total # of neighbors = 8238196
Ave neighs/atom = 28.530450
Neighbor list builds = 0
Dangerous builds = 0
The dot product: 1.77102140280568e-09
The angle: 89.8986476540953
Setting atom values ...
  1 settings made for x
  1 settings made for y
  1 settings made for z
Setting up cg style minimization ...
  Unit style    : metal
  Current step  : 4052
Per MPI rank memory allocation (min/avg/max) = 5.441 | 5.816 | 6.074 Mbytes
Step PotEng KinEng TotEng v_fx v_fy v_fz 
    4052   -1152448.7            0   -1152448.7  0.048983708 -0.0071110733  0.043908005 
    4338   -1152448.7            0   -1152448.7 1.8587726e-07 -4.9741572e-09 -5.8838571e-08 
Loop time of 3.32134 on 104 procs for 286 steps with 288751 atoms

99.9% CPU use with 104 MPI tasks x 1 OpenMP threads

Minimization stats:
  Stopping criterion = energy tolerance
  Energy initial, next-to-last, final = 
      -1152448.7040273  -1152448.70816736  -1152448.70816736
  Force two-norm initial, final = 0.31445957 1.9457030e-06
  Force max component initial, final = 0.28796852 6.4226428e-07
  Final line search alpha, max atom move = 1.0000000 6.4226428e-07
  Iterations, force evaluations = 286 572

MPI task timing breakdown:
Section |  min time  |  avg time  |  max time  |%varavg| %total
---------------------------------------------------------------
Pair    | 0.87647    | 2.4044     | 3.1188     |  41.8 | 72.39
Neigh   | 0          | 0          | 0          |   0.0 |  0.00
Comm    | 0.0603     | 0.54066    | 1.6413     |  62.2 | 16.28
Output  | 0          | 0          | 0          |   0.0 |  0.00
Modify  | 3.6372e-05 | 0.0047169  | 0.010068   |   3.2 |  0.14
Other   |            | 0.3716     |            |       | 11.19

Nlocal:        2776.45 ave        3930 max           0 min
Histogram: 8 4 4 0 4 12 8 0 26 38
Nghost:        3879.12 ave        5425 max         232 min
Histogram: 8 0 8 0 16 0 8 8 16 40
Neighs:        79213.4 ave      114454 max           0 min
Histogram: 8 4 4 0 8 8 8 8 20 36

Total # of neighbors = 8238197
Ave neighs/atom = 28.530454
Neighbor list builds = 0
Dangerous builds = 0
The dot product: 1.93935874959921e-09
The angle: 89.4302499315161
Setting atom values ...
  1 settings made for x
  1 settings made for y
  1 settings made for z
Setting up cg style minimization ...
  Unit style    : metal
  Current step  : 4338
Per MPI rank memory allocation (min/avg/max) = 5.441 | 5.816 | 6.074 Mbytes
Step PotEng KinEng TotEng v_fx v_fy v_fz 
    4338   -1152448.6            0   -1152448.6  0.038209466 -0.005129864  0.046415694 
    4588   -1152448.7            0   -1152448.7 1.9418969e-06 -4.1353953e-07 4.3427584e-06 
Loop time of 2.90957 on 104 procs for 250 steps with 288751 atoms

99.9% CPU use with 104 MPI tasks x 1 OpenMP threads

Minimization stats:
  Stopping criterion = energy tolerance
  Energy initial, next-to-last, final = 
     -1152448.64156938  -1152448.68042814  -1152448.68042814
  Force two-norm initial, final = 0.33002377 7.9555521e-05
  Force max component initial, final = 0.29631372 4.3427584e-06
  Final line search alpha, max atom move = 1.0000000 4.3427584e-06
  Iterations, force evaluations = 250 499

MPI task timing breakdown:
Section |  min time  |  avg time  |  max time  |%varavg| %total
---------------------------------------------------------------
Pair    | 0.76798    | 2.0966     | 2.7278     |  38.8 | 72.06
Neigh   | 1.0163e-05 | 0.0029513  | 0.0042359  |   2.2 |  0.10
Comm    | 0.053803   | 0.47311    | 1.4025     |  57.0 | 16.26
Output  | 0          | 0          | 0          |   0.0 |  0.00
Modify  | 3.1574e-05 | 0.0041271  | 0.0088672  |   3.0 |  0.14
Other   |            | 0.3327     |            |       | 11.44

Nlocal:        2776.45 ave        3930 max           0 min
Histogram: 8 4 4 0 4 12 8 0 26 38
Nghost:        3879.09 ave        5425 max         232 min
Histogram: 8 0 8 0 16 0 8 8 16 40
Neighs:        79213.5 ave      114453 max           0 min
Histogram: 8 4 4 0 8 8 8 8 20 36

Total # of neighbors = 8238199
Ave neighs/atom = 28.530461
Neighbor list builds = 1
Dangerous builds = 0
The dot product: 2.14422210151193e-07
The angle: 87.4263085556024
Setting atom values ...
  1 settings made for x
  1 settings made for y
  1 settings made for z
Setting up cg style minimization ...
  Unit style    : metal
  Current step  : 4588
Per MPI rank memory allocation (min/avg/max) = 5.441 | 5.816 | 6.074 Mbytes
Step PotEng KinEng TotEng v_fx v_fy v_fz 
    4588   -1152448.6            0   -1152448.6  0.026333419 -0.0025476988  0.054883062 
    4773   -1152448.6            0   -1152448.6 4.0737798e-06 -3.237183e-07 6.6081846e-06 
Loop time of 2.13898 on 104 procs for 185 steps with 288751 atoms

99.9% CPU use with 104 MPI tasks x 1 OpenMP threads

Minimization stats:
  Stopping criterion = energy tolerance
  Energy initial, next-to-last, final = 
     -1152448.63411874   -1152448.6391844   -1152448.6391844
  Force two-norm initial, final = 0.34223607 0.00015090436
  Force max component initial, final = 0.30822189 5.3542052e-05
  Final line search alpha, max atom move = 1.0000000 5.3542052e-05
  Iterations, force evaluations = 185 370

MPI task timing breakdown:
Section |  min time  |  avg time  |  max time  |%varavg| %total
---------------------------------------------------------------
Pair    | 0.56324    | 1.5517     | 2.0058     |  33.4 | 72.54
Neigh   | 0          | 0          | 0          |   0.0 |  0.00
Comm    | 0.038681   | 0.34887    | 1.0596     |  50.0 | 16.31
Output  | 0          | 0          | 0          |   0.0 |  0.00
Modify  | 2.312e-05  | 0.0030502  | 0.0064965  |   2.6 |  0.14
Other   |            | 0.2354     |            |       | 11.00

Nlocal:        2776.45 ave        3930 max           0 min
Histogram: 8 4 4 0 4 12 8 0 26 38
Nghost:        3879.09 ave        5425 max         232 min
Histogram: 8 0 8 0 16 0 8 8 16 40
Neighs:        79213.4 ave      114453 max           0 min
Histogram: 8 4 4 0 8 8 8 8 20 36

Total # of neighbors = 8238189
Ave neighs/atom = 28.530426
Neighbor list builds = 0
Dangerous builds = 0
The dot product: 1.73885730479464e-07
The angle: 88.7176181635544
Setting atom values ...
  1 settings made for x
  1 settings made for y
  1 settings made for z
Setting up cg style minimization ...
  Unit style    : metal
  Current step  : 4773
Per MPI rank memory allocation (min/avg/max) = 5.441 | 5.816 | 6.074 Mbytes
Step PotEng KinEng TotEng v_fx v_fy v_fz 
    4773   -1152448.6            0   -1152448.6   0.01153181 -0.00058740657  0.028053868 
    4942   -1152448.6            0   -1152448.6 -3.1824013e-06 9.5571277e-08 -3.9347958e-06 
Loop time of 1.96218 on 104 procs for 169 steps with 288751 atoms

99.9% CPU use with 104 MPI tasks x 1 OpenMP threads

Minimization stats:
  Stopping criterion = energy tolerance
  Energy initial, next-to-last, final = 
     -1152448.59211768  -1152448.59775483  -1152448.59775483
  Force two-norm initial, final = 0.34934315 0.00020237876
  Force max component initial, final = 0.31508265 6.5454942e-05
  Final line search alpha, max atom move = 1.0000000 6.5454942e-05
  Iterations, force evaluations = 169 338

MPI task timing breakdown:
Section |  min time  |  avg time  |  max time  |%varavg| %total
---------------------------------------------------------------
Pair    | 0.51722    | 1.4214     | 1.853      |  32.1 | 72.44
Neigh   | 0          | 0          | 0          |   0.0 |  0.00
Comm    | 0.031012   | 0.32116    | 0.96281    |  47.3 | 16.37
Output  | 0          | 0          | 0          |   0.0 |  0.00
Modify  | 2.1307e-05 | 0.0027901  | 0.0059488  |   2.5 |  0.14
Other   |            | 0.2169     |            |       | 11.05

Nlocal:        2776.45 ave        3930 max           0 min
Histogram: 8 4 4 0 4 12 8 0 26 38
Nghost:        3879.12 ave        5425 max         232 min
Histogram: 8 0 8 0 16 0 8 8 16 40
Neighs:        79213.3 ave      114453 max           0 min
Histogram: 8 4 4 0 8 8 8 8 20 36

Total # of neighbors = 8238188
Ave neighs/atom = 28.530422
Neighbor list builds = 0
Dangerous builds = 0
The dot product: -5.42105161428619e-08
The angle: 90.6136627278357
Setting atom values ...
  1 settings made for x
  1 settings made for y
  1 settings made for z
Setting up cg style minimization ...
  Unit style    : metal
  Current step  : 4942
Per MPI rank memory allocation (min/avg/max) = 5.441 | 5.816 | 6.074 Mbytes
Step PotEng KinEng TotEng v_fx v_fy v_fz 
    4942   -1152448.6            0   -1152448.6 0.0044543405 -0.00011507134  0.013034804 
    5000   -1152448.6            0   -1152448.6 -0.00012134945 1.106593e-06 -8.8106535e-05 
    5136   -1152448.6            0   -1152448.6 -1.0547108e-06 -6.4473917e-09 1.3490322e-06 
Loop time of 2.28615 on 104 procs for 194 steps with 288751 atoms

99.9% CPU use with 104 MPI tasks x 1 OpenMP threads

Minimization stats:
  Stopping criterion = energy tolerance
  Energy initial, next-to-last, final = 
      -1152448.5513003  -1152448.55590707  -1152448.55590707
  Force two-norm initial, final = 0.35234315 8.8314742e-05
  Force max component initial, final = 0.32215857 3.5774638e-05
  Final line search alpha, max atom move = 1.0000000 3.5774638e-05
  Iterations, force evaluations = 194 388

MPI task timing breakdown:
Section |  min time  |  avg time  |  max time  |%varavg| %total
---------------------------------------------------------------
Pair    | 0.5927     | 1.6337     | 2.1205     |  34.5 | 71.46
Neigh   | 0          | 0          | 0          |   0.0 |  0.00
Comm    | 0.03896    | 0.36896    | 1.1076     |  50.4 | 16.14
Output  | 9.5851e-05 | 0.00010187 | 0.00021961 |   0.0 |  0.00
Modify  | 2.5207e-05 | 0.0032006  | 0.0068104  |   2.7 |  0.14
Other   |            | 0.2802     |            |       | 12.25

Nlocal:        2776.45 ave        3930 max           0 min
Histogram: 8 4 4 0 4 12 8 0 26 38
Nghost:        3879.11 ave        5425 max         232 min
Histogram: 8 0 8 0 16 0 8 8 16 40
Neighs:        79213.3 ave      114453 max           0 min
Histogram: 8 4 4 0 8 8 8 8 20 36

Total # of neighbors = 8238187
Ave neighs/atom = 28.530419
Neighbor list builds = 0
Dangerous builds = 0
The dot product: 3.64536148427926e-09
The angle: 89.8780291396598
Setting atom values ...
  1 settings made for x
  1 settings made for y
  1 settings made for z
Setting up cg style minimization ...
  Unit style    : metal
  Current step  : 5136
Per MPI rank memory allocation (min/avg/max) = 5.441 | 5.816 | 6.074 Mbytes
Step PotEng KinEng TotEng v_fx v_fy v_fz 
    5136   -1152448.5            0   -1152448.5 0.0014632902 -2.0947533e-05 0.0055411903 
    5291   -1152448.5            0   -1152448.5 1.5830939e-06 -1.3984082e-09 -3.521219e-07 
Loop time of 1.80366 on 104 procs for 155 steps with 288751 atoms

99.9% CPU use with 104 MPI tasks x 1 OpenMP threads

Minimization stats:
  Stopping criterion = energy tolerance
  Energy initial, next-to-last, final = 
     -1152448.50569939  -1152448.51042107  -1152448.51042107
  Force two-norm initial, final = 0.35808364 8.5542304e-05
  Force max component initial, final = 0.32899643 4.0977842e-05
  Final line search alpha, max atom move = 1.0000000 4.0977842e-05
  Iterations, force evaluations = 155 310

MPI task timing breakdown:
Section |  min time  |  avg time  |  max time  |%varavg| %total
---------------------------------------------------------------
Pair    | 0.47566    | 1.3087     | 1.7007     |  30.8 | 72.56
Neigh   | 0          | 0          | 0          |   0.0 |  0.00
Comm    | 0.031207   | 0.29325    | 0.88124    |  45.8 | 16.26
Output  | 0          | 0          | 0          |   0.0 |  0.00
Modify  | 2.0197e-05 | 0.0025565  | 0.0054612  |   2.4 |  0.14
Other   |            | 0.1991     |            |       | 11.04

Nlocal:        2776.45 ave        3930 max           0 min
Histogram: 8 4 4 0 4 12 8 0 26 38
Nghost:        3879.11 ave        5425 max         232 min
Histogram: 8 0 8 0 16 0 8 8 16 40
Neighs:        79213.3 ave      114454 max           0 min
Histogram: 8 4 4 0 8 8 8 8 20 36

Total # of neighbors = 8238187
Ave neighs/atom = 28.530419
Neighbor list builds = 0
Dangerous builds = 0
The dot product: 6.60250175797312e-10
The angle: 89.9766740907224
Setting up cg style minimization ...
  Unit style    : metal
  Current step  : 5291
Per MPI rank memory allocation (min/avg/max) = 5.441 | 5.816 | 6.074 Mbytes
Step PotEng KinEng TotEng v_fx v_fy v_fz 
    5291   -1152448.5            0   -1152448.5  0.002590666    1.5898294 0.0053260171 
    5481   -1152449.3            0   -1152449.3 -4.0562073e-05 -7.505457e-08 3.6311746e-05 
Loop time of 2.17189 on 104 procs for 190 steps with 288751 atoms

99.9% CPU use with 104 MPI tasks x 1 OpenMP threads

Minimization stats:
  Stopping criterion = energy tolerance
  Energy initial, next-to-last, final = 
     -1152448.51042107  -1152449.34502401  -1152449.34502401
  Force two-norm initial, final = 1.5898405 0.00019494013
  Force max component initial, final = 1.5898294 4.0562073e-05
  Final line search alpha, max atom move = 1.0000000 4.0562073e-05
  Iterations, force evaluations = 190 374

MPI task timing breakdown:
Section |  min time  |  avg time  |  max time  |%varavg| %total
---------------------------------------------------------------
Pair    | 0.58624    | 1.5707     | 2.0341     |  33.3 | 72.32
Neigh   | 4.0293e-05 | 0.011842   | 0.017171   |   4.5 |  0.55
Comm    | 0.039296   | 0.35182    | 1.0623     |  50.1 | 16.20
Output  | 0          | 0          | 0          |   0.0 |  0.00
Modify  | 2.1578e-05 | 0.0020044  | 0.0051319  |   2.8 |  0.09
Other   |            | 0.2355     |            |       | 10.84

Nlocal:        2776.45 ave        3930 max           0 min
Histogram: 8 4 4 0 4 12 8 0 26 38
Nghost:        3879.12 ave        5425 max         232 min
Histogram: 8 0 8 0 16 0 8 8 16 40
Neighs:        79213.3 ave      114453 max           0 min
Histogram: 8 4 4 0 8 8 8 8 20 36

Total # of neighbors = 8238186
Ave neighs/atom = 28.530415
Neighbor list builds = 4
Dangerous builds = 0
2
OMP_NUM_THREADS environment is not set. Defaulting to 1 thread. (../comm.cpp:94)
  using 1 OpenMP thread(s) per MPI task
Reading data file ...
  orthogonal box = (-122.39241 -121.13707 -37.090501) to (122.39241 121.13707 37.090501)
  13 by 4 by 2 MPI processor grid
  reading atoms ...
  288751 atoms
  read_data CPU = 0.342 seconds
199981 atoms in group inner
88770 atoms in group outer
1 atoms in group carbon
Neighbor list info ...
  update every 1 steps, delay 0 steps, check yes
  max neighbors/atom: 2000, page size: 100000
  master list distance cutoff = 5.6
  ghost atom cutoff = 5.6
  binsize = 2.8, bins = 88 87 27
  1 neighbor lists, perpetual/occasional/extra = 1 0 0
  (1) pair eam/alloy, perpetual
      attributes: half, newton on
      pair build: half/bin/atomonly/newton
      stencil: half/bin/3d/newton
      bin: standard
Setting up cg style minimization ...
  Unit style    : metal
  Current step  : 0
Per MPI rank memory allocation (min/avg/max) = 5.441 | 5.816 | 6.074 Mbytes
Step v_fx v_fy v_fz PotEng KinEng TotEng 
       0    9.2589799   0.21494723   -8.1285502   -1152446.2            0   -1152446.2 
     158 3.4751302e-05 -2.6982236e-06 -3.5571577e-05   -1152449.3            0   -1152449.3 
Loop time of 1.8626 on 104 procs for 158 steps with 288751 atoms

99.9% CPU use with 104 MPI tasks x 1 OpenMP threads

Minimization stats:
  Stopping criterion = energy tolerance
  Energy initial, next-to-last, final = 
     -1152446.23480014  -1152449.34502403  -1152449.34502403
  Force two-norm initial, final = 22.470913 0.00017697811
  Force max component initial, final = 15.081250 5.4906483e-05
  Final line search alpha, max atom move = 1.0000000 5.4906483e-05
  Iterations, force evaluations = 158 314

MPI task timing breakdown:
Section |  min time  |  avg time  |  max time  |%varavg| %total
---------------------------------------------------------------
Pair    | 0.49002    | 1.3291     | 1.7486     |  30.8 | 71.36
Neigh   | 3.0184e-05 | 0.0088707  | 0.013008   |   3.9 |  0.48
Comm    | 0.029702   | 0.30573    | 0.90265    |  45.0 | 16.41
Output  | 0          | 0          | 0          |   0.0 |  0.00
Modify  | 1.8043e-05 | 0.0016893  | 0.0043844  |   2.6 |  0.09
Other   |            | 0.2172     |            |       | 11.66

Nlocal:        2776.45 ave        3960 max           0 min
Histogram: 8 4 4 0 4 12 8 2 28 34
Nghost:        3879.01 ave        5424 max         232 min
Histogram: 8 0 8 0 16 0 8 8 16 40
Neighs:        79213.5 ave      115434 max           0 min
Histogram: 8 4 4 0 10 6 8 8 24 32

Total # of neighbors = 8238207
Ave neighs/atom = 28.530488
Neighbor list builds = 3
Dangerous builds = 0
Setting atom values ...
  1 settings made for x
  1 settings made for y
  1 settings made for z
Setting up cg style minimization ...
  Unit style    : metal
  Current step  : 158
Per MPI rank memory allocation (min/avg/max) = 5.441 | 5.816 | 6.074 Mbytes
Step PotEng KinEng TotEng v_fx v_fy v_fz 
     158   -1152449.3            0   -1152449.3 -0.0089609675  0.018760303   0.02448958 
     359   -1152449.3            0   -1152449.3 1.4738536e-05 -4.2972226e-07 -9.0440398e-06 
Loop time of 2.32994 on 104 procs for 201 steps with 288751 atoms

99.9% CPU use with 104 MPI tasks x 1 OpenMP threads

Minimization stats:
  Stopping criterion = energy tolerance
  Energy initial, next-to-last, final = 
     -1152449.34069655   -1152449.3434106   -1152449.3434106
  Force two-norm initial, final = 0.22960683 0.00012017139
  Force max component initial, final = 0.10128229 1.4738536e-05
  Final line search alpha, max atom move = 1.0000000 1.4738536e-05
  Iterations, force evaluations = 201 402

MPI task timing breakdown:
Section |  min time  |  avg time  |  max time  |%varavg| %total
---------------------------------------------------------------
Pair    | 0.61309    | 1.6831     | 2.194      |  34.9 | 72.24
Neigh   | 0          | 0          | 0          |   0.0 |  0.00
Comm    | 0.036331   | 0.37698    | 1.1334     |  51.6 | 16.18
Output  | 0          | 0          | 0          |   0.0 |  0.00
Modify  | 2.4152e-05 | 0.0033078  | 0.007117   |   2.7 |  0.14
Other   |            | 0.2666     |            |       | 11.44

Nlocal:        2776.45 ave        3961 max           0 min
Histogram: 8 4 4 0 6 10 8 2 28 34
Nghost:        3879.02 ave        5424 max         232 min
Histogram: 8 0 8 0 16 0 8 8 16 40
Neighs:        79213.3 ave      115469 max           0 min
Histogram: 8 4 4 0 10 6 8 8 24 32

Total # of neighbors = 8238184
Ave neighs/atom = 28.530409
Neighbor list builds = 0
Dangerous builds = 0
Setting atom values ...
  1 settings made for x
  1 settings made for y
  1 settings made for z
Setting up cg style minimization ...
  Unit style    : metal
  Current step  : 359
Per MPI rank memory allocation (min/avg/max) = 5.441 | 5.816 | 6.074 Mbytes
Step PotEng KinEng TotEng v_fx v_fy v_fz 
     359   -1152449.3            0   -1152449.3 -0.0074006581  0.022851268  0.029290575 
     549   -1152449.3            0   -1152449.3 3.4993305e-05 -7.0093968e-06 -2.7821628e-05 
Loop time of 2.25251 on 104 procs for 190 steps with 288751 atoms

99.9% CPU use with 104 MPI tasks x 1 OpenMP threads

Minimization stats:
  Stopping criterion = energy tolerance
  Energy initial, next-to-last, final = 
     -1152449.33474427  -1152449.33796034  -1152449.33796034
  Force two-norm initial, final = 0.25031452 0.00018179392
  Force max component initial, final = 0.11750046 5.6267126e-05
  Final line search alpha, max atom move = 1.0000000 5.6267126e-05
  Iterations, force evaluations = 190 380

MPI task timing breakdown:
Section |  min time  |  avg time  |  max time  |%varavg| %total
---------------------------------------------------------------
Pair    | 0.58294    | 1.6053     | 2.1275     |  34.2 | 71.27
Neigh   | 0          | 0          | 0          |   0.0 |  0.00
Comm    | 0.036587   | 0.3728     | 1.0989     |  49.2 | 16.55
Output  | 0          | 0          | 0          |   0.0 |  0.00
Modify  | 2.2711e-05 | 0.0031358  | 0.0067966  |   2.7 |  0.14
Other   |            | 0.2713     |            |       | 12.04

Nlocal:        2776.45 ave        3961 max           0 min
Histogram: 8 4 4 0 6 10 8 2 28 34
Nghost:        3879.01 ave        5424 max         232 min
Histogram: 8 0 8 0 16 0 8 8 16 40
Neighs:        79213.3 ave      115498 max           0 min
Histogram: 8 4 4 0 10 6 8 8 24 32

Total # of neighbors = 8238183
Ave neighs/atom = 28.530405
Neighbor list builds = 0
Dangerous builds = 0
The dot product: -2.53393686189479e-07
The angle: 90.3208388056761
Setting atom values ...
  1 settings made for x
  1 settings made for y
  1 settings made for z
Setting up cg style minimization ...
  Unit style    : metal
  Current step  : 549
Per MPI rank memory allocation (min/avg/max) = 5.441 | 5.816 | 6.074 Mbytes
Step PotEng KinEng TotEng v_fx v_fy v_fz 
     549   -1152449.3            0   -1152449.3 -0.0091201114   0.02545792  0.035119323 
     815   -1152449.3            0   -1152449.3 -9.3526576e-08 -1.1305128e-07 -7.9336359e-08 
Loop time of 3.06987 on 104 procs for 266 steps with 288751 atoms

99.9% CPU use with 104 MPI tasks x 1 OpenMP threads

Minimization stats:
  Stopping criterion = energy tolerance
  Energy initial, next-to-last, final = 
     -1152449.32555222  -1152449.32870889  -1152449.32870889
  Force two-norm initial, final = 0.2495086 3.3670450e-06
  Force max component initial, final = 0.12457192 2.8297594e-07
  Final line search alpha, max atom move = 1.0000000 2.8297594e-07
  Iterations, force evaluations = 266 532

MPI task timing breakdown:
Section |  min time  |  avg time  |  max time  |%varavg| %total
---------------------------------------------------------------
Pair    | 0.81251    | 2.2308     | 2.9004     |  40.1 | 72.67
Neigh   | 0          | 0          | 0          |   0.0 |  0.00
Comm    | 0.051746   | 0.50012    | 1.5068     |  59.5 | 16.29
Output  | 0          | 0          | 0          |   0.0 |  0.00
Modify  | 3.1898e-05 | 0.0043923  | 0.0093887  |   3.1 |  0.14
Other   |            | 0.3345     |            |       | 10.90

Nlocal:        2776.45 ave        3961 max           0 min
Histogram: 8 4 4 0 6 10 8 2 28 34
Nghost:        3879.05 ave        5424 max         232 min
Histogram: 8 0 8 0 16 0 8 8 16 40
Neighs:        79213.3 ave      115481 max           0 min
Histogram: 8 4 4 0 10 6 8 8 24 32

Total # of neighbors = 8238183
Ave neighs/atom = 28.530405
Neighbor list builds = 0
Dangerous builds = 0
The dot product: -5.78403997011548e-09
The angle: 91.9872214908254
Setting atom values ...
  1 settings made for x
  1 settings made for y
  1 settings made for z
Setting up cg style minimization ...
  Unit style    : metal
  Current step  : 815
Per MPI rank memory allocation (min/avg/max) = 5.441 | 5.816 | 6.074 Mbytes
Step PotEng KinEng TotEng v_fx v_fy v_fz 
     815   -1152449.3            0   -1152449.3 -0.013901604   0.02611578   0.04141494 
    1000   -1152449.3            0   -1152449.3 2.9230484e-05 -7.9966569e-06 -2.7301294e-05 
    1023   -1152449.3            0   -1152449.3 -8.4151352e-06 -2.8547696e-06 1.2887937e-06 
Loop time of 2.42593 on 104 procs for 208 steps with 288751 atoms

99.9% CPU use with 104 MPI tasks x 1 OpenMP threads

Minimization stats:
  Stopping criterion = energy tolerance
  Energy initial, next-to-last, final = 
     -1152449.31308733  -1152449.31613712  -1152449.31613712
  Force two-norm initial, final = 0.24856327 6.3710528e-05
  Force max component initial, final = 0.13225621 1.2741773e-05
  Final line search alpha, max atom move = 1.0000000 1.2741773e-05
  Iterations, force evaluations = 208 416

MPI task timing breakdown:
Section |  min time  |  avg time  |  max time  |%varavg| %total
---------------------------------------------------------------
Pair    | 0.63558    | 1.7531     | 2.2923     |  35.7 | 72.27
Neigh   | 0          | 0          | 0          |   0.0 |  0.00
Comm    | 0.040397   | 0.39653    | 1.1831     |  52.5 | 16.35
Output  | 0.00010015 | 0.00011008 | 0.00026186 |   0.0 |  0.00
Modify  | 2.511e-05  | 0.003431   | 0.0073501  |   2.8 |  0.14
Other   |            | 0.2727     |            |       | 11.24

Nlocal:        2776.45 ave        3961 max           0 min
Histogram: 8 4 4 0 6 10 8 4 26 34
Nghost:        3879.12 ave        5424 max         232 min
Histogram: 8 0 8 0 16 0 8 8 16 40
Neighs:        79213.3 ave      115482 max           0 min
Histogram: 8 4 4 0 10 6 8 8 24 32

Total # of neighbors = 8238183
Ave neighs/atom = 28.530405
Neighbor list builds = 0
Dangerous builds = 0
The dot product: 7.49292879629273e-08
The angle: 89.521872327824
Setting atom values ...
  1 settings made for x
  1 settings made for y
  1 settings made for z
Setting up cg style minimization ...
  Unit style    : metal
  Current step  : 1023
Per MPI rank memory allocation (min/avg/max) = 5.441 | 5.816 | 6.074 Mbytes
Step PotEng KinEng TotEng v_fx v_fy v_fz 
    1023   -1152449.3            0   -1152449.3 -0.011476688  0.022539527  0.039214389 
    1213   -1152449.3            0   -1152449.3 -1.2313267e-05 2.2797989e-06 1.1191964e-05 
Loop time of 2.20508 on 104 procs for 190 steps with 288751 atoms

99.9% CPU use with 104 MPI tasks x 1 OpenMP threads

Minimization stats:
  Stopping criterion = energy tolerance
  Energy initial, next-to-last, final = 
     -1152449.29809511  -1152449.30106415  -1152449.30106415
  Force two-norm initial, final = 0.24599419 8.2216240e-05
  Force max component initial, final = 0.14002415 2.3023290e-05
  Final line search alpha, max atom move = 1.0000000 2.3023290e-05
  Iterations, force evaluations = 190 380

MPI task timing breakdown:
Section |  min time  |  avg time  |  max time  |%varavg| %total
---------------------------------------------------------------
Pair    | 0.58072    | 1.5949     | 2.0775     |  33.9 | 72.33
Neigh   | 0          | 0          | 0          |   0.0 |  0.00
Comm    | 0.036353   | 0.36066    | 1.0761     |  50.0 | 16.36
Output  | 0          | 0          | 0          |   0.0 |  0.00
Modify  | 2.284e-05  | 0.0031324  | 0.0067263  |   2.6 |  0.14
Other   |            | 0.2464     |            |       | 11.17

Nlocal:        2776.45 ave        3961 max           0 min
Histogram: 8 4 4 0 6 10 8 4 26 34
Nghost:        3879.11 ave        5424 max         232 min
Histogram: 8 0 8 0 16 0 8 8 16 40
Neighs:        79213.3 ave      115483 max           0 min
Histogram: 8 4 4 0 10 6 8 8 24 32

Total # of neighbors = 8238184
Ave neighs/atom = 28.530409
Neighbor list builds = 0
Dangerous builds = 0
The dot product: 5.52242378356391e-07
The angle: 88.1157043243034
Setting atom values ...
  1 settings made for x
  1 settings made for y
  1 settings made for z
Setting up cg style minimization ...
  Unit style    : metal
  Current step  : 1213
Per MPI rank memory allocation (min/avg/max) = 5.441 | 5.816 | 6.074 Mbytes
Step PotEng KinEng TotEng v_fx v_fy v_fz 
    1213   -1152449.3            0   -1152449.3 -0.007708258  0.018269103  0.033585779 
    1380   -1152449.3            0   -1152449.3 1.6453945e-05 -6.4867495e-07 -1.2720494e-05 
Loop time of 1.94444 on 104 procs for 167 steps with 288751 atoms

99.9% CPU use with 104 MPI tasks x 1 OpenMP threads

Minimization stats:
  Stopping criterion = energy tolerance
  Energy initial, next-to-last, final = 
     -1152449.28066236  -1152449.28355137  -1152449.28355137
  Force two-norm initial, final = 0.24254503 0.00021555641
  Force max component initial, final = 0.14682542 2.7079367e-05
  Final line search alpha, max atom move = 1.0000000 2.7079367e-05
  Iterations, force evaluations = 167 334

MPI task timing breakdown:
Section |  min time  |  avg time  |  max time  |%varavg| %total
---------------------------------------------------------------
Pair    | 0.51342    | 1.4064     | 1.8311     |  31.8 | 72.33
Neigh   | 0          | 0          | 0          |   0.0 |  0.00
Comm    | 0.031509   | 0.31661    | 0.95373    |  46.8 | 16.28
Output  | 0          | 0          | 0          |   0.0 |  0.00
Modify  | 1.9907e-05 | 0.0027537  | 0.0059495  |   2.5 |  0.14
Other   |            | 0.2187     |            |       | 11.25

Nlocal:        2776.45 ave        3961 max           0 min
Histogram: 8 4 4 0 6 10 8 4 26 34
Nghost:        3879.11 ave        5424 max         232 min
Histogram: 8 0 8 0 16 0 8 8 16 40
Neighs:        79213.3 ave      115482 max           0 min
Histogram: 8 4 4 0 10 6 8 8 24 32

Total # of neighbors = 8238183
Ave neighs/atom = 28.530405
Neighbor list builds = 0
Dangerous builds = 0
The dot product: -4.51165706414083e-07
The angle: 91.2424154321923
Setting atom values ...
  1 settings made for x
  1 settings made for y
  1 settings made for z
Setting up cg style minimization ...
  Unit style    : metal
  Current step  : 1380
Per MPI rank memory allocation (min/avg/max) = 5.441 | 5.816 | 6.074 Mbytes
Step PotEng KinEng TotEng v_fx v_fy v_fz 
    1380   -1152449.3            0   -1152449.3 -0.0042101654  0.014737656  0.027431232 
    1566   -1152449.3            0   -1152449.3 -2.6255401e-05 -2.8689466e-06 1.5374743e-05 
Loop time of 2.14953 on 104 procs for 186 steps with 288751 atoms

99.9% CPU use with 104 MPI tasks x 1 OpenMP threads

Minimization stats:
  Stopping criterion = energy tolerance
  Energy initial, next-to-last, final = 
     -1152449.26048868   -1152449.2633037   -1152449.2633037
  Force two-norm initial, final = 0.24005855 0.00010593409
  Force max component initial, final = 0.15255076 2.6255401e-05
  Final line search alpha, max atom move = 1.0000000 2.6255401e-05
  Iterations, force evaluations = 186 372

MPI task timing breakdown:
Section |  min time  |  avg time  |  max time  |%varavg| %total
---------------------------------------------------------------
Pair    | 0.56718    | 1.5619     | 2.0298     |  33.7 | 72.66
Neigh   | 0          | 0          | 0          |   0.0 |  0.00
Comm    | 0.034803   | 0.34959    | 1.054      |  50.0 | 16.26
Output  | 0          | 0          | 0          |   0.0 |  0.00
Modify  | 2.2525e-05 | 0.0030709  | 0.0065758  |   2.6 |  0.14
Other   |            | 0.2349     |            |       | 10.93

Nlocal:        2776.45 ave        3961 max           0 min
Histogram: 8 4 4 0 6 10 8 4 26 34
Nghost:        3879.11 ave        5424 max         232 min
Histogram: 8 0 8 0 16 0 8 8 16 40
Neighs:        79213.3 ave      115482 max           0 min
Histogram: 8 4 4 0 10 6 8 8 24 32

Total # of neighbors = 8238183
Ave neighs/atom = 28.530405
Neighbor list builds = 0
Dangerous builds = 0
The dot product: 3.52553480139486e-07
The angle: 89.3390125498118
Setting atom values ...
  1 settings made for x
  1 settings made for y
  1 settings made for z
Setting up cg style minimization ...
  Unit style    : metal
  Current step  : 1566
Per MPI rank memory allocation (min/avg/max) = 5.441 | 5.816 | 6.074 Mbytes
Step PotEng KinEng TotEng v_fx v_fy v_fz 
    1566   -1152449.2            0   -1152449.2 -0.0013243564  0.012087301  0.021882028 
    1784   -1152449.2            0   -1152449.2 5.8824682e-08 1.9586163e-06 3.3262904e-06 
Loop time of 2.59078 on 104 procs for 218 steps with 288751 atoms

99.9% CPU use with 104 MPI tasks x 1 OpenMP threads

Minimization stats:
  Stopping criterion = energy tolerance
  Energy initial, next-to-last, final = 
       -1152449.237309  -1152449.24006424  -1152449.24006424
  Force two-norm initial, final = 0.23863145 4.1081737e-05
  Force max component initial, final = 0.15751579 9.8239547e-06
  Final line search alpha, max atom move = 1.0000000 9.8239547e-06
  Iterations, force evaluations = 218 436

MPI task timing breakdown:
Section |  min time  |  avg time  |  max time  |%varavg| %total
---------------------------------------------------------------
Pair    | 0.6697     | 1.8461     | 2.4245     |  36.3 | 71.25
Neigh   | 0          | 0          | 0          |   0.0 |  0.00
Comm    | 0.049757   | 0.42509    | 1.2663     |  53.2 | 16.41
Output  | 0          | 0          | 0          |   0.0 |  0.00
Modify  | 2.6185e-05 | 0.0035919  | 0.0077988  |   2.8 |  0.14
Other   |            | 0.316      |            |       | 12.20

Nlocal:        2776.45 ave        3961 max           0 min
Histogram: 8 4 4 0 6 10 8 4 26 34
Nghost:        3879.09 ave        5424 max         232 min
Histogram: 8 0 8 0 16 0 8 8 16 40
Neighs:        79213.3 ave      115482 max           0 min
Histogram: 8 4 4 0 10 6 8 8 24 32

Total # of neighbors = 8238181
Ave neighs/atom = 28.530398
Neighbor list builds = 0
Dangerous builds = 0
The dot product: 5.2106339660653e-08
The angle: 89.2266480028073
Setting atom values ...
  1 settings made for x
  1 settings made for y
  1 settings made for z
Setting up cg style minimization ...
  Unit style    : metal
  Current step  : 1784
Per MPI rank memory allocation (min/avg/max) = 5.441 | 5.816 | 6.074 Mbytes
Step PotEng KinEng TotEng v_fx v_fy v_fz 
    1784   -1152449.2            0   -1152449.2 0.00091324876  0.010268166  0.017539838 
    1968   -1152449.2            0   -1152449.2 -3.4851247e-05 4.1313628e-06 3.6208491e-05 
Loop time of 2.14644 on 104 procs for 184 steps with 288751 atoms

99.9% CPU use with 104 MPI tasks x 1 OpenMP threads

Minimization stats:
  Stopping criterion = energy tolerance
  Energy initial, next-to-last, final = 
     -1152449.21090711  -1152449.21362286  -1152449.21362286
  Force two-norm initial, final = 0.23803219 0.00013744391
  Force max component initial, final = 0.16193503 3.6658886e-05
  Final line search alpha, max atom move = 1.0000000 3.6658886e-05
  Iterations, force evaluations = 184 368

MPI task timing breakdown:
Section |  min time  |  avg time  |  max time  |%varavg| %total
---------------------------------------------------------------
Pair    | 0.56361    | 1.5475     | 2.0129     |  33.5 | 72.10
Neigh   | 0          | 0          | 0          |   0.0 |  0.00
Comm    | 0.034482   | 0.34905    | 1.0416     |  49.2 | 16.26
Output  | 0          | 0          | 0          |   0.0 |  0.00
Modify  | 2.2438e-05 | 0.0030363  | 0.0064926  |   2.6 |  0.14
Other   |            | 0.2468     |            |       | 11.50

Nlocal:        2776.45 ave        3961 max           0 min
Histogram: 8 4 4 0 6 10 8 4 26 34
Nghost:        3879.09 ave        5425 max         232 min
Histogram: 8 0 8 0 16 0 8 8 16 40
Neighs:        79213.3 ave      115484 max           0 min
Histogram: 8 4 4 0 10 6 8 8 24 32

Total # of neighbors = 8238183
Ave neighs/atom = 28.530405
Neighbor list builds = 0
Dangerous builds = 0
The dot product: 3.36727237736887e-07
The angle: 89.6173922333195
Setting atom values ...
  1 settings made for x
  1 settings made for y
  1 settings made for z
Setting up cg style minimization ...
  Unit style    : metal
  Current step  : 1968
Per MPI rank memory allocation (min/avg/max) = 5.441 | 5.816 | 6.074 Mbytes
Step PotEng KinEng TotEng v_fx v_fy v_fz 
    1968   -1152449.2            0   -1152449.2 0.0028351266 0.0092201074  0.014461113 
    2000   -1152449.2            0   -1152449.2 -1.5239108e-05 0.00018561109 0.00035214903 
    2172   -1152449.2            0   -1152449.2 -1.967424e-05 2.6022417e-06 2.1361313e-05 
Loop time of 2.43763 on 104 procs for 204 steps with 288751 atoms

99.9% CPU use with 104 MPI tasks x 1 OpenMP threads

Minimization stats:
  Stopping criterion = energy tolerance
  Energy initial, next-to-last, final = 
     -1152449.18111126  -1152449.18380592  -1152449.18380592
  Force two-norm initial, final = 0.23817036 8.9033416e-05
  Force max component initial, final = 0.16607145 2.2913683e-05
  Final line search alpha, max atom move = 1.0000000 2.2913683e-05
  Iterations, force evaluations = 204 408

MPI task timing breakdown:
Section |  min time  |  avg time  |  max time  |%varavg| %total
---------------------------------------------------------------
Pair    | 0.62385    | 1.7254     | 2.2855     |  35.5 | 70.78
Neigh   | 0          | 0          | 0          |   0.0 |  0.00
Comm    | 0.043618   | 0.40032    | 1.1795     |  51.1 | 16.42
Output  | 0.00010141 | 0.00010338 | 0.00018457 |   0.0 |  0.00
Modify  | 2.4531e-05 | 0.0033699  | 0.0072565  |   2.7 |  0.14
Other   |            | 0.3085     |            |       | 12.65

Nlocal:        2776.45 ave        3961 max           0 min
Histogram: 8 4 4 0 6 10 8 4 26 34
Nghost:        3879.07 ave        5425 max         232 min
Histogram: 8 0 8 0 16 0 8 8 16 40
Neighs:        79213.3 ave      115486 max           0 min
Histogram: 8 4 4 0 10 6 8 8 24 32

Total # of neighbors = 8238184
Ave neighs/atom = 28.530409
Neighbor list builds = 0
Dangerous builds = 0
The dot product: 1.29227903920108e-07
The angle: 89.7460596103874
Setting atom values ...
  1 settings made for x
  1 settings made for y
  1 settings made for z
Setting up cg style minimization ...
  Unit style    : metal
  Current step  : 2172
Per MPI rank memory allocation (min/avg/max) = 5.441 | 5.816 | 6.074 Mbytes
Step PotEng KinEng TotEng v_fx v_fy v_fz 
    2172   -1152449.1            0   -1152449.1 0.0051819243 0.0088336465  0.012061253 
    2359   -1152449.2            0   -1152449.2 -1.3422432e-05 1.0014605e-05 3.0151504e-05 
Loop time of 2.16054 on 104 procs for 187 steps with 288751 atoms

99.9% CPU use with 104 MPI tasks x 1 OpenMP threads

Minimization stats:
  Stopping criterion = energy tolerance
  Energy initial, next-to-last, final = 
     -1152449.14776615  -1152449.15045896  -1152449.15045896
  Force two-norm initial, final = 0.23910058 0.00013631755
  Force max component initial, final = 0.17007364 3.0151504e-05
  Final line search alpha, max atom move = 1.0000000 3.0151504e-05
  Iterations, force evaluations = 187 374

MPI task timing breakdown:
Section |  min time  |  avg time  |  max time  |%varavg| %total
---------------------------------------------------------------
Pair    | 0.57205    | 1.5694     | 2.0407     |  33.7 | 72.64
Neigh   | 0          | 0          | 0          |   0.0 |  0.00
Comm    | 0.035881   | 0.35211    | 1.0588     |  50.0 | 16.30
Output  | 0          | 0          | 0          |   0.0 |  0.00
Modify  | 2.2717e-05 | 0.0030851  | 0.0066271  |   2.6 |  0.14
Other   |            | 0.236      |            |       | 10.92

Nlocal:        2776.45 ave        3961 max           0 min
Histogram: 8 4 4 0 6 10 8 4 26 34
Nghost:        3879.09 ave        5425 max         232 min
Histogram: 8 0 8 0 16 0 8 8 16 40
Neighs:        79213.3 ave      115478 max           0 min
Histogram: 8 4 4 0 10 6 8 8 24 32

Total # of neighbors = 8238183
Ave neighs/atom = 28.530405
Neighbor list builds = 0
Dangerous builds = 0
The dot product: 1.78515886309544e-07
The angle: 89.7034438327283
Setting atom values ...
  1 settings made for x
  1 settings made for y
  1 settings made for z
Setting up cg style minimization ...
  Unit style    : metal
  Current step  : 2359
Per MPI rank memory allocation (min/avg/max) = 5.441 | 5.816 | 6.074 Mbytes
Step PotEng KinEng TotEng v_fx v_fy v_fz 
    2359   -1152449.1            0   -1152449.1 0.0081959087 0.0091676142  0.010389005 
    2583   -1152449.1            0   -1152449.1 8.8524441e-06 9.4187961e-07 -5.8117825e-06 
Loop time of 2.65039 on 104 procs for 224 steps with 288751 atoms

99.9% CPU use with 104 MPI tasks x 1 OpenMP threads

Minimization stats:
  Stopping criterion = energy tolerance
  Energy initial, next-to-last, final = 
     -1152449.11071725  -1152449.11343514  -1152449.11343514
  Force two-norm initial, final = 0.24112058 4.1290583e-05
  Force max component initial, final = 0.17412192 9.1119427e-06
  Final line search alpha, max atom move = 1.0000000 9.1119427e-06
  Iterations, force evaluations = 224 448

[...]

Total # of neighbors = 8238198
Ave neighs/atom = 28.530457
Neighbor list builds = 0
Dangerous builds = 0
The dot product: -6.52831110852506e-08
The angle: 91.3138441829077
Setting atom values ...
  1 settings made for x
  1 settings made for y
  1 settings made for z
Setting up cg style minimization ...
  Unit style    : metal
  Current step  : 3538
Per MPI rank memory allocation (min/avg/max) = 5.441 | 5.816 | 6.074 Mbytes
Step PotEng KinEng TotEng v_fx v_fy v_fz 
    3538   -1152448.7            0   -1152448.7 -0.019473557 -0.0044212397 -0.044297955 
    3708   -1152448.7            0   -1152448.7 -1.3648764e-05 -5.0136488e-07 -1.6511385e-06 
Loop time of 1.96283 on 104 procs for 170 steps with 288751 atoms

99.9% CPU use with 104 MPI tasks x 1 OpenMP threads

Minimization stats:
  Stopping criterion = energy tolerance
  Energy initial, next-to-last, final = 
     -1152448.69663826  -1152448.70061412  -1152448.70061412
  Force two-norm initial, final = 0.31333763 0.00026085067
  Force max component initial, final = 0.29021097 9.2863480e-05
  Final line search alpha, max atom move = 1.0000000 9.2863480e-05
  Iterations, force evaluations = 170 340

MPI task timing breakdown:
Section |  min time  |  avg time  |  max time  |%varavg| %total
---------------------------------------------------------------
Pair    | 0.51923    | 1.426      | 1.8534     |  32.1 | 72.65
Neigh   | 0          | 0          | 0          |   0.0 |  0.00
Comm    | 0.033862   | 0.32105    | 0.95779    |  47.6 | 16.36
Output  | 0          | 0          | 0          |   0.0 |  0.00
Modify  | 1.9689e-05 | 0.0027973  | 0.0059862  |   2.5 |  0.14
Other   |            | 0.213      |            |       | 10.85

Nlocal:        2776.45 ave        3930 max           0 min
Histogram: 8 4 4 0 4 12 8 0 26 38
Nghost:        3879.07 ave        5428 max         232 min
Histogram: 8 0 8 0 16 0 8 8 16 40
Neighs:        79213.5 ave      114484 max           0 min
Histogram: 8 4 4 0 8 8 8 8 20 36

Total # of neighbors = 8238201
Ave neighs/atom = 28.530467
Neighbor list builds = 0
Dangerous builds = 0
The dot product: 1.29980055907862e-07
The angle: 89.4586613031014
Setting atom values ...
  1 settings made for x
  1 settings made for y
  1 settings made for z
Setting up cg style minimization ...
  Unit style    : metal
  Current step  : 3708
Per MPI rank memory allocation (min/avg/max) = 5.441 | 5.816 | 6.074 Mbytes
Step PotEng KinEng TotEng v_fx v_fy v_fz 
    3708   -1152448.6            0   -1152448.6 -0.015928619 -0.0034424152 -0.045847992 
    3959   -1152448.7            0   -1152448.7 -8.5311163e-06 -5.2244305e-08 1.5903949e-06 
Loop time of 2.90098 on 104 procs for 251 steps with 288751 atoms

99.9% CPU use with 104 MPI tasks x 1 OpenMP threads

Minimization stats:
  Stopping criterion = energy tolerance
  Energy initial, next-to-last, final = 
     -1152448.63435298  -1152448.67563849  -1152448.67563849
  Force two-norm initial, final = 0.33449112 7.7028907e-05
  Force max component initial, final = 0.29826675 1.1632608e-05
  Final line search alpha, max atom move = 1.0000000 1.1632608e-05
  Iterations, force evaluations = 251 502

MPI task timing breakdown:
Section |  min time  |  avg time  |  max time  |%varavg| %total
---------------------------------------------------------------
Pair    | 0.76941    | 2.1088     | 2.735      |  39.0 | 72.69
Neigh   | 1.0149e-05 | 0.0029531  | 0.0042951  |   2.2 |  0.10
Comm    | 0.046318   | 0.47053    | 1.4163     |  58.2 | 16.22
Output  | 0          | 0          | 0          |   0.0 |  0.00
Modify  | 2.9118e-05 | 0.0041209  | 0.0088372  |   3.0 |  0.14
Other   |            | 0.3146     |            |       | 10.84

Nlocal:        2776.45 ave        3930 max           0 min
Histogram: 8 4 4 0 4 12 8 0 26 38
Nghost:        3879.05 ave        5429 max         232 min
Histogram: 8 0 8 0 16 0 8 8 16 40
Neighs:        79213.5 ave      114485 max           0 min
Histogram: 8 4 4 0 8 8 8 8 20 36

Total # of neighbors = 8238202
Ave neighs/atom = 28.530471
Neighbor list builds = 1
Dangerous builds = 0
The dot product: 2.78119330225279e-08
The angle: 89.8163789909735
Setting atom values ...
  1 settings made for x
  1 settings made for y
  1 settings made for z
Setting up cg style minimization ...
  Unit style    : metal
  Current step  : 3959
Per MPI rank memory allocation (min/avg/max) = 5.441 | 5.816 | 6.074 Mbytes
Step PotEng KinEng TotEng v_fx v_fy v_fz 
    3959   -1152448.6            0   -1152448.6 -0.011082518 -0.0017416732 -0.049804995 
    4000   -1152448.6            0   -1152448.6 -4.4824061e-05 4.551115e-07 2.6053464e-05 
    4111   -1152448.6            0   -1152448.6 -4.462951e-06 2.8440488e-07 9.8468086e-06 
Loop time of 1.76656 on 104 procs for 152 steps with 288751 atoms

99.9% CPU use with 104 MPI tasks x 1 OpenMP threads

Minimization stats:
  Stopping criterion = energy tolerance
  Energy initial, next-to-last, final = 
     -1152448.62917901  -1152448.63416535  -1152448.63416535
  Force two-norm initial, final = 0.34209599 0.00023918986
  Force max component initial, final = 0.30920995 9.6882836e-05
  Final line search alpha, max atom move = 1.0000000 9.6882836e-05
  Iterations, force evaluations = 152 304

MPI task timing breakdown:
Section |  min time  |  avg time  |  max time  |%varavg| %total
---------------------------------------------------------------
Pair    | 0.46777    | 1.2794     | 1.6499     |  30.2 | 72.42
Neigh   | 0          | 0          | 0          |   0.0 |  0.00
Comm    | 0.03614    | 0.28986    | 0.86183    |  44.9 | 16.41
Output  | 0.00010399 | 0.00010638 | 0.00021181 |   0.0 |  0.01
Modify  | 1.8229e-05 | 0.0025004  | 0.0053413  |   2.4 |  0.14
Other   |            | 0.1947     |            |       | 11.02

Nlocal:        2776.45 ave        3930 max           0 min
Histogram: 8 4 4 0 4 12 8 0 26 38
Nghost:        3879.09 ave        5424 max         232 min
Histogram: 8 0 8 0 16 0 8 8 16 40
Neighs:        79213.4 ave      114480 max           0 min
Histogram: 8 4 4 0 8 8 8 8 20 36

Total # of neighbors = 8238189
Ave neighs/atom = 28.530426
Neighbor list builds = 0
Dangerous builds = 0
The dot product: -1.53111926294626e-07
The angle: 90.811204487812
Setting atom values ...
  1 settings made for x
  1 settings made for y
  1 settings made for z
Setting up cg style minimization ...
  Unit style    : metal
  Current step  : 4111
Per MPI rank memory allocation (min/avg/max) = 5.441 | 5.816 | 6.074 Mbytes
Step PotEng KinEng TotEng v_fx v_fy v_fz 
    4111   -1152448.6            0   -1152448.6 -0.0048361293 -0.00040234778 -0.025116131 
    4275   -1152448.6            0   -1152448.6 4.6126685e-07 6.2866637e-08 4.0048949e-06 
Loop time of 1.89566 on 104 procs for 164 steps with 288751 atoms

99.9% CPU use with 104 MPI tasks x 1 OpenMP threads

Minimization stats:
  Stopping criterion = energy tolerance
  Energy initial, next-to-last, final = 
     -1152448.58713616  -1152448.59282162  -1152448.59282162
  Force two-norm initial, final = 0.35054893 0.00021502848
  Force max component initial, final = 0.31609323 7.4957547e-05
  Final line search alpha, max atom move = 1.0000000 7.4957547e-05
  Iterations, force evaluations = 164 328

MPI task timing breakdown:
Section |  min time  |  avg time  |  max time  |%varavg| %total
---------------------------------------------------------------
Pair    | 0.50661    | 1.3801     | 1.7889     |  31.5 | 72.81
Neigh   | 0          | 0          | 0          |   0.0 |  0.00
Comm    | 0.03163    | 0.30867    | 0.92744    |  47.0 | 16.28
Output  | 0          | 0          | 0          |   0.0 |  0.00
Modify  | 1.8925e-05 | 0.002696   | 0.0057643  |   2.4 |  0.14
Other   |            | 0.2042     |            |       | 10.77

Nlocal:        2776.45 ave        3930 max           0 min
Histogram: 8 4 4 0 4 12 8 0 26 38
Nghost:        3879.09 ave        5424 max         232 min
Histogram: 8 0 8 0 16 0 8 8 16 40
Neighs:        79213.3 ave      114474 max           0 min
Histogram: 8 4 4 0 8 8 8 8 20 36

Total # of neighbors = 8238187
Ave neighs/atom = 28.530419
Neighbor list builds = 0
Dangerous builds = 0
The dot product: -3.57769717846186e-08
The angle: 90.5084243839209
Setting atom values ...
  1 settings made for x
  1 settings made for y
  1 settings made for z
Setting up cg style minimization ...
  Unit style    : metal
  Current step  : 4275
Per MPI rank memory allocation (min/avg/max) = 5.441 | 5.816 | 6.074 Mbytes
Step PotEng KinEng TotEng v_fx v_fy v_fz 
    4275   -1152448.5            0   -1152448.5 -0.0017810074 -7.8341279e-05 -0.011455337 
    4471   -1152448.6            0   -1152448.6 3.3134166e-07 -2.7622234e-08 -4.3112902e-06 
Loop time of 2.25979 on 104 procs for 196 steps with 288751 atoms

99.9% CPU use with 104 MPI tasks x 1 OpenMP threads

Minimization stats:
  Stopping criterion = energy tolerance
  Energy initial, next-to-last, final = 
     -1152448.54612832  -1152448.55064618  -1152448.55064618
  Force two-norm initial, final = 0.3519723 8.1613164e-05
  Force max component initial, final = 0.32315251 2.9456715e-05
  Final line search alpha, max atom move = 1.0000000 2.9456715e-05
  Iterations, force evaluations = 196 392

MPI task timing breakdown:
Section |  min time  |  avg time  |  max time  |%varavg| %total
---------------------------------------------------------------
Pair    | 0.60381    | 1.647      | 2.1222     |  34.4 | 72.88
Neigh   | 0          | 0          | 0          |   0.0 |  0.00
Comm    | 0.040752   | 0.37441    | 1.1194     |  51.2 | 16.57
Output  | 0          | 0          | 0          |   0.0 |  0.00
Modify  | 2.3051e-05 | 0.0032302  | 0.0069403  |   2.7 |  0.14
Other   |            | 0.2351     |            |       | 10.40

Nlocal:        2776.45 ave        3930 max           0 min
Histogram: 8 4 4 0 4 12 8 0 26 38
Nghost:        3879.11 ave        5425 max         232 min
Histogram: 8 0 8 0 16 0 8 8 16 40
Neighs:        79213.3 ave      114463 max           0 min
Histogram: 8 4 4 0 8 8 8 8 20 36

Total # of neighbors = 8238185
Ave neighs/atom = 28.530412
Neighbor list builds = 0
Dangerous builds = 0
The dot product: 1.54878943049247e-08
The angle: 89.7947793835688
Setting atom values ...
  1 settings made for x
  1 settings made for y
  1 settings made for z
Setting up cg style minimization ...
  Unit style    : metal
  Current step  : 4471
Per MPI rank memory allocation (min/avg/max) = 5.441 | 5.816 | 6.074 Mbytes
Step PotEng KinEng TotEng v_fx v_fy v_fz 
    4471   -1152448.5            0   -1152448.5 -0.00052387979 -1.4503117e-05 -0.0048682839 
    4600   -1152448.5            0   -1152448.5 -1.5052614e-05 2.860272e-08 1.4578695e-05 
Loop time of 1.48514 on 104 procs for 129 steps with 288751 atoms

99.9% CPU use with 104 MPI tasks x 1 OpenMP threads

Minimization stats:
  Stopping criterion = energy tolerance
  Energy initial, next-to-last, final = 
     -1152448.49986693  -1152448.50463465  -1152448.50463465
  Force two-norm initial, final = 0.359333 0.00026473717
  Force max component initial, final = 0.32978494 0.00013487494
  Final line search alpha, max atom move = 1.0000000 0.00013487494
  Iterations, force evaluations = 129 258

MPI task timing breakdown:
Section |  min time  |  avg time  |  max time  |%varavg| %total
---------------------------------------------------------------
Pair    | 0.39798    | 1.0827     | 1.4004     |  27.8 | 72.90
Neigh   | 0          | 0          | 0          |   0.0 |  0.00
Comm    | 0.026042   | 0.24011    | 0.72584    |  41.8 | 16.17
Output  | 0          | 0          | 0          |   0.0 |  0.00
Modify  | 1.4991e-05 | 0.0021218  | 0.0045591  |   2.2 |  0.14
Other   |            | 0.1602     |            |       | 10.79

Nlocal:        2776.45 ave        3930 max           0 min
Histogram: 8 4 4 0 4 12 8 0 26 38
Nghost:        3879.11 ave        5425 max         232 min
Histogram: 8 0 8 0 16 0 8 8 16 40
Neighs:        79213.3 ave      114464 max           0 min
Histogram: 8 4 4 0 8 8 8 8 20 36

Total # of neighbors = 8238185
Ave neighs/atom = 28.530412
Neighbor list builds = 0
Dangerous builds = 0
The dot product: -1.60278968604209e-08
The angle: 90.0438235380201
Setting atom values ...
  1 settings made for x
  1 settings made for y
  1 settings made for z
Setting up cg style minimization ...
  Unit style    : metal
  Current step  : 4600
Per MPI rank memory allocation (min/avg/max) = 5.441 | 5.816 | 6.074 Mbytes
Step PotEng KinEng TotEng v_fx v_fy v_fz 
    4600   -1152448.4            0   -1152448.4 -0.00010308894 -2.8813984e-06 -0.0020840974 
    4733   -1152448.5            0   -1152448.5 -1.8075231e-05 1.6040023e-08 1.8198051e-05 
Loop time of 1.52786 on 104 procs for 133 steps with 288751 atoms

99.9% CPU use with 104 MPI tasks x 1 OpenMP threads

Minimization stats:
  Stopping criterion = energy tolerance
  Energy initial, next-to-last, final = 
     -1152448.44894109  -1152448.45402227  -1152448.45402227
  Force two-norm initial, final = 0.36912658 0.00025650902
  Force max component initial, final = 0.33620922 0.00012901061
  Final line search alpha, max atom move = 1.0000000 0.00012901061
  Iterations, force evaluations = 133 266

MPI task timing breakdown:
Section |  min time  |  avg time  |  max time  |%varavg| %total
---------------------------------------------------------------
Pair    | 0.41065    | 1.118      | 1.4402     |  28.3 | 73.17
Neigh   | 0          | 0          | 0          |   0.0 |  0.00
Comm    | 0.025177   | 0.2508     | 0.75199    |  42.3 | 16.42
Output  | 0          | 0          | 0          |   0.0 |  0.00
Modify  | 1.5253e-05 | 0.0021904  | 0.0046855  |   2.2 |  0.14
Other   |            | 0.1569     |            |       | 10.27

Nlocal:        2776.45 ave        3930 max           0 min
Histogram: 8 4 4 0 4 12 8 0 26 38
Nghost:        3879.11 ave        5425 max         232 min
Histogram: 8 0 8 0 16 0 8 8 16 40
Neighs:        79213.3 ave      114454 max           0 min
Histogram: 8 4 4 0 8 8 8 8 20 36

Total # of neighbors = 8238188
Ave neighs/atom = 28.530422
Neighbor list builds = 0
Dangerous builds = 0
The dot product: -8.86324265794563e-09
The angle: 90.0197988902093
Setting atom values ...
  1 settings made for x
  1 settings made for y
  1 settings made for z
Setting up cg style minimization ...
  Unit style    : metal
  Current step  : 4733
Per MPI rank memory allocation (min/avg/max) = 5.441 | 5.816 | 6.074 Mbytes
Step PotEng KinEng TotEng v_fx v_fy v_fz 
    4733   -1152448.4            0   -1152448.4 5.0051287e-05 -6.1980854e-07 -0.000920668 
    4893   -1152448.4            0   -1152448.4 -8.4008472e-06 4.8794319e-09 1.0697498e-05 
Loop time of 1.84581 on 104 procs for 160 steps with 288751 atoms

99.9% CPU use with 104 MPI tasks x 1 OpenMP threads

Minimization stats:
  Stopping criterion = energy tolerance
  Energy initial, next-to-last, final = 
     -1152448.39323352  -1152448.39853647  -1152448.39853647
  Force two-norm initial, final = 0.37766413 7.8020389e-05
  Force max component initial, final = 0.34297275 3.1500247e-05
  Final line search alpha, max atom move = 1.0000000 3.1500247e-05
  Iterations, force evaluations = 160 320

MPI task timing breakdown:
Section |  min time  |  avg time  |  max time  |%varavg| %total
---------------------------------------------------------------
Pair    | 0.489      | 1.3437     | 1.7411     |  31.2 | 72.79
Neigh   | 0          | 0          | 0          |   0.0 |  0.00
Comm    | 0.031955   | 0.30057    | 0.90343    |  46.4 | 16.28
Output  | 0          | 0          | 0          |   0.0 |  0.00
Modify  | 1.8884e-05 | 0.002632   | 0.0056439  |   2.4 |  0.14
Other   |            | 0.199      |            |       | 10.78

Nlocal:        2776.45 ave        3930 max           0 min
Histogram: 8 4 4 0 4 12 8 0 26 38
Nghost:        3879.12 ave        5425 max         232 min
Histogram: 8 0 8 0 16 0 8 8 16 40
Neighs:        79213.4 ave      114453 max           0 min
Histogram: 8 4 4 0 8 8 8 8 20 36

Total # of neighbors = 8238191
Ave neighs/atom = 28.530433
Neighbor list builds = 0
Dangerous builds = 0
The dot product: -2.65738630408437e-09
The angle: 90.01119383451
Setting atom values ...
  1 settings made for x
  1 settings made for y
  1 settings made for z
Setting up cg style minimization ...
  Unit style    : metal
  Current step  : 4893
Per MPI rank memory allocation (min/avg/max) = 5.441 | 5.816 | 6.074 Mbytes
Step PotEng KinEng TotEng v_fx v_fy v_fz 
    4893   -1152448.3            0   -1152448.3 0.00018988552 -1.1461992e-07 -0.00041289241 
    5000   -1152448.3            0   -1152448.3 6.2216068e-05 -1.8492621e-08 -8.4635338e-05 
    5028   -1152448.3            0   -1152448.3 2.5876724e-06 -8.0201557e-10 -3.6074778e-06 
Loop time of 1.56037 on 104 procs for 135 steps with 288751 atoms

99.9% CPU use with 104 MPI tasks x 1 OpenMP threads

Minimization stats:
  Stopping criterion = energy tolerance
  Energy initial, next-to-last, final = 
     -1152448.33265087  -1152448.33807966  -1152448.33807966
  Force two-norm initial, final = 0.38438254 0.00028358607
  Force max component initial, final = 0.350065 0.00014424691
  Final line search alpha, max atom move = 1.0000000 0.00014424691
  Iterations, force evaluations = 135 270

MPI task timing breakdown:
Section |  min time  |  avg time  |  max time  |%varavg| %total
---------------------------------------------------------------
Pair    | 0.41378    | 1.134      | 1.4739     |  28.6 | 72.68
Neigh   | 0          | 0          | 0          |   0.0 |  0.00
Comm    | 0.024696   | 0.2547     | 0.76356    |  42.5 | 16.32
Output  | 9.9305e-05 | 0.00010302 | 0.0002592  |   0.0 |  0.01
Modify  | 1.5366e-05 | 0.0022248  | 0.004748   |   2.2 |  0.14
Other   |            | 0.1693     |            |       | 10.85

Nlocal:        2776.45 ave        3930 max           0 min
Histogram: 8 4 4 0 4 12 8 0 26 38
Nghost:        3879.11 ave        5425 max         232 min
Histogram: 8 0 8 0 16 0 8 8 16 40
Neighs:        79213.3 ave      114453 max           0 min
Histogram: 8 4 4 0 8 8 8 8 20 36

Total # of neighbors = 8238186
Ave neighs/atom = 28.530415
Neighbor list builds = 0
Dangerous builds = 0
The dot product: 4.88202298089544e-10
The angle: 89.9936994313829
Setting up cg style minimization ...
  Unit style    : metal
  Current step  : 5028
Per MPI rank memory allocation (min/avg/max) = 5.441 | 5.816 | 6.074 Mbytes
Step PotEng KinEng TotEng v_fx v_fy v_fz 
    5028   -1152448.3            0   -1152448.3 -0.00044798313    2.0980456 -0.00079324343 
    5224   -1152449.3            0   -1152449.3 -2.1662276e-05 2.2055159e-06 2.6004125e-05 
Loop time of 2.25504 on 104 procs for 196 steps with 288751 atoms

99.9% CPU use with 104 MPI tasks x 1 OpenMP threads

Minimization stats:
  Stopping criterion = energy tolerance
  Energy initial, next-to-last, final = 
     -1152448.33807966  -1152449.34502402  -1152449.34502402
  Force two-norm initial, final = 2.0980458 0.00017071223
  Force max component initial, final = 2.0980456 3.6368868e-05
  Final line search alpha, max atom move = 1.0000000 3.6368868e-05
  Iterations, force evaluations = 196 385

MPI task timing breakdown:
Section |  min time  |  avg time  |  max time  |%varavg| %total
---------------------------------------------------------------
Pair    | 0.60819    | 1.623      | 2.1029     |  33.7 | 71.97
Neigh   | 5.0207e-05 | 0.014869   | 0.024526   |   5.0 |  0.66
Comm    | 0.039909   | 0.36245    | 1.0833     |  50.6 | 16.07
Output  | 0          | 0          | 0          |   0.0 |  0.00
Modify  | 2.0438e-05 | 0.0020597  | 0.0052718  |   2.8 |  0.09
Other   |            | 0.2527     |            |       | 11.21

Nlocal:        2776.45 ave        3930 max           0 min
Histogram: 8 4 4 0 4 12 8 0 26 38
Nghost:        3879.09 ave        5425 max         232 min
Histogram: 8 0 8 0 16 0 8 8 16 40
Neighs:        79213.4 ave      114454 max           0 min
Histogram: 8 4 4 0 8 8 8 8 20 36

Total # of neighbors = 8238190
Ave neighs/atom = 28.530429
Neighbor list builds = 5
Dangerous builds = 0
