LAMMPS (29 Oct 2020)
OMP_NUM_THREADS environment is not set. Defaulting to 1 thread. (../comm.cpp:94)
  using 1 OpenMP thread(s) per MPI task
OMP_NUM_THREADS environment is not set. Defaulting to 1 thread. (../comm.cpp:94)
  using 1 OpenMP thread(s) per MPI task
Reading data file ...
  orthogonal box = (-122.39241 -121.13707 -37.090501) to (122.39241 121.13707 37.090501)
  13 by 4 by 2 MPI processor grid
  reading atoms ...
  288751 atoms
  read_data CPU = 0.422 seconds
199981 atoms in group inner
88770 atoms in group outer
1 atoms in group carbon
Neighbor list info ...
  update every 1 steps, delay 0 steps, check yes
  max neighbors/atom: 2000, page size: 100000
  master list distance cutoff = 5.6
  ghost atom cutoff = 5.6
  binsize = 2.8, bins = 88 87 27
  1 neighbor lists, perpetual/occasional/extra = 1 0 0
  (1) pair eam/alloy, perpetual
      attributes: half, newton on
      pair build: half/bin/atomonly/newton
      stencil: half/bin/3d/newton
      bin: standard
Setting up cg style minimization ...
  Unit style    : metal
  Current step  : 0
Per MPI rank memory allocation (min/avg/max) = 5.441 | 5.816 | 6.074 Mbytes
Step v_fx v_fy v_fz PotEng KinEng TotEng 
       0    1.4705988   -1.1092614    2.4801924   -1152447.8            0   -1152447.8 
     154 -1.90882e-06 -1.66657e-06 -5.179453e-05   -1152449.5            0   -1152449.5 
Loop time of 1.81082 on 104 procs for 154 steps with 288751 atoms

99.8% CPU use with 104 MPI tasks x 1 OpenMP threads

Minimization stats:
  Stopping criterion = energy tolerance
  Energy initial, next-to-last, final = 
     -1152447.79004592  -1152449.45035269  -1152449.45035269
  Force two-norm initial, final = 10.116588 0.00019086929
  Force max component initial, final = 4.5240720 5.1794530e-05
  Final line search alpha, max atom move = 1.0000000 5.1794530e-05
  Iterations, force evaluations = 154 307

MPI task timing breakdown:
Section |  min time  |  avg time  |  max time  |%varavg| %total
---------------------------------------------------------------
Pair    | 0.48385    | 1.2937     | 1.6779     |  30.2 | 71.45
Neigh   | 3.3327e-05 | 0.0090657  | 0.013498   |   3.9 |  0.50
Comm    | 0.033419   | 0.29456    | 0.88759    |  44.7 | 16.27
Output  | 0          | 0          | 0          |   0.0 |  0.00
Modify  | 1.7858e-05 | 0.0016606  | 0.0042858  |   2.6 |  0.09
Other   |            | 0.2118     |            |       | 11.70

Nlocal:        2776.45 ave        3959 max           0 min
Histogram: 8 4 4 0 4 12 8 2 28 34
Nghost:        3879.01 ave        5424 max         232 min
Histogram: 8 0 8 0 16 0 8 8 16 40
Neighs:        79213.5 ave      115404 max           0 min
Histogram: 8 4 4 0 10 6 8 8 24 32

Total # of neighbors = 8238207
Ave neighs/atom = 28.530488
Neighbor list builds = 3
Dangerous builds = 1
Setting atom values ...
  1 settings made for x
  1 settings made for y
  1 settings made for z
Setting up cg style minimization ...
  Unit style    : metal
  Current step  : 154
Per MPI rank memory allocation (min/avg/max) = 5.441 | 5.816 | 6.074 Mbytes
Step PotEng KinEng TotEng v_fx v_fy v_fz 
     154   -1152449.4            0   -1152449.4 -0.017415159 0.0075630582 -0.019274577 
     302   -1152449.5            0   -1152449.5 2.8388278e-05 -2.199514e-05 5.5596225e-07 
Loop time of 1.71883 on 104 procs for 148 steps with 288751 atoms

99.9% CPU use with 104 MPI tasks x 1 OpenMP threads

Minimization stats:
  Stopping criterion = energy tolerance
  Energy initial, next-to-last, final = 
     -1152449.44953725   -1152449.4500298   -1152449.4500298
  Force two-norm initial, final = 0.10022409 0.00014441752
  Force max component initial, final = 0.050921967 2.8388278e-05
  Final line search alpha, max atom move = 1.0000000 2.8388278e-05
  Iterations, force evaluations = 148 296

MPI task timing breakdown:
Section |  min time  |  avg time  |  max time  |%varavg| %total
---------------------------------------------------------------
Pair    | 0.45129    | 1.2498     | 1.6111     |  30.2 | 72.71
Neigh   | 0          | 0          | 0          |   0.0 |  0.00
Comm    | 0.031615   | 0.27921    | 0.84991    |  44.8 | 16.24
Output  | 0          | 0          | 0          |   0.0 |  0.00
Modify  | 1.8915e-05 | 0.0024479  | 0.0052274  |   2.3 |  0.14
Other   |            | 0.1873     |            |       | 10.90

Nlocal:        2776.45 ave        3961 max           0 min
Histogram: 8 4 4 0 6 10 8 2 28 34
Nghost:        3879.01 ave        5424 max         232 min
Histogram: 8 0 8 0 16 0 8 8 16 40
Neighs:        79213.4 ave      115460 max           0 min
Histogram: 8 4 4 0 10 6 8 8 24 32

Total # of neighbors = 8238197
Ave neighs/atom = 28.530454
Neighbor list builds = 0
Dangerous builds = 0
Setting atom values ...
  1 settings made for x
  1 settings made for y
  1 settings made for z
Setting up cg style minimization ...
  Unit style    : metal
  Current step  : 302
Per MPI rank memory allocation (min/avg/max) = 5.441 | 5.816 | 6.074 Mbytes
Step PotEng KinEng TotEng v_fx v_fy v_fz 
     302   -1152449.4            0   -1152449.4 -0.025089456  0.016323983 -0.024563656 
     441   -1152449.4            0   -1152449.4 7.9234473e-06 -1.288553e-05 -2.7200861e-05 
Loop time of 1.61392 on 104 procs for 139 steps with 288751 atoms

99.9% CPU use with 104 MPI tasks x 1 OpenMP threads

Minimization stats:
  Stopping criterion = energy tolerance
  Energy initial, next-to-last, final = 
     -1152449.44684079  -1152449.44812655  -1152449.44812655
  Force two-norm initial, final = 0.16022741 0.00013109946
  Force max component initial, final = 0.090297418 2.7200861e-05
  Final line search alpha, max atom move = 1.0000000 2.7200861e-05
  Iterations, force evaluations = 139 278

MPI task timing breakdown:
Section |  min time  |  avg time  |  max time  |%varavg| %total
---------------------------------------------------------------
Pair    | 0.42311    | 1.1679     | 1.5166     |  29.1 | 72.37
Neigh   | 0          | 0          | 0          |   0.0 |  0.00
Comm    | 0.025144   | 0.26178    | 0.7908     |  43.0 | 16.22
Output  | 0          | 0          | 0          |   0.0 |  0.00
Modify  | 1.7592e-05 | 0.0022971  | 0.004939   |   2.3 |  0.14
Other   |            | 0.1819     |            |       | 11.27

Nlocal:        2776.45 ave        3961 max           0 min
Histogram: 8 4 4 0 6 10 8 2 28 34
Nghost:        3879.01 ave        5424 max         232 min
Histogram: 8 0 8 0 16 0 8 8 16 40
Neighs:        79213.4 ave      115460 max           0 min
Histogram: 8 4 4 0 10 6 8 8 24 32

Total # of neighbors = 8238196
Ave neighs/atom = 28.530450
Neighbor list builds = 0
Dangerous builds = 0
The dot product: 2.15558762481578e-08
Setting atom values ...
  1 settings made for x
  1 settings made for y
  1 settings made for z
Setting up cg style minimization ...
  Unit style    : metal
  Current step  : 441
Per MPI rank memory allocation (min/avg/max) = 5.441 | 5.816 | 6.074 Mbytes
Step PotEng KinEng TotEng v_fx v_fy v_fz 
     441   -1152449.4            0   -1152449.4 -0.021918987  0.018244053  -0.01582747 
     565   -1152449.4            0   -1152449.4 -2.2518374e-05 1.8228839e-05 -1.941785e-05 
Loop time of 1.45232 on 104 procs for 124 steps with 288751 atoms

99.9% CPU use with 104 MPI tasks x 1 OpenMP threads

Minimization stats:
  Stopping criterion = energy tolerance
  Energy initial, next-to-last, final = 
      -1152449.4433572  -1152449.44460526  -1152449.44460526
  Force two-norm initial, final = 0.15618868 0.00013109509
  Force max component initial, final = 0.09482048 2.6192796e-05
  Final line search alpha, max atom move = 1.0000000 2.6192796e-05
  Iterations, force evaluations = 124 248

MPI task timing breakdown:
Section |  min time  |  avg time  |  max time  |%varavg| %total
---------------------------------------------------------------
Pair    | 0.37942    | 1.0478     | 1.3582     |  27.6 | 72.14
Neigh   | 0          | 0          | 0          |   0.0 |  0.00
Comm    | 0.022419   | 0.23628    | 0.71637    |  40.6 | 16.27
Output  | 0          | 0          | 0          |   0.0 |  0.00
Modify  | 1.5163e-05 | 0.0020518  | 0.0044446  |   2.2 |  0.14
Other   |            | 0.1662     |            |       | 11.45

Nlocal:        2776.45 ave        3961 max           0 min
Histogram: 8 4 4 0 6 10 8 2 28 34
Nghost:        3879.01 ave        5424 max         232 min
Histogram: 8 0 8 0 16 0 8 8 16 40
Neighs:        79213.4 ave      115460 max           0 min
Histogram: 8 4 4 0 10 6 8 8 24 32

Total # of neighbors = 8238195
Ave neighs/atom = 28.530447
Neighbor list builds = 0
Dangerous builds = 0
The dot product: 7.25624175328213e-08
Setting atom values ...
  1 settings made for x
  1 settings made for y
  1 settings made for z
Setting up cg style minimization ...
  Unit style    : metal
  Current step  : 565
Per MPI rank memory allocation (min/avg/max) = 5.441 | 5.816 | 6.074 Mbytes
Step PotEng KinEng TotEng v_fx v_fy v_fz 
     565   -1152449.4            0   -1152449.4 -0.019172463  0.018420702 -0.0081780462 
     778   -1152449.4            0   -1152449.4 1.4064819e-06 -2.0806452e-07 8.5568871e-06 
Loop time of 2.47454 on 104 procs for 213 steps with 288751 atoms

99.9% CPU use with 104 MPI tasks x 1 OpenMP threads

Minimization stats:
  Stopping criterion = energy tolerance
  Energy initial, next-to-last, final = 
     -1152449.43830536   -1152449.4395328   -1152449.4395328
  Force two-norm initial, final = 0.15368246 2.5012989e-05
  Force max component initial, final = 0.098460122 8.5568871e-06
  Final line search alpha, max atom move = 1.0000000 8.5568871e-06
  Iterations, force evaluations = 213 426

MPI task timing breakdown:
Section |  min time  |  avg time  |  max time  |%varavg| %total
---------------------------------------------------------------
Pair    | 0.64727    | 1.7839     | 2.3185     |  36.0 | 72.09
Neigh   | 0          | 0          | 0          |   0.0 |  0.00
Comm    | 0.03596    | 0.40201    | 1.21       |  52.7 | 16.25
Output  | 0          | 0          | 0          |   0.0 |  0.00
Modify  | 2.5802e-05 | 0.0035167  | 0.0074987  |   2.8 |  0.14
Other   |            | 0.2851     |            |       | 11.52

Nlocal:        2776.45 ave        3960 max           0 min
Histogram: 8 4 4 0 4 12 8 2 28 34
Nghost:        3879.01 ave        5424 max         232 min
Histogram: 8 0 8 0 16 0 8 8 16 40
Neighs:        79213.4 ave      115417 max           0 min
Histogram: 8 4 4 0 10 6 8 8 24 32

Total # of neighbors = 8238194
Ave neighs/atom = 28.530443
Neighbor list builds = 0
Dangerous builds = 0
The dot product: -2.15552300283371e-09
Setting atom values ...
  1 settings made for x
  1 settings made for y
  1 settings made for z
Setting up cg style minimization ...
  Unit style    : metal
  Current step  : 778
Per MPI rank memory allocation (min/avg/max) = 5.441 | 5.816 | 6.074 Mbytes
Step PotEng KinEng TotEng v_fx v_fy v_fz 
     778   -1152449.4            0   -1152449.4 -0.018976712  0.020154846 -0.002431858 
     909   -1152449.4            0   -1152449.4 9.6734473e-06 -5.9239085e-06 3.0588689e-05 
Loop time of 1.52856 on 104 procs for 131 steps with 288751 atoms

99.9% CPU use with 104 MPI tasks x 1 OpenMP threads

Minimization stats:
  Stopping criterion = energy tolerance
  Energy initial, next-to-last, final = 
     -1152449.43172343  -1152449.43293534  -1152449.43293534
  Force two-norm initial, final = 0.15253813 0.00011167218
  Force max component initial, final = 0.10152635 3.0588689e-05
  Final line search alpha, max atom move = 1.0000000 3.0588689e-05
  Iterations, force evaluations = 131 262

MPI task timing breakdown:
Section |  min time  |  avg time  |  max time  |%varavg| %total
---------------------------------------------------------------
Pair    | 0.40105    | 1.1052     | 1.4374     |  28.3 | 72.30
Neigh   | 0          | 0          | 0          |   0.0 |  0.00
Comm    | 0.024958   | 0.2492     | 0.75392    |  41.4 | 16.30
Output  | 0          | 0          | 0          |   0.0 |  0.00
Modify  | 1.6069e-05 | 0.0021677  | 0.0046627  |   2.2 |  0.14
Other   |            | 0.172      |            |       | 11.25

Nlocal:        2776.45 ave        3959 max           0 min
Histogram: 8 4 4 0 4 12 8 2 28 34
Nghost:        3879.05 ave        5424 max         232 min
Histogram: 8 0 8 0 16 0 8 8 16 40
Neighs:        79213.4 ave      115394 max           0 min
Histogram: 8 4 4 0 10 6 8 8 24 32

Total # of neighbors = 8238192
Ave neighs/atom = 28.530436
Neighbor list builds = 0
Dangerous builds = 0
The dot product: -5.02890409282256e-09
Setting atom values ...
  1 settings made for x
  1 settings made for y
  1 settings made for z
Setting up cg style minimization ...
  Unit style    : metal
  Current step  : 909
Per MPI rank memory allocation (min/avg/max) = 5.441 | 5.816 | 6.074 Mbytes
Step PotEng KinEng TotEng v_fx v_fy v_fz 
     909   -1152449.4            0   -1152449.4 -0.020633988  0.023923611 0.0019959087 
    1000   -1152449.4            0   -1152449.4 7.211944e-06 5.2259482e-06 8.1541754e-05 
    1075   -1152449.4            0   -1152449.4 1.3636625e-06 -4.5625585e-06 -1.8177371e-05 
Loop time of 1.92102 on 104 procs for 166 steps with 288751 atoms

99.9% CPU use with 104 MPI tasks x 1 OpenMP threads

Minimization stats:
  Stopping criterion = energy tolerance
  Energy initial, next-to-last, final = 
      -1152449.4236627  -1152449.42487559  -1152449.42487559
  Force two-norm initial, final = 0.15253978 0.00016213307
  Force max component initial, final = 0.10435045 2.0204536e-05
  Final line search alpha, max atom move = 1.0000000 2.0204536e-05
  Iterations, force evaluations = 166 332

MPI task timing breakdown:
Section |  min time  |  avg time  |  max time  |%varavg| %total
---------------------------------------------------------------
Pair    | 0.50473    | 1.3927     | 1.8143     |  31.9 | 72.50
Neigh   | 0          | 0          | 0          |   0.0 |  0.00
Comm    | 0.028688   | 0.3116     | 0.94213    |  46.9 | 16.22
Output  | 0.00015443 | 0.00015687 | 0.00027334 |   0.0 |  0.01
Modify  | 2.0628e-05 | 0.0027406  | 0.0058587  |   2.5 |  0.14
Other   |            | 0.2139     |            |       | 11.13

Nlocal:        2776.45 ave        3958 max           0 min
Histogram: 8 4 4 0 4 12 8 2 28 34
Nghost:        3879.05 ave        5424 max         232 min
Histogram: 8 0 8 0 16 0 8 8 16 40
Neighs:        79213.4 ave      115371 max           0 min
Histogram: 8 4 4 0 10 6 8 8 24 32

Total # of neighbors = 8238190
Ave neighs/atom = 28.530429
Neighbor list builds = 0
Dangerous builds = 0
The dot product: -4.27346652242289e-08
Setting atom values ...
  1 settings made for x
  1 settings made for y
  1 settings made for z
Setting up cg style minimization ...
  Unit style    : metal
  Current step  : 1075
Per MPI rank memory allocation (min/avg/max) = 5.441 | 5.816 | 6.074 Mbytes
Step PotEng KinEng TotEng v_fx v_fy v_fz 
    1075   -1152449.4            0   -1152449.4 -0.024358297  0.031074027  0.005660198 
    1318   -1152449.4            0   -1152449.4 -9.6600128e-08 3.3007855e-07 1.0993669e-06 
Loop time of 2.79293 on 104 procs for 243 steps with 288751 atoms

99.9% CPU use with 104 MPI tasks x 1 OpenMP threads

Minimization stats:
  Stopping criterion = energy tolerance
  Energy initial, next-to-last, final = 
     -1152449.41422801  -1152449.41548429  -1152449.41548429
  Force two-norm initial, final = 0.15404872 8.6270624e-06
  Force max component initial, final = 0.10710893 1.0993669e-06
  Final line search alpha, max atom move = 1.0000000 1.0993669e-06
  Iterations, force evaluations = 243 486

MPI task timing breakdown:
Section |  min time  |  avg time  |  max time  |%varavg| %total
---------------------------------------------------------------
Pair    | 0.73856    | 2.0432     | 2.6345     |  38.5 | 73.16
Neigh   | 0          | 0          | 0          |   0.0 |  0.00
Comm    | 0.041432   | 0.45303    | 1.3829     |  57.4 | 16.22
Output  | 0          | 0          | 0          |   0.0 |  0.00
Modify  | 2.9266e-05 | 0.0040005  | 0.0085692  |   3.0 |  0.14
Other   |            | 0.2927     |            |       | 10.48

Nlocal:        2776.45 ave        3958 max           0 min
Histogram: 8 4 4 0 4 12 8 2 28 34
Nghost:        3879.05 ave        5424 max         232 min
Histogram: 8 0 8 0 16 0 8 8 16 40
Neighs:        79213.4 ave      115371 max           0 min
Histogram: 8 4 4 0 10 6 8 8 24 32

Total # of neighbors = 8238191
Ave neighs/atom = 28.530433
Neighbor list builds = 0
Dangerous builds = 0
The dot product: 4.28468892310342e-09
Setting atom values ...
  1 settings made for x
  1 settings made for y
  1 settings made for z
Setting up cg style minimization ...
  Unit style    : metal
  Current step  : 1318
Per MPI rank memory allocation (min/avg/max) = 5.441 | 5.816 | 6.074 Mbytes
Step PotEng KinEng TotEng v_fx v_fy v_fz 
    1318   -1152449.4            0   -1152449.4 -0.026514523  0.038305475 0.0080690342 
    1481   -1152449.4            0   -1152449.4 -2.1424607e-06 1.1313728e-05 3.6403585e-05 
Loop time of 1.88564 on 104 procs for 163 steps with 288751 atoms

99.9% CPU use with 104 MPI tasks x 1 OpenMP threads

Minimization stats:
  Stopping criterion = energy tolerance
  Energy initial, next-to-last, final = 
     -1152449.40356139  -1152449.40487774  -1152449.40487774
  Force two-norm initial, final = 0.15576725 0.00017413439
  Force max component initial, final = 0.10972606 3.6403585e-05
  Final line search alpha, max atom move = 1.0000000 3.6403585e-05
  Iterations, force evaluations = 163 326

MPI task timing breakdown:
Section |  min time  |  avg time  |  max time  |%varavg| %total
---------------------------------------------------------------
Pair    | 0.49571    | 1.3658     | 1.7731     |  31.5 | 72.43
Neigh   | 0          | 0          | 0          |   0.0 |  0.00
Comm    | 0.02819    | 0.30448    | 0.92797    |  46.9 | 16.15
Output  | 0          | 0          | 0          |   0.0 |  0.00
Modify  | 2.0137e-05 | 0.0026912  | 0.0057648  |   2.5 |  0.14
Other   |            | 0.2126     |            |       | 11.28

Nlocal:        2776.45 ave        3957 max           0 min
Histogram: 8 4 4 0 4 12 8 2 28 34
Nghost:        3879.05 ave        5424 max         232 min
Histogram: 8 0 8 0 16 0 8 8 16 40
Neighs:        79213.4 ave      115340 max           0 min
Histogram: 8 4 4 0 10 6 8 8 24 32

Total # of neighbors = 8238192
Ave neighs/atom = 28.530436
Neighbor list builds = 0
Dangerous builds = 0
The dot product: 1.68281539558957e-07
Setting atom values ...
  1 settings made for x
  1 settings made for y
  1 settings made for z
Setting up cg style minimization ...
  Unit style    : metal
  Current step  : 1481
Per MPI rank memory allocation (min/avg/max) = 5.441 | 5.816 | 6.074 Mbytes
Step PotEng KinEng TotEng v_fx v_fy v_fz 
    1481   -1152449.4            0   -1152449.4 -0.025291633  0.042084235 0.0086979793 
    1625   -1152449.4            0   -1152449.4 -1.260858e-05 1.7067297e-06 -6.5669577e-05 
Loop time of 1.67084 on 104 procs for 144 steps with 288751 atoms

99.9% CPU use with 104 MPI tasks x 1 OpenMP threads

Minimization stats:
  Stopping criterion = energy tolerance
  Energy initial, next-to-last, final = 
     -1152449.39171325  -1152449.39306725  -1152449.39306725
  Force two-norm initial, final = 0.15663853 0.00021536014
  Force max component initial, final = 0.1118636 6.5669577e-05
  Final line search alpha, max atom move = 1.0000000 6.5669577e-05
  Iterations, force evaluations = 144 288

MPI task timing breakdown:
Section |  min time  |  avg time  |  max time  |%varavg| %total
---------------------------------------------------------------
Pair    | 0.44132    | 1.2206     | 1.5749     |  29.8 | 73.05
Neigh   | 0          | 0          | 0          |   0.0 |  0.00
Comm    | 0.027763   | 0.27411    | 0.83692    |  43.9 | 16.41
Output  | 0          | 0          | 0          |   0.0 |  0.00
Modify  | 1.8377e-05 | 0.0023827  | 0.0050867  |   2.3 |  0.14
Other   |            | 0.1738     |            |       | 10.40

Nlocal:        2776.45 ave        3957 max           0 min
Histogram: 8 4 4 0 4 12 8 2 28 34
Nghost:        3879.05 ave        5424 max         232 min
Histogram: 8 0 8 0 16 0 8 8 16 40
Neighs:        79213.4 ave      115340 max           0 min
Histogram: 8 4 4 0 10 6 8 8 24 32

Total # of neighbors = 8238191
Ave neighs/atom = 28.530433
Neighbor list builds = 0
Dangerous builds = 0
The dot product: -2.67303527621686e-08
Setting atom values ...
  1 settings made for x
  1 settings made for y
  1 settings made for z
Setting up cg style minimization ...
  Unit style    : metal
  Current step  : 1625
Per MPI rank memory allocation (min/avg/max) = 5.441 | 5.816 | 6.074 Mbytes
Step PotEng KinEng TotEng v_fx v_fy v_fz 
    1625   -1152449.4            0   -1152449.4 -0.021779178  0.041940251 0.0081322099 
    1794   -1152449.4            0   -1152449.4 2.8261035e-05 -4.6461795e-05 1.391675e-05 
Loop time of 1.94637 on 104 procs for 169 steps with 288751 atoms

99.9% CPU use with 104 MPI tasks x 1 OpenMP threads

Minimization stats:
  Stopping criterion = energy tolerance
  Energy initial, next-to-last, final = 
     -1152449.37865779  -1152449.38000889  -1152449.38000889
  Force two-norm initial, final = 0.15667284 0.00017969275
  Force max component initial, final = 0.11338598 4.6461795e-05
  Final line search alpha, max atom move = 1.0000000 4.6461795e-05
  Iterations, force evaluations = 169 338

MPI task timing breakdown:
Section |  min time  |  avg time  |  max time  |%varavg| %total
---------------------------------------------------------------
Pair    | 0.51363    | 1.4187     | 1.8424     |  32.2 | 72.89
Neigh   | 0          | 0          | 0          |   0.0 |  0.00
Comm    | 0.028542   | 0.31725    | 0.97405    |  47.8 | 16.30
Output  | 0          | 0          | 0          |   0.0 |  0.00
Modify  | 2.0432e-05 | 0.0027871  | 0.00596    |   2.5 |  0.14
Other   |            | 0.2076     |            |       | 10.67

Nlocal:        2776.45 ave        3957 max           0 min
Histogram: 8 4 4 0 4 12 8 2 28 34
Nghost:        3879.09 ave        5424 max         232 min
Histogram: 8 0 8 0 16 0 8 8 16 40
Neighs:        79213.4 ave      115340 max           0 min
Histogram: 8 4 4 0 10 6 8 8 24 32

Total # of neighbors = 8238192
Ave neighs/atom = 28.530436
Neighbor list builds = 0
Dangerous builds = 0
The dot product: -5.57227959429021e-07
Setting atom values ...
  1 settings made for x
  1 settings made for y
  1 settings made for z
Setting up cg style minimization ...
  Unit style    : metal
  Current step  : 1794
Per MPI rank memory allocation (min/avg/max) = 5.441 | 5.816 | 6.074 Mbytes
Step PotEng KinEng TotEng v_fx v_fy v_fz 
    1794   -1152449.4            0   -1152449.4 -0.017331252    0.0387165 0.0076156848 
    1924   -1152449.4            0   -1152449.4 2.8125819e-07 -7.0394679e-06 -1.7062793e-05 
Loop time of 1.50858 on 104 procs for 130 steps with 288751 atoms

99.9% CPU use with 104 MPI tasks x 1 OpenMP threads

Minimization stats:
  Stopping criterion = energy tolerance
  Energy initial, next-to-last, final = 
     -1152449.36431827  -1152449.36563972  -1152449.36563972
  Force two-norm initial, final = 0.15627326 0.00019238205
  Force max component initial, final = 0.11430908 1.7062793e-05
  Final line search alpha, max atom move = 1.0000000 1.7062793e-05
  Iterations, force evaluations = 130 260

MPI task timing breakdown:
Section |  min time  |  avg time  |  max time  |%varavg| %total
---------------------------------------------------------------
Pair    | 0.39572    | 1.0994     | 1.4249     |  28.4 | 72.87
Neigh   | 0          | 0          | 0          |   0.0 |  0.00
Comm    | 0.023085   | 0.24463    | 0.74589    |  42.0 | 16.22
Output  | 0          | 0          | 0          |   0.0 |  0.00
Modify  | 1.5707e-05 | 0.002153   | 0.0046319  |   2.2 |  0.14
Other   |            | 0.1624     |            |       | 10.77

Nlocal:        2776.45 ave        3957 max           0 min
Histogram: 8 4 4 0 4 12 8 2 28 34
Nghost:        3879.12 ave        5424 max         232 min
Histogram: 8 0 8 0 16 0 8 8 16 40
Neighs:        79213.4 ave      115340 max           0 min
Histogram: 8 4 4 0 10 6 8 8 24 32

Total # of neighbors = 8238193
Ave neighs/atom = 28.530440
Neighbor list builds = 0
Dangerous builds = 0
The dot product: -8.19659268563665e-08
Setting atom values ...
  1 settings made for x
  1 settings made for y
  1 settings made for z
Setting up cg style minimization ...
  Unit style    : metal
  Current step  : 1924
Per MPI rank memory allocation (min/avg/max) = 5.441 | 5.816 | 6.074 Mbytes
Step PotEng KinEng TotEng v_fx v_fy v_fz 
    1924   -1152449.3            0   -1152449.3 -0.013037969  0.033528763  0.006847387 
    2000   -1152449.3            0   -1152449.3 -8.9360946e-05 0.00018563828 -5.529583e-05 
    2089   -1152449.3            0   -1152449.3 1.8340791e-05 -1.9651566e-05 5.4054115e-05 
Loop time of 1.89729 on 104 procs for 165 steps with 288751 atoms

99.9% CPU use with 104 MPI tasks x 1 OpenMP threads

Minimization stats:
  Stopping criterion = energy tolerance
  Energy initial, next-to-last, final = 
     -1152449.34862597  -1152449.34990404  -1152449.34990404
  Force two-norm initial, final = 0.15590475 0.00021239078
  Force max component initial, final = 0.11490126 5.4054115e-05
  Final line search alpha, max atom move = 1.0000000 5.4054115e-05
  Iterations, force evaluations = 165 330

MPI task timing breakdown:
Section |  min time  |  avg time  |  max time  |%varavg| %total
---------------------------------------------------------------
Pair    | 0.50068    | 1.3799     | 1.791      |  31.6 | 72.73
Neigh   | 0          | 0          | 0          |   0.0 |  0.00
Comm    | 0.027752   | 0.30901    | 0.94686    |  46.9 | 16.29
Output  | 9.6345e-05 | 0.00010259 | 0.00020416 |   0.0 |  0.01
Modify  | 2.0225e-05 | 0.0027263  | 0.0058023  |   2.5 |  0.14
Other   |            | 0.2055     |            |       | 10.83

Nlocal:        2776.45 ave        3957 max           0 min
Histogram: 8 4 4 0 4 12 8 2 28 34
Nghost:        3879.12 ave        5424 max         232 min
Histogram: 8 0 8 0 16 0 8 8 16 40
Neighs:        79213.4 ave      115340 max           0 min
Histogram: 8 4 4 0 10 6 8 8 24 32

Total # of neighbors = 8238192
Ave neighs/atom = 28.530436
Neighbor list builds = 0
Dangerous builds = 0
The dot product: -1.82602329681407e-07
Setting atom values ...
  1 settings made for x
  1 settings made for y
  1 settings made for z
Setting up cg style minimization ...
  Unit style    : metal
  Current step  : 2089
Per MPI rank memory allocation (min/avg/max) = 5.441 | 5.816 | 6.074 Mbytes
Step PotEng KinEng TotEng v_fx v_fy v_fz 
    2089   -1152449.3            0   -1152449.3 -0.0092029699  0.027215741 0.0064305912 
    2208   -1152449.3            0   -1152449.3 1.4674917e-05 -2.3827688e-05 3.0178507e-05 
Loop time of 1.37483 on 104 procs for 119 steps with 288751 atoms

99.9% CPU use with 104 MPI tasks x 1 OpenMP threads

Minimization stats:
  Stopping criterion = energy tolerance
  Energy initial, next-to-last, final = 
     -1152449.33152627   -1152449.3327592   -1152449.3327592
  Force two-norm initial, final = 0.15581345 0.00022515994
  Force max component initial, final = 0.1153343 3.4966115e-05
  Final line search alpha, max atom move = 1.0000000 3.4966115e-05
  Iterations, force evaluations = 119 238

MPI task timing breakdown:
Section |  min time  |  avg time  |  max time  |%varavg| %total
---------------------------------------------------------------
Pair    | 0.36195    | 1.0019     | 1.3031     |  27.0 | 72.88
Neigh   | 0          | 0          | 0          |   0.0 |  0.00
Comm    | 0.020204   | 0.22534    | 0.68325    |  39.6 | 16.39
Output  | 0          | 0          | 0          |   0.0 |  0.00
Modify  | 1.4473e-05 | 0.0019649  | 0.0042205  |   2.1 |  0.14
Other   |            | 0.1456     |            |       | 10.59

Nlocal:        2776.45 ave        3957 max           0 min
Histogram: 8 4 4 0 4 12 8 2 28 34
Nghost:        3879.14 ave        5424 max         232 min
Histogram: 8 0 8 0 16 0 8 8 16 40
Neighs:        79213.4 ave      115340 max           0 min
Histogram: 8 4 4 0 10 6 8 8 24 32

Total # of neighbors = 8238189
Ave neighs/atom = 28.530426
Neighbor list builds = 0
Dangerous builds = 0
The dot product: -1.89828177358014e-07
Setting atom values ...
  1 settings made for x
  1 settings made for y
  1 settings made for z
Setting up cg style minimization ...
  Unit style    : metal
  Current step  : 2208
Per MPI rank memory allocation (min/avg/max) = 5.441 | 5.816 | 6.074 Mbytes
Step PotEng KinEng TotEng v_fx v_fy v_fz 
    2208   -1152449.3            0   -1152449.3 -0.0060427024  0.020466339 0.0058416366 
    2403   -1152449.3            0   -1152449.3 2.9827742e-06 -3.3255034e-06 9.8740545e-06 
Loop time of 2.26179 on 104 procs for 195 steps with 288751 atoms

99.9% CPU use with 104 MPI tasks x 1 OpenMP threads

Minimization stats:
  Stopping criterion = energy tolerance
  Energy initial, next-to-last, final = 
     -1152449.31298244  -1152449.31417868  -1152449.31417868
  Force two-norm initial, final = 0.15614181 5.6083929e-05
  Force max component initial, final = 0.11576537 1.2241707e-05
  Final line search alpha, max atom move = 1.0000000 1.2241707e-05
  Iterations, force evaluations = 195 390

MPI task timing breakdown:
Section |  min time  |  avg time  |  max time  |%varavg| %total
---------------------------------------------------------------
Pair    | 0.59245    | 1.6357     | 2.1428     |  34.6 | 72.32
Neigh   | 0          | 0          | 0          |   0.0 |  0.00
Comm    | 0.034921   | 0.36778    | 1.1091     |  50.7 | 16.26
Output  | 0          | 0          | 0          |   0.0 |  0.00
Modify  | 2.4202e-05 | 0.0032086  | 0.0068799  |   2.7 |  0.14
Other   |            | 0.2551     |            |       | 11.28

Nlocal:        2776.45 ave        3957 max           0 min
Histogram: 8 4 4 0 4 12 8 2 28 34
Nghost:        3879.14 ave        5424 max         232 min
Histogram: 8 0 8 0 16 0 8 8 16 40
Neighs:        79213.3 ave      115339 max           0 min
Histogram: 8 4 4 0 10 6 8 8 24 32

Total # of neighbors = 8238188
Ave neighs/atom = 28.530422
Neighbor list builds = 0
Dangerous builds = 0
The dot product: -2.09022079399112e-08
Setting atom values ...
  1 settings made for x
  1 settings made for y
  1 settings made for z
Setting up cg style minimization ...
  Unit style    : metal
  Current step  : 2403
Per MPI rank memory allocation (min/avg/max) = 5.441 | 5.816 | 6.074 Mbytes
Step PotEng KinEng TotEng v_fx v_fy v_fz 
    2403   -1152449.3            0   -1152449.3 -0.0034040168  0.013641259 0.0054510872 
    2515   -1152449.3            0   -1152449.3 -1.0920061e-05 1.2515059e-06 -5.6866729e-05 
Loop time of 1.2919 on 104 procs for 112 steps with 288751 atoms

99.9% CPU use with 104 MPI tasks x 1 OpenMP threads

Minimization stats:
  Stopping criterion = energy tolerance
  Energy initial, next-to-last, final = 
     -1152449.29297609  -1152449.29414635  -1152449.29414635
  Force two-norm initial, final = 0.15698409 0.00025778285
  Force max component initial, final = 0.1163591 5.6866729e-05
  Final line search alpha, max atom move = 1.0000000 5.6866729e-05
  Iterations, force evaluations = 112 224

MPI task timing breakdown:
Section |  min time  |  avg time  |  max time  |%varavg| %total
---------------------------------------------------------------
Pair    | 0.34219    | 0.94286    | 1.2244     |  26.1 | 72.98
Neigh   | 0          | 0          | 0          |   0.0 |  0.00
Comm    | 0.019416   | 0.21136    | 0.64287    |  38.5 | 16.36
Output  | 0          | 0          | 0          |   0.0 |  0.00
Modify  | 1.3593e-05 | 0.0018544  | 0.0039895  |   2.0 |  0.14
Other   |            | 0.1358     |            |       | 10.51

Nlocal:        2776.45 ave        3957 max           0 min
Histogram: 8 4 4 0 4 12 8 2 28 34
Nghost:        3879.14 ave        5424 max         232 min
Histogram: 8 0 8 0 16 0 8 8 16 40
Neighs:        79213.3 ave      115339 max           0 min
Histogram: 8 4 4 0 10 6 8 8 24 32

Total # of neighbors = 8238186
Ave neighs/atom = 28.530415
Neighbor list builds = 0
Dangerous builds = 0
The dot product: 9.05257648547309e-09
Setting atom values ...
  1 settings made for x
  1 settings made for y
  1 settings made for z
Setting up cg style minimization ...
  Unit style    : metal
  Current step  : 2515
Per MPI rank memory allocation (min/avg/max) = 5.441 | 5.816 | 6.074 Mbytes
Step PotEng KinEng TotEng v_fx v_fy v_fz 
    2515   -1152449.3            0   -1152449.3 -0.0011890519 0.0066876932 0.0046635314 
    2662   -1152449.3            0   -1152449.3 5.1131607e-06 -6.9642527e-06 1.6122498e-05 
Loop time of 1.7048 on 104 procs for 147 steps with 288751 atoms

99.9% CPU use with 104 MPI tasks x 1 OpenMP threads

Minimization stats:
  Stopping criterion = energy tolerance
  Energy initial, next-to-last, final = 
      -1152449.2714974  -1152449.27265558  -1152449.27265558
  Force two-norm initial, final = 0.15836361 0.00022312
  Force max component initial, final = 0.11718558 1.7070381e-05
  Final line search alpha, max atom move = 1.0000000 1.7070381e-05
  Iterations, force evaluations = 147 294

MPI task timing breakdown:
Section |  min time  |  avg time  |  max time  |%varavg| %total
---------------------------------------------------------------
Pair    | 0.4494     | 1.2314     | 1.6021     |  29.8 | 72.23
Neigh   | 0          | 0          | 0          |   0.0 |  0.00
Comm    | 0.028271   | 0.27676    | 0.83537    |  44.0 | 16.23
Output  | 0          | 0          | 0          |   0.0 |  0.00
Modify  | 1.8458e-05 | 0.0024259  | 0.0051909  |   2.3 |  0.14
Other   |            | 0.1942     |            |       | 11.39

Nlocal:        2776.45 ave        3957 max           0 min
Histogram: 8 4 4 0 4 12 8 2 28 34
Nghost:        3879.14 ave        5424 max         232 min
Histogram: 8 0 8 0 16 0 8 8 16 40
Neighs:        79213.3 ave      115338 max           0 min
Histogram: 8 4 4 0 10 6 8 8 24 32

Total # of neighbors = 8238185
Ave neighs/atom = 28.530412
Neighbor list builds = 0
Dangerous builds = 0
The dot product: -2.23151933786965e-08
Setting atom values ...
  1 settings made for x
  1 settings made for y
  1 settings made for z
Setting up cg style minimization ...
  Unit style    : metal
  Current step  : 2662
Per MPI rank memory allocation (min/avg/max) = 5.441 | 5.816 | 6.074 Mbytes
Step PotEng KinEng TotEng v_fx v_fy v_fz 
    2662   -1152449.2            0   -1152449.2 0.0008860754 -0.00052827697 0.0039556105 
    2858   -1152449.2            0   -1152449.2 -1.9660156e-07 -7.9358001e-07 -2.3419887e-06 
Loop time of 2.27165 on 104 procs for 196 steps with 288751 atoms

99.9% CPU use with 104 MPI tasks x 1 OpenMP threads

Minimization stats:
  Stopping criterion = energy tolerance
  Energy initial, next-to-last, final = 
     -1152449.24854756  -1152449.24970707  -1152449.24970707
  Force two-norm initial, final = 0.16030145 5.1013916e-05
  Force max component initial, final = 0.118231 5.0253914e-06
  Final line search alpha, max atom move = 1.0000000 5.0253914e-06
  Iterations, force evaluations = 196 392

MPI task timing breakdown:
Section |  min time  |  avg time  |  max time  |%varavg| %total
---------------------------------------------------------------
Pair    | 0.60574    | 1.6571     | 2.1312     |  34.5 | 72.95
Neigh   | 0          | 0          | 0          |   0.0 |  0.00
Comm    | 0.040873   | 0.37308    | 1.1437     |  51.3 | 16.42
Output  | 0          | 0          | 0          |   0.0 |  0.00
Modify  | 2.3473e-05 | 0.0032384  | 0.0069456  |   2.7 |  0.14
Other   |            | 0.2382     |            |       | 10.49

Nlocal:        2776.45 ave        3957 max           0 min
Histogram: 8 4 4 0 4 12 8 2 28 34
Nghost:        3879.14 ave        5424 max         232 min
Histogram: 8 0 8 0 16 0 8 8 16 40
Neighs:        79213.3 ave      115338 max           0 min
Histogram: 8 4 4 0 10 6 8 8 24 32

Total # of neighbors = 8238184
Ave neighs/atom = 28.530409
Neighbor list builds = 0
Dangerous builds = 0
The dot product: -6.32513436395699e-10
Setting atom values ...
  1 settings made for x
  1 settings made for y
  1 settings made for z
Setting up cg style minimization ...
  Unit style    : metal
  Current step  : 2858
Per MPI rank memory allocation (min/avg/max) = 5.441 | 5.816 | 6.074 Mbytes
Step PotEng KinEng TotEng v_fx v_fy v_fz 
    2858   -1152449.2            0   -1152449.2 0.0029645688 -0.0083006589 0.0029118817 
    2960   -1152449.2            0   -1152449.2 -7.7860666e-06 4.784026e-06 -3.4716057e-05 
Loop time of 1.18195 on 104 procs for 102 steps with 288751 atoms

99.9% CPU use with 104 MPI tasks x 1 OpenMP threads

Minimization stats:
  Stopping criterion = energy tolerance
  Energy initial, next-to-last, final = 
     -1152449.22413443  -1152449.22531377  -1152449.22531377
  Force two-norm initial, final = 0.1629875 0.00028198841
  Force max component initial, final = 0.11965587 3.4716057e-05
  Final line search alpha, max atom move = 1.0000000 3.4716057e-05
  Iterations, force evaluations = 102 204

MPI task timing breakdown:
Section |  min time  |  avg time  |  max time  |%varavg| %total
---------------------------------------------------------------
Pair    | 0.31067    | 0.85705    | 1.1143     |  25.0 | 72.51
Neigh   | 0          | 0          | 0          |   0.0 |  0.00
Comm    | 0.017194   | 0.19327    | 0.59764    |  36.9 | 16.35
Output  | 0          | 0          | 0          |   0.0 |  0.00
Modify  | 1.2427e-05 | 0.0016877  | 0.0036024  |   1.9 |  0.14
Other   |            | 0.1299     |            |       | 10.99

Nlocal:        2776.45 ave        3956 max           0 min
Histogram: 8 4 4 0 4 12 8 2 28 34
Nghost:        3879.14 ave        5424 max         232 min
Histogram: 8 0 8 0 16 0 8 8 16 40
Neighs:        79213.3 ave      115305 max           0 min
Histogram: 8 4 4 0 10 6 8 8 24 32

Total # of neighbors = 8238185
Ave neighs/atom = 28.530412
Neighbor list builds = 0
Dangerous builds = 0
The dot product: 8.15487067378989e-09
Setting atom values ...
  1 settings made for x
  1 settings made for y
  1 settings made for z
Setting up cg style minimization ...
  Unit style    : metal
  Current step  : 2960
Per MPI rank memory allocation (min/avg/max) = 5.441 | 5.816 | 6.074 Mbytes
Step PotEng KinEng TotEng v_fx v_fy v_fz 
    2960   -1152449.2            0   -1152449.2  0.005299145 -0.017227233 0.0011751165 
    3000   -1152449.2            0   -1152449.2 3.643406e-05 -5.5141781e-05 0.00011022165 
    3087   -1152449.2            0   -1152449.2 7.0102265e-07 4.3499897e-06 1.0851539e-05 
Loop time of 1.46475 on 104 procs for 127 steps with 288751 atoms

99.9% CPU use with 104 MPI tasks x 1 OpenMP threads

Minimization stats:
  Stopping criterion = energy tolerance
  Energy initial, next-to-last, final = 
     -1152449.19828719   -1152449.1995159   -1152449.1995159
  Force two-norm initial, final = 0.16656685 0.00019474791
  Force max component initial, final = 0.12150473 1.4311199e-05
  Final line search alpha, max atom move = 1.0000000 1.4311199e-05
  Iterations, force evaluations = 127 254

MPI task timing breakdown:
Section |  min time  |  avg time  |  max time  |%varavg| %total
---------------------------------------------------------------
Pair    | 0.38736    | 1.0726     | 1.3858     |  27.9 | 73.23
Neigh   | 0          | 0          | 0          |   0.0 |  0.00
Comm    | 0.022552   | 0.23893    | 0.73556    |  41.6 | 16.31
Output  | 0.00014335 | 0.00014546 | 0.00022871 |   0.0 |  0.01
Modify  | 1.54e-05   | 0.0021061  | 0.0044893  |   2.2 |  0.14
Other   |            | 0.151      |            |       | 10.31

Nlocal:        2776.45 ave        3956 max           0 min
Histogram: 8 4 4 0 4 12 8 2 28 34
Nghost:        3879.14 ave        5424 max         232 min
Histogram: 8 0 8 0 16 0 8 8 16 40
Neighs:        79213.3 ave      115306 max           0 min
Histogram: 8 4 4 0 10 6 8 8 24 32

Total # of neighbors = 8238184
Ave neighs/atom = 28.530409
Neighbor list builds = 0
Dangerous builds = 0
The dot product: -2.33300346127316e-08
Setting atom values ...
  1 settings made for x
  1 settings made for y
  1 settings made for z
Setting up cg style minimization ...
  Unit style    : metal
  Current step  : 3087
Per MPI rank memory allocation (min/avg/max) = 5.441 | 5.816 | 6.074 Mbytes
Step PotEng KinEng TotEng v_fx v_fy v_fz 
    3087   -1152449.2            0   -1152449.2 0.0085242351 -0.028723813 -0.0013555342 
    3289   -1152449.2            0   -1152449.2 -5.544243e-07 9.8322454e-07 -1.4055307e-06 
Loop time of 2.33669 on 104 procs for 202 steps with 288751 atoms

99.9% CPU use with 104 MPI tasks x 1 OpenMP threads

Minimization stats:
  Stopping criterion = energy tolerance
  Energy initial, next-to-last, final = 
     -1152449.17107967  -1152449.17242165  -1152449.17242165
  Force two-norm initial, final = 0.17150961 3.7368247e-05
  Force max component initial, final = 0.12396815 6.8048968e-06
  Final line search alpha, max atom move = 1.0000000 6.8048968e-06
  Iterations, force evaluations = 202 404

MPI task timing breakdown:
Section |  min time  |  avg time  |  max time  |%varavg| %total
---------------------------------------------------------------
Pair    | 0.61455    | 1.6983     | 2.2105     |  35.2 | 72.68
Neigh   | 0          | 0          | 0          |   0.0 |  0.00
Comm    | 0.034148   | 0.38053    | 1.1538     |  52.2 | 16.29
Output  | 0          | 0          | 0          |   0.0 |  0.00
Modify  | 2.5686e-05 | 0.0033416  | 0.0071397  |   2.7 |  0.14
Other   |            | 0.2546     |            |       | 10.89

Nlocal:        2776.45 ave        3956 max           0 min
Histogram: 8 4 4 0 4 12 8 2 28 34
Nghost:        3879.14 ave        5424 max         232 min
Histogram: 8 0 8 0 16 0 8 8 16 40
Neighs:        79213.3 ave      115306 max           0 min
Histogram: 8 4 4 0 10 6 8 8 24 32

Total # of neighbors = 8238185
Ave neighs/atom = 28.530412
Neighbor list builds = 0
Dangerous builds = 0
The dot product: -5.8379981893005e-09
Setting atom values ...
  1 settings made for x
  1 settings made for y
  1 settings made for z
Setting up cg style minimization ...
  Unit style    : metal
  Current step  : 3289
Per MPI rank memory allocation (min/avg/max) = 5.441 | 5.816 | 6.074 Mbytes
Step PotEng KinEng TotEng v_fx v_fy v_fz 
    3289   -1152449.1            0   -1152449.1  0.012022919 -0.042364398 -0.010350895 
    3408   -1152449.1            0   -1152449.1 5.8801922e-06 -6.2839625e-06 2.1619462e-05 
Loop time of 1.39567 on 104 procs for 119 steps with 288751 atoms

99.9% CPU use with 104 MPI tasks x 1 OpenMP threads

Minimization stats:
  Stopping criterion = energy tolerance
  Energy initial, next-to-last, final = 
     -1152449.14260044  -1152449.14414157  -1152449.14414157
  Force two-norm initial, final = 0.17788429 0.00015559988
  Force max component initial, final = 0.12744525 2.6091342e-05
  Final line search alpha, max atom move = 1.0000000 2.6091342e-05
  Iterations, force evaluations = 119 238

MPI task timing breakdown:
Section |  min time  |  avg time  |  max time  |%varavg| %total
---------------------------------------------------------------
Pair    | 0.36443    | 1.0086     | 1.3126     |  27.1 | 72.27
Neigh   | 0          | 0          | 0          |   0.0 |  0.00
Comm    | 0.021599   | 0.22699    | 0.6974     |  39.6 | 16.26
Output  | 0          | 0          | 0          |   0.0 |  0.00
Modify  | 1.4826e-05 | 0.0019632  | 0.0042024  |   2.1 |  0.14
Other   |            | 0.1581     |            |       | 11.33

Nlocal:        2776.45 ave        3955 max           0 min
Histogram: 8 4 4 0 4 12 8 2 28 34
Nghost:        3879.13 ave        5424 max         232 min
Histogram: 8 0 8 0 16 0 8 8 16 40
Neighs:        79213.3 ave      115269 max           0 min
Histogram: 8 4 4 0 10 6 8 8 24 32

Total # of neighbors = 8238183
Ave neighs/atom = 28.530405
Neighbor list builds = 0
Dangerous builds = 0
The dot product: 1.04935597928067e-08
Setting atom values ...
  1 settings made for x
  1 settings made for y
  1 settings made for z
Setting up cg style minimization ...
  Unit style    : metal
  Current step  : 3408
Per MPI rank memory allocation (min/avg/max) = 5.441 | 5.816 | 6.074 Mbytes
Step PotEng KinEng TotEng v_fx v_fy v_fz 
    3408   -1152449.1            0   -1152449.1  0.015155803 -0.053046658 -0.022963524 
    3562   -1152449.1            0   -1152449.1 -2.3730252e-06 3.017955e-06 -7.6359872e-06 
Loop time of 1.77802 on 104 procs for 154 steps with 288751 atoms

99.9% CPU use with 104 MPI tasks x 1 OpenMP threads

Minimization stats:
  Stopping criterion = energy tolerance
  Energy initial, next-to-last, final = 
     -1152449.11278775  -1152449.11457989  -1152449.11457989
  Force two-norm initial, final = 0.18588222 2.7881639e-05
  Force max component initial, final = 0.1318694 7.6359872e-06
  Final line search alpha, max atom move = 1.0000000 7.6359872e-06
  Iterations, force evaluations = 154 308

MPI task timing breakdown:
Section |  min time  |  avg time  |  max time  |%varavg| %total
---------------------------------------------------------------
Pair    | 0.4692     | 1.2928     | 1.6855     |  30.7 | 72.71
Neigh   | 0          | 0          | 0          |   0.0 |  0.00
Comm    | 0.025837   | 0.28823    | 0.87499    |  45.5 | 16.21
Output  | 0          | 0          | 0          |   0.0 |  0.00
Modify  | 1.9136e-05 | 0.0025385  | 0.005448   |   2.4 |  0.14
Other   |            | 0.1944     |            |       | 10.94

Nlocal:        2776.45 ave        3955 max           0 min
Histogram: 8 4 4 0 4 12 8 2 28 34
Nghost:        3879.13 ave        5424 max         232 min
Histogram: 8 0 8 0 16 0 8 8 16 40
Neighs:        79213.3 ave      115269 max           0 min
Histogram: 8 4 4 0 10 6 8 8 24 32

Total # of neighbors = 8238181
Ave neighs/atom = 28.530398
Neighbor list builds = 0
Dangerous builds = 0
The dot product: -8.5492832198447e-09
Setting atom values ...
  1 settings made for x
  1 settings made for y
  1 settings made for z
Setting up cg style minimization ...
  Unit style    : metal
  Current step  : 3562
Per MPI rank memory allocation (min/avg/max) = 5.441 | 5.816 | 6.074 Mbytes
Step PotEng KinEng TotEng v_fx v_fy v_fz 
    3562   -1152449.1            0   -1152449.1  0.019119669 -0.060453994  -0.03115738 
    3713   -1152449.1            0   -1152449.1 1.220708e-06 -1.1409695e-06 4.9006268e-06 
Loop time of 1.7417 on 104 procs for 151 steps with 288751 atoms

99.9% CPU use with 104 MPI tasks x 1 OpenMP threads

Minimization stats:
  Stopping criterion = energy tolerance
  Energy initial, next-to-last, final = 
     -1152449.08164459  -1152449.08364425  -1152449.08364425
  Force two-norm initial, final = 0.19337463 8.7600125e-05
  Force max component initial, final = 0.13678428 4.9006268e-06
  Final line search alpha, max atom move = 1.0000000 4.9006268e-06
  Iterations, force evaluations = 151 302

MPI task timing breakdown:
Section |  min time  |  avg time  |  max time  |%varavg| %total
---------------------------------------------------------------
Pair    | 0.46015    | 1.2709     | 1.6502     |  30.4 | 72.97
Neigh   | 0          | 0          | 0          |   0.0 |  0.00
Comm    | 0.025631   | 0.28379    | 0.86173    |  45.0 | 16.29
Output  | 0          | 0          | 0          |   0.0 |  0.00
Modify  | 1.9712e-05 | 0.0024895  | 0.0053236  |   2.4 |  0.14
Other   |            | 0.1846     |            |       | 10.60

Nlocal:        2776.45 ave        3950 max           0 min
Histogram: 8 4 4 0 4 12 8 2 26 36
Nghost:        3879.12 ave        5424 max         232 min
Histogram: 8 0 8 0 16 0 8 8 16 40
Neighs:        79213.3 ave      115082 max           0 min
Histogram: 8 4 4 0 10 6 8 8 24 32

Total # of neighbors = 8238183
Ave neighs/atom = 28.530405
Neighbor list builds = 0
Dangerous builds = 0
The dot product: -1.1451640228004e-08
Setting atom values ...
  1 settings made for x
  1 settings made for y
  1 settings made for z
Setting up cg style minimization ...
  Unit style    : metal
  Current step  : 3713
Per MPI rank memory allocation (min/avg/max) = 5.441 | 5.816 | 6.074 Mbytes
Step PotEng KinEng TotEng v_fx v_fy v_fz 
    3713     -1152449            0     -1152449  0.022733353 -0.064597828 -0.039537481 
    3839   -1152449.1            0   -1152449.1 -1.8119815e-05 4.0587142e-05 -2.297268e-06 
Loop time of 1.45455 on 104 procs for 126 steps with 288751 atoms

99.9% CPU use with 104 MPI tasks x 1 OpenMP threads

Minimization stats:
  Stopping criterion = energy tolerance
  Energy initial, next-to-last, final = 
     -1152449.04917867  -1152449.05133826  -1152449.05133826
  Force two-norm initial, final = 0.19988407 0.00024539261
  Force max component initial, final = 0.14190354 4.0587142e-05
  Final line search alpha, max atom move = 1.0000000 4.0587142e-05
  Iterations, force evaluations = 126 252

MPI task timing breakdown:
Section |  min time  |  avg time  |  max time  |%varavg| %total
---------------------------------------------------------------
Pair    | 0.38351    | 1.058      | 1.3701     |  27.6 | 72.74
Neigh   | 0          | 0          | 0          |   0.0 |  0.00
Comm    | 0.021447   | 0.23607    | 0.71626    |  41.0 | 16.23
Output  | 0          | 0          | 0          |   0.0 |  0.00
Modify  | 1.5427e-05 | 0.0020801  | 0.0044428  |   2.2 |  0.14
Other   |            | 0.1583     |            |       | 10.89

Nlocal:        2776.45 ave        3944 max           0 min
Histogram: 8 4 4 0 4 12 8 2 26 36
Nghost:        3879.12 ave        5424 max         232 min
Histogram: 8 0 8 0 16 0 8 8 16 40
Neighs:        79213.3 ave      114917 max           0 min
Histogram: 8 4 4 0 10 6 8 8 22 34

Total # of neighbors = 8238179
Ave neighs/atom = 28.530391
Neighbor list builds = 0
Dangerous builds = 0
The dot product: -7.11863998592321e-07
Setting atom values ...
  1 settings made for x
  1 settings made for y
  1 settings made for z
Setting up cg style minimization ...
  Unit style    : metal
  Current step  : 3839
Per MPI rank memory allocation (min/avg/max) = 5.441 | 5.816 | 6.074 Mbytes
Step PotEng KinEng TotEng v_fx v_fy v_fz 
    3839     -1152449            0     -1152449  0.025111944 -0.065576148 -0.052689099 
    4000     -1152449            0     -1152449 1.8374038e-05 -4.1467767e-05 -1.2825456e-05 
    4025     -1152449            0     -1152449 3.2943305e-06 -8.5577318e-06 -6.7346062e-06 
Loop time of 2.14433 on 104 procs for 186 steps with 288751 atoms

99.9% CPU use with 104 MPI tasks x 1 OpenMP threads

Minimization stats:
  Stopping criterion = energy tolerance
  Energy initial, next-to-last, final = 
     -1152449.01547504  -1152449.01780764  -1152449.01780764
  Force two-norm initial, final = 0.2064544 0.00010907224
  Force max component initial, final = 0.14707971 1.3623258e-05
  Final line search alpha, max atom move = 1.0000000 1.3623258e-05
  Iterations, force evaluations = 186 372

MPI task timing breakdown:
Section |  min time  |  avg time  |  max time  |%varavg| %total
---------------------------------------------------------------
Pair    | 0.56647    | 1.5706     | 2.0313     |  33.8 | 73.24
Neigh   | 0          | 0          | 0          |   0.0 |  0.00
Comm    | 0.031901   | 0.35302    | 1.0711     |  49.9 | 16.46
Output  | 9.6437e-05 | 9.9487e-05 | 0.00021533 |   0.0 |  0.00
Modify  | 2.2987e-05 | 0.0030738  | 0.0065969  |   2.6 |  0.14
Other   |            | 0.2176     |            |       | 10.15

Nlocal:        2776.45 ave        3934 max           0 min
Histogram: 8 4 4 0 4 12 8 0 28 36
Nghost:        3879.12 ave        5424 max         232 min
Histogram: 8 0 8 0 16 0 8 8 16 40
Neighs:        79213.2 ave      114613 max           0 min
Histogram: 8 4 4 0 8 8 8 8 20 36

Total # of neighbors = 8238177
Ave neighs/atom = 28.530384
Neighbor list builds = 0
Dangerous builds = 0
The dot product: 2.33299795257714e-07
Setting atom values ...
  1 settings made for x
  1 settings made for y
  1 settings made for z
Setting up cg style minimization ...
  Unit style    : metal
  Current step  : 4025
Per MPI rank memory allocation (min/avg/max) = 5.441 | 5.816 | 6.074 Mbytes
Step PotEng KinEng TotEng v_fx v_fy v_fz 
    4025     -1152449            0     -1152449  0.026310601 -0.062684325 -0.067554946 
    4195     -1152449            0     -1152449 -1.458478e-05 2.7220556e-05 -4.126064e-06 
Loop time of 1.94366 on 104 procs for 170 steps with 288751 atoms

99.9% CPU use with 104 MPI tasks x 1 OpenMP threads

Minimization stats:
  Stopping criterion = energy tolerance
  Energy initial, next-to-last, final = 
     -1152448.98077862  -1152448.98319415  -1152448.98319415
  Force two-norm initial, final = 0.21268101 0.00028529726
  Force max component initial, final = 0.15225727 7.3292621e-05
  Final line search alpha, max atom move = 1.0000000 7.3292621e-05
  Iterations, force evaluations = 170 340

MPI task timing breakdown:
Section |  min time  |  avg time  |  max time  |%varavg| %total
---------------------------------------------------------------
Pair    | 0.51666    | 1.4222     | 1.8408     |  32.2 | 73.17
Neigh   | 0          | 0          | 0          |   0.0 |  0.00
Comm    | 0.028793   | 0.31662    | 0.97118    |  48.0 | 16.29
Output  | 0          | 0          | 0          |   0.0 |  0.00
Modify  | 2.1216e-05 | 0.0028039  | 0.0060372  |   2.5 |  0.14
Other   |            | 0.202      |            |       | 10.39

Nlocal:        2776.45 ave        3932 max           0 min
Histogram: 8 4 4 0 4 12 8 0 26 38
Nghost:        3879.13 ave        5424 max         232 min
Histogram: 8 0 8 0 16 0 8 8 16 40
Neighs:        79213.2 ave      114548 max           0 min
Histogram: 8 4 4 0 8 8 8 8 20 36

Total # of neighbors = 8238176
Ave neighs/atom = 28.530381
Neighbor list builds = 0
Dangerous builds = 0
The dot product: -3.87313377081835e-07
Setting atom values ...
  1 settings made for x
  1 settings made for y
  1 settings made for z
Setting up cg style minimization ...
  Unit style    : metal
  Current step  : 4195
Per MPI rank memory allocation (min/avg/max) = 5.441 | 5.816 | 6.074 Mbytes
Step PotEng KinEng TotEng v_fx v_fy v_fz 
    4195   -1152448.9            0   -1152448.9  0.026002379 -0.055326579 -0.077611344 
    4419     -1152449            0     -1152449 9.4033316e-08 -5.2084489e-06 -4.485852e-05 
Loop time of 2.59282 on 104 procs for 224 steps with 288751 atoms

99.9% CPU use with 104 MPI tasks x 1 OpenMP threads

Minimization stats:
  Stopping criterion = energy tolerance
  Energy initial, next-to-last, final = 
     -1152448.94525295  -1152448.98067864  -1152448.98067864
  Force two-norm initial, final = 0.21759857 0.00029962448
  Force max component initial, final = 0.15722568 9.8318677e-05
  Final line search alpha, max atom move = 1.0000000 9.8318677e-05
  Iterations, force evaluations = 224 447

MPI task timing breakdown:
Section |  min time  |  avg time  |  max time  |%varavg| %total
---------------------------------------------------------------
Pair    | 0.68509    | 1.8865     | 2.4329     |  37.0 | 72.76
Neigh   | 1.0467e-05 | 0.0029631  | 0.0042684  |   2.2 |  0.11
Comm    | 0.042769   | 0.42295    | 1.2907     |  54.8 | 16.31
Output  | 0          | 0          | 0          |   0.0 |  0.00
Modify  | 2.7924e-05 | 0.0036895  | 0.0078877  |   2.9 |  0.14
Other   |            | 0.2767     |            |       | 10.67

Nlocal:        2776.45 ave        3931 max           0 min
Histogram: 8 4 4 0 4 12 8 0 26 38
Nghost:        3879.18 ave        5424 max         232 min
Histogram: 8 0 8 0 16 0 8 8 16 40
Neighs:        79213.3 ave      114531 max           0 min
Histogram: 8 4 4 0 8 8 8 8 20 36

Total # of neighbors = 8238183
Ave neighs/atom = 28.530405
Neighbor list builds = 1
Dangerous builds = 0
The dot product: 2.76944452869108e-06
Setting atom values ...
  1 settings made for x
  1 settings made for y
  1 settings made for z
Setting up cg style minimization ...
  Unit style    : metal
  Current step  : 4419
Per MPI rank memory allocation (min/avg/max) = 5.441 | 5.816 | 6.074 Mbytes
Step PotEng KinEng TotEng v_fx v_fy v_fz 
    4419     -1152449            0     -1152449  0.023415042 -0.024699909  -0.13268815 
    4614     -1152449            0     -1152449 -1.2609335e-06 5.4834543e-06 -2.9659649e-05 
Loop time of 2.25673 on 104 procs for 195 steps with 288751 atoms

99.9% CPU use with 104 MPI tasks x 1 OpenMP threads

Minimization stats:
  Stopping criterion = energy tolerance
  Energy initial, next-to-last, final = 
     -1152448.95838282  -1152448.96190012  -1152448.96190012
  Force two-norm initial, final = 0.24789073 0.00011411183
  Force max component initial, final = 0.16631274 2.9659649e-05
  Final line search alpha, max atom move = 1.0000000 2.9659649e-05
  Iterations, force evaluations = 195 390

MPI task timing breakdown:
Section |  min time  |  avg time  |  max time  |%varavg| %total
---------------------------------------------------------------
Pair    | 0.59187    | 1.6373     | 2.135      |  34.6 | 72.55
Neigh   | 0          | 0          | 0          |   0.0 |  0.00
Comm    | 0.032791   | 0.36757    | 1.1142     |  51.1 | 16.29
Output  | 0          | 0          | 0          |   0.0 |  0.00
Modify  | 2.4333e-05 | 0.0032228  | 0.0068826  |   2.7 |  0.14
Other   |            | 0.2486     |            |       | 11.02

Nlocal:        2776.45 ave        3952 max           0 min
Histogram: 8 4 4 0 4 12 8 2 28 34
Nghost:        3879.16 ave        5424 max         232 min
Histogram: 8 0 8 0 16 0 8 8 16 40
Neighs:        79213.3 ave      115161 max           0 min
Histogram: 8 4 4 0 10 6 8 8 24 32

Total # of neighbors = 8238183
Ave neighs/atom = 28.530405
Neighbor list builds = 0
Dangerous builds = 0
The dot product: 7.58261812244896e-07
Setting atom values ...
  1 settings made for x
  1 settings made for y
  1 settings made for z
Setting up cg style minimization ...
  Unit style    : metal
  Current step  : 4614
Per MPI rank memory allocation (min/avg/max) = 5.441 | 5.816 | 6.074 Mbytes
Step PotEng KinEng TotEng v_fx v_fy v_fz 
    4614   -1152448.9            0   -1152448.9  0.013675516 -0.0093044492  -0.06592396 
    4814   -1152448.9            0   -1152448.9 3.9336093e-08 1.2869969e-06 -6.6550034e-06 
Loop time of 2.30355 on 104 procs for 200 steps with 288751 atoms

99.9% CPU use with 104 MPI tasks x 1 OpenMP threads

Minimization stats:
  Stopping criterion = energy tolerance
  Energy initial, next-to-last, final = 
     -1152448.93946508  -1152448.94177564  -1152448.94177564
  Force two-norm initial, final = 0.22210646 3.8457009e-05
  Force max component initial, final = 0.16899151 8.8205624e-06
  Final line search alpha, max atom move = 1.0000000 8.8205624e-06
  Iterations, force evaluations = 200 400

MPI task timing breakdown:
Section |  min time  |  avg time  |  max time  |%varavg| %total
---------------------------------------------------------------
Pair    | 0.60905    | 1.6862     | 2.1722     |  35.0 | 73.20
Neigh   | 0          | 0          | 0          |   0.0 |  0.00
Comm    | 0.035037   | 0.37475    | 1.1426     |  52.1 | 16.27
Output  | 0          | 0          | 0          |   0.0 |  0.00
Modify  | 2.4728e-05 | 0.0033062  | 0.0070662  |   2.7 |  0.14
Other   |            | 0.2393     |            |       | 10.39

Nlocal:        2776.45 ave        3948 max           0 min
Histogram: 8 4 4 0 4 12 8 2 26 36
Nghost:        3879.16 ave        5424 max         232 min
Histogram: 8 0 8 0 16 0 8 8 16 40
Neighs:        79213.3 ave      115011 max           0 min
Histogram: 8 4 4 0 10 6 8 8 24 32

Total # of neighbors = 8238186
Ave neighs/atom = 28.530415
Neighbor list builds = 0
Dangerous builds = 0
The dot product: 8.47287603061612e-08
Setting atom values ...
  1 settings made for x
  1 settings made for y
  1 settings made for z
Setting up cg style minimization ...
  Unit style    : metal
  Current step  : 4814
Per MPI rank memory allocation (min/avg/max) = 5.441 | 5.816 | 6.074 Mbytes
Step PotEng KinEng TotEng v_fx v_fy v_fz 
    4814   -1152448.9            0   -1152448.9 0.0084758546 -0.003972424 -0.040644772 
    4990   -1152448.9            0   -1152448.9 -1.2513736e-06 4.9658747e-06 -1.1821905e-05 
Loop time of 2.02397 on 104 procs for 176 steps with 288751 atoms

99.9% CPU use with 104 MPI tasks x 1 OpenMP threads

Minimization stats:
  Stopping criterion = energy tolerance
  Energy initial, next-to-last, final = 
     -1152448.91933946  -1152448.92162166  -1152448.92162166
  Force two-norm initial, final = 0.22068233 8.2626549e-05
  Force max component initial, final = 0.17130655 1.6662462e-05
  Final line search alpha, max atom move = 1.0000000 1.6662462e-05
  Iterations, force evaluations = 176 352

MPI task timing breakdown:
Section |  min time  |  avg time  |  max time  |%varavg| %total
---------------------------------------------------------------
Pair    | 0.53533    | 1.4759     | 1.917      |  32.8 | 72.92
Neigh   | 0          | 0          | 0          |   0.0 |  0.00
Comm    | 0.029405   | 0.32862    | 1.0034     |  48.9 | 16.24
Output  | 0          | 0          | 0          |   0.0 |  0.00
Modify  | 2.1453e-05 | 0.0029041  | 0.0062677  |   2.6 |  0.14
Other   |            | 0.2165     |            |       | 10.70

Nlocal:        2776.45 ave        3948 max           0 min
Histogram: 8 4 4 0 4 12 8 2 26 36
Nghost:        3879.12 ave        5424 max         232 min
Histogram: 8 0 8 0 16 0 8 8 16 40
Neighs:        79213.3 ave      115010 max           0 min
Histogram: 8 4 4 0 10 6 8 8 24 32

Total # of neighbors = 8238183
Ave neighs/atom = 28.530405
Neighbor list builds = 0
Dangerous builds = 0
The dot product: 9.19654763063859e-08
Setting atom values ...
  1 settings made for x
  1 settings made for y
  1 settings made for z
Setting up cg style minimization ...
  Unit style    : metal
  Current step  : 4990
Per MPI rank memory allocation (min/avg/max) = 5.441 | 5.816 | 6.074 Mbytes
Step PotEng KinEng TotEng v_fx v_fy v_fz 
    4990   -1152448.9            0   -1152448.9 0.0063225926 -0.0022498531 -0.029892721 
    5000   -1152448.9            0   -1152448.9 0.00018355804 0.00013037886 -0.0015883975 
    5127   -1152448.9            0   -1152448.9 6.3196226e-06 -2.1107902e-05 3.9559969e-05 
Loop time of 1.57191 on 104 procs for 137 steps with 288751 atoms

99.9% CPU use with 104 MPI tasks x 1 OpenMP threads

Minimization stats:
  Stopping criterion = energy tolerance
  Energy initial, next-to-last, final = 
      -1152448.8993577   -1152448.9013278   -1152448.9013278
  Force two-norm initial, final = 0.22061781 0.00021727415
  Force max component initial, final = 0.1736493 6.5913148e-05
  Final line search alpha, max atom move = 1.0000000 6.5913148e-05
  Iterations, force evaluations = 137 274

MPI task timing breakdown:
Section |  min time  |  avg time  |  max time  |%varavg| %total
---------------------------------------------------------------
Pair    | 0.41606    | 1.1527     | 1.4872     |  29.0 | 73.33
Neigh   | 0          | 0          | 0          |   0.0 |  0.00
Comm    | 0.023804   | 0.25585    | 0.78055    |  43.1 | 16.28
Output  | 9.4835e-05 | 0.00010106 | 0.00016385 |   0.0 |  0.01
Modify  | 1.682e-05  | 0.0022629  | 0.0048339  |   2.2 |  0.14
Other   |            | 0.161      |            |       | 10.24

Nlocal:        2776.45 ave        3948 max           0 min
Histogram: 8 4 4 0 4 12 8 2 26 36
Nghost:        3879.12 ave        5424 max         232 min
Histogram: 8 0 8 0 16 0 8 8 16 40
Neighs:        79213.3 ave      115010 max           0 min
Histogram: 8 4 4 0 10 6 8 8 24 32

Total # of neighbors = 8238182
Ave neighs/atom = 28.530402
Neighbor list builds = 0
Dangerous builds = 0
The dot product: -1.77591844788509e-07
Setting atom values ...
  1 settings made for x
  1 settings made for y
  1 settings made for z
Setting up cg style minimization ...
  Unit style    : metal
  Current step  : 5127
Per MPI rank memory allocation (min/avg/max) = 5.441 | 5.816 | 6.074 Mbytes
Step PotEng KinEng TotEng v_fx v_fy v_fz 
    5127   -1152448.9            0   -1152448.9 0.0046723729 -0.0019470044 -0.019927774 
    5379   -1152448.9            0   -1152448.9 3.4659287e-07 -1.2631922e-06 2.4321751e-06 
Loop time of 2.90696 on 104 procs for 252 steps with 288751 atoms

99.9% CPU use with 104 MPI tasks x 1 OpenMP threads

Minimization stats:
  Stopping criterion = energy tolerance
  Energy initial, next-to-last, final = 
     -1152448.87794469  -1152448.87975445  -1152448.87975445
  Force two-norm initial, final = 0.21932839 9.6368836e-06
  Force max component initial, final = 0.17590292 2.8929055e-06
  Final line search alpha, max atom move = 1.0000000 2.8929055e-06
  Iterations, force evaluations = 252 504

MPI task timing breakdown:
Section |  min time  |  avg time  |  max time  |%varavg| %total
---------------------------------------------------------------
Pair    | 0.76283    | 2.1066     | 2.7399     |  39.2 | 72.47
Neigh   | 0          | 0          | 0          |   0.0 |  0.00
Comm    | 0.042153   | 0.47152    | 1.4316     |  57.9 | 16.22
Output  | 0          | 0          | 0          |   0.0 |  0.00
Modify  | 3.0026e-05 | 0.0041557  | 0.008872   |   3.0 |  0.14
Other   |            | 0.3247     |            |       | 11.17

Nlocal:        2776.45 ave        3947 max           0 min
Histogram: 8 4 4 0 4 12 8 2 26 36
Nghost:        3879.12 ave        5424 max         232 min
Histogram: 8 0 8 0 16 0 8 8 16 40
Neighs:        79213.3 ave      114988 max           0 min
Histogram: 8 4 4 0 10 6 8 8 24 32

Total # of neighbors = 8238180
Ave neighs/atom = 28.530395
Neighbor list builds = 0
Dangerous builds = 0
The dot product: -5.45899478115528e-09
Setting atom values ...
  1 settings made for x
  1 settings made for y
  1 settings made for z
Setting up cg style minimization ...
  Unit style    : metal
  Current step  : 5379
Per MPI rank memory allocation (min/avg/max) = 5.441 | 5.816 | 6.074 Mbytes
Step PotEng KinEng TotEng v_fx v_fy v_fz 
    5379   -1152448.9            0   -1152448.9 0.0033275782 -0.0015530761 -0.013314945 
    5542   -1152448.9            0   -1152448.9 9.2817464e-07 1.422595e-06 -1.0053476e-05 
Loop time of 1.89049 on 104 procs for 163 steps with 288751 atoms

99.9% CPU use with 104 MPI tasks x 1 OpenMP threads

Minimization stats:
  Stopping criterion = energy tolerance
  Energy initial, next-to-last, final = 
     -1152448.85435593  -1152448.85627976  -1152448.85627976
  Force two-norm initial, final = 0.22334049 0.00021774311
  Force max component initial, final = 0.17822241 4.3621473e-05
  Final line search alpha, max atom move = 1.0000000 4.3621473e-05
  Iterations, force evaluations = 163 326

MPI task timing breakdown:
Section |  min time  |  avg time  |  max time  |%varavg| %total
---------------------------------------------------------------
Pair    | 0.49575    | 1.3739     | 1.7838     |  31.6 | 72.68
Neigh   | 0          | 0          | 0          |   0.0 |  0.00
Comm    | 0.028249   | 0.30742    | 0.93307    |  46.8 | 16.26
Output  | 0          | 0          | 0          |   0.0 |  0.00
Modify  | 2.0144e-05 | 0.0026888  | 0.0058025  |   2.5 |  0.14
Other   |            | 0.2064     |            |       | 10.92

Nlocal:        2776.45 ave        3945 max           0 min
Histogram: 8 4 4 0 4 12 8 2 26 36
Nghost:        3879.12 ave        5424 max         232 min
Histogram: 8 0 8 0 16 0 8 8 16 40
Neighs:        79213.3 ave      114920 max           0 min
Histogram: 8 4 4 0 10 6 8 8 22 34

Total # of neighbors = 8238179
Ave neighs/atom = 28.530391
Neighbor list builds = 0
Dangerous builds = 0
The dot product: 7.58548873141996e-09
Setting atom values ...
  1 settings made for x
  1 settings made for y
  1 settings made for z
Setting up cg style minimization ...
  Unit style    : metal
  Current step  : 5542
Per MPI rank memory allocation (min/avg/max) = 5.441 | 5.816 | 6.074 Mbytes
Step PotEng KinEng TotEng v_fx v_fy v_fz 
    5542   -1152448.8            0   -1152448.8 0.0025484115 -0.0013153847 -0.009712892 
    5766   -1152448.8            0   -1152448.8 3.9082528e-08 -3.2110819e-08 -1.0852777e-07 
Loop time of 2.56471 on 104 procs for 224 steps with 288751 atoms

99.9% CPU use with 104 MPI tasks x 1 OpenMP threads

Minimization stats:
  Stopping criterion = energy tolerance
  Energy initial, next-to-last, final = 
     -1152448.82864464  -1152448.83068005  -1152448.83068005
  Force two-norm initial, final = 0.22795463 3.9384997e-05
  Force max component initial, final = 0.18043298 9.4501845e-06
  Final line search alpha, max atom move = 1.0000000 9.4501845e-06
  Iterations, force evaluations = 224 448

MPI task timing breakdown:
Section |  min time  |  avg time  |  max time  |%varavg| %total
---------------------------------------------------------------
Pair    | 0.67966    | 1.8737     | 2.4296     |  36.9 | 73.06
Neigh   | 0          | 0          | 0          |   0.0 |  0.00
Comm    | 0.038019   | 0.41817    | 1.2784     |  54.9 | 16.30
Output  | 0          | 0          | 0          |   0.0 |  0.00
Modify  | 2.7151e-05 | 0.0036983  | 0.00789    |   2.9 |  0.14
Other   |            | 0.2691     |            |       | 10.49

Nlocal:        2776.45 ave        3941 max           0 min
Histogram: 8 4 4 0 4 12 8 2 26 36
Nghost:        3879.12 ave        5424 max         232 min
Histogram: 8 0 8 0 16 0 8 8 16 40
Neighs:        79213.2 ave      114801 max           0 min
Histogram: 8 4 4 0 10 6 8 8 22 34

Total # of neighbors = 8238176
Ave neighs/atom = 28.530381
Neighbor list builds = 0
Dangerous builds = 0
The dot product: -3.12209870064051e-11
Setting up cg style minimization ...
  Unit style    : metal
  Current step  : 5766
Per MPI rank memory allocation (min/avg/max) = 5.441 | 5.816 | 6.074 Mbytes
Step PotEng KinEng TotEng v_fx v_fy v_fz 
    5766   -1152448.8            0   -1152448.8    1.1272335   0.68667762   0.20276229 
    6000   -1152449.5            0   -1152449.5 1.3688396e-05 -3.1179545e-05 2.4786584e-05 
    6024   -1152449.5            0   -1152449.5 -1.7265927e-06 -2.6783764e-06 2.8965571e-05 
Loop time of 2.98252 on 104 procs for 258 steps with 288751 atoms

99.9% CPU use with 104 MPI tasks x 1 OpenMP threads

Minimization stats:
  Stopping criterion = energy tolerance
  Energy initial, next-to-last, final = 
     -1152448.83068005   -1152449.4503527   -1152449.4503527
  Force two-norm initial, final = 1.3354003 0.00013654923
  Force max component initial, final = 1.1272335 2.8965571e-05
  Final line search alpha, max atom move = 1.0000000 2.8965571e-05
  Iterations, force evaluations = 258 512

MPI task timing breakdown:
Section |  min time  |  avg time  |  max time  |%varavg| %total
---------------------------------------------------------------
Pair    | 0.79268    | 2.1598     | 2.7864     |  39.3 | 72.41
Neigh   | 3.0324e-05 | 0.0089034  | 0.012861   |   3.9 |  0.30
Comm    | 0.045063   | 0.48456    | 1.4616     |  58.1 | 16.25
Output  | 0.00010681 | 0.00010993 | 0.00026108 |   0.0 |  0.00
Modify  | 2.9345e-05 | 0.0027482  | 0.0071157  |   3.3 |  0.09
Other   |            | 0.3264     |            |       | 10.94

Nlocal:        2776.45 ave        3934 max           0 min
Histogram: 8 4 4 0 4 12 8 0 28 36
Nghost:        3879.12 ave        5424 max         232 min
Histogram: 8 0 8 0 16 0 8 8 16 40
Neighs:        79213.2 ave      114607 max           0 min
Histogram: 8 4 4 0 8 8 8 8 20 36

Total # of neighbors = 8238175
Ave neighs/atom = 28.530377
Neighbor list builds = 3
Dangerous builds = 0
OMP_NUM_THREADS environment is not set. Defaulting to 1 thread. (../comm.cpp:94)
  using 1 OpenMP thread(s) per MPI task
Reading data file ...
  orthogonal box = (-122.39241 -121.13707 -37.090501) to (122.39241 121.13707 37.090501)
  13 by 4 by 2 MPI processor grid
  reading atoms ...
  288751 atoms
  read_data CPU = 0.343 seconds
199981 atoms in group inner
88770 atoms in group outer
1 atoms in group carbon
Neighbor list info ...
  update every 1 steps, delay 0 steps, check yes
  max neighbors/atom: 2000, page size: 100000
  master list distance cutoff = 5.6
  ghost atom cutoff = 5.6
  binsize = 2.8, bins = 88 87 27
  1 neighbor lists, perpetual/occasional/extra = 1 0 0
  (1) pair eam/alloy, perpetual
      attributes: half, newton on
      pair build: half/bin/atomonly/newton
      stencil: half/bin/3d/newton
      bin: standard
Setting up cg style minimization ...
  Unit style    : metal
  Current step  : 0
Per MPI rank memory allocation (min/avg/max) = 5.441 | 5.816 | 6.074 Mbytes
Step v_fx v_fy v_fz PotEng KinEng TotEng 
       0    1.4705988   -1.1092614    2.4801924   -1152447.8            0   -1152447.8 
     154 -1.90882e-06 -1.66657e-06 -5.179453e-05   -1152449.5            0   -1152449.5 
Loop time of 1.79639 on 104 procs for 154 steps with 288751 atoms

99.9% CPU use with 104 MPI tasks x 1 OpenMP threads

Minimization stats:
  Stopping criterion = energy tolerance
  Energy initial, next-to-last, final = 
     -1152447.79004592  -1152449.45035269  -1152449.45035269
  Force two-norm initial, final = 10.116588 0.00019086929
  Force max component initial, final = 4.5240720 5.1794530e-05
  Final line search alpha, max atom move = 1.0000000 5.1794530e-05
  Iterations, force evaluations = 154 307

MPI task timing breakdown:
Section |  min time  |  avg time  |  max time  |%varavg| %total
---------------------------------------------------------------
Pair    | 0.47951    | 1.2944     | 1.6906     |  30.4 | 72.06
Neigh   | 3.2283e-05 | 0.0088954  | 0.012898   |   3.9 |  0.50
Comm    | 0.027956   | 0.29023    | 0.8636     |  44.9 | 16.16
Output  | 0          | 0          | 0          |   0.0 |  0.00
Modify  | 1.8613e-05 | 0.0016472  | 0.0042719  |   2.5 |  0.09
Other   |            | 0.2012     |            |       | 11.20

Nlocal:        2776.45 ave        3959 max           0 min
Histogram: 8 4 4 0 4 12 8 2 28 34
Nghost:        3879.01 ave        5424 max         232 min
Histogram: 8 0 8 0 16 0 8 8 16 40
Neighs:        79213.5 ave      115404 max           0 min
Histogram: 8 4 4 0 10 6 8 8 24 32

Total # of neighbors = 8238207
Ave neighs/atom = 28.530488
Neighbor list builds = 3
Dangerous builds = 1
Setting atom values ...
  1 settings made for x
  1 settings made for y
  1 settings made for z
Setting up cg style minimization ...
  Unit style    : metal
  Current step  : 154
Per MPI rank memory allocation (min/avg/max) = 5.441 | 5.816 | 6.074 Mbytes
Step PotEng KinEng TotEng v_fx v_fy v_fz 
     154   -1152449.4            0   -1152449.4   0.01959814  0.020528327  -0.02140301 
     296   -1152449.4            0   -1152449.4 5.2363425e-07 4.2593917e-07 -1.4360558e-05 
Loop time of 1.64517 on 104 procs for 142 steps with 288751 atoms

99.9% CPU use with 104 MPI tasks x 1 OpenMP threads

Minimization stats:
  Stopping criterion = energy tolerance
  Energy initial, next-to-last, final = 
     -1152449.44748353  -1152449.44946949  -1152449.44946949
  Force two-norm initial, final = 0.21222099 4.2336535e-05
  Force max component initial, final = 0.088281539 1.4360558e-05
  Final line search alpha, max atom move = 1.0000000 1.4360558e-05
  Iterations, force evaluations = 142 284

MPI task timing breakdown:
Section |  min time  |  avg time  |  max time  |%varavg| %total
---------------------------------------------------------------
Pair    | 0.43064    | 1.1907     | 1.5442     |  29.5 | 72.37
Neigh   | 0          | 0          | 0          |   0.0 |  0.00
Comm    | 0.024656   | 0.26629    | 0.80857    |  43.9 | 16.19
Output  | 0          | 0          | 0          |   0.0 |  0.00
Modify  | 1.8099e-05 | 0.0023406  | 0.0050168  |   2.3 |  0.14
Other   |            | 0.1859     |            |       | 11.30

Nlocal:        2776.45 ave        3961 max           0 min
Histogram: 8 4 4 0 6 10 8 2 28 34
Nghost:        3879.01 ave        5424 max         232 min
Histogram: 8 0 8 0 16 0 8 8 16 40
Neighs:        79213.4 ave      115460 max           0 min
Histogram: 8 4 4 0 10 6 8 8 24 32

Total # of neighbors = 8238198
Ave neighs/atom = 28.530457
Neighbor list builds = 0
Dangerous builds = 0
Setting atom values ...
  1 settings made for x
  1 settings made for y
  1 settings made for z
Setting up cg style minimization ...
  Unit style    : metal
  Current step  : 296
Per MPI rank memory allocation (min/avg/max) = 5.441 | 5.816 | 6.074 Mbytes
Step PotEng KinEng TotEng v_fx v_fy v_fz 
     296   -1152449.4            0   -1152449.4  0.022245506  0.028044108 -0.019368107 
     429   -1152449.4            0   -1152449.4 -7.5639308e-07 -9.5286546e-07 8.307012e-06 
Loop time of 1.54489 on 104 procs for 133 steps with 288751 atoms

99.9% CPU use with 104 MPI tasks x 1 OpenMP threads

Minimization stats:
  Stopping criterion = energy tolerance
  Energy initial, next-to-last, final = 
      -1152449.4454674  -1152449.44713936  -1152449.44713936
  Force two-norm initial, final = 0.19487702 6.6270470e-05
  Force max component initial, final = 0.079697758 8.3070120e-06
  Final line search alpha, max atom move = 1.0000000 8.3070120e-06
  Iterations, force evaluations = 133 266

MPI task timing breakdown:
Section |  min time  |  avg time  |  max time  |%varavg| %total
---------------------------------------------------------------
Pair    | 0.40398    | 1.119      | 1.4582     |  28.6 | 72.44
Neigh   | 0          | 0          | 0          |   0.0 |  0.00
Comm    | 0.022665   | 0.25355    | 0.76106    |  42.3 | 16.41
Output  | 0          | 0          | 0          |   0.0 |  0.00
Modify  | 1.6796e-05 | 0.0021941  | 0.0047775  |   2.2 |  0.14
Other   |            | 0.1701     |            |       | 11.01

Nlocal:        2776.45 ave        3961 max           0 min
Histogram: 8 4 4 0 6 10 8 2 28 34
Nghost:        3879.01 ave        5424 max         232 min
Histogram: 8 0 8 0 16 0 8 8 16 40
Neighs:        79213.5 ave      115460 max           0 min
Histogram: 8 4 4 0 10 6 8 8 24 32

Total # of neighbors = 8238201
Ave neighs/atom = 28.530467
Neighbor list builds = 0
Dangerous builds = 0
The dot product: -4.25901565051479e-09
Setting atom values ...
  1 settings made for x
  1 settings made for y
  1 settings made for z
Setting up cg style minimization ...
  Unit style    : metal
  Current step  : 429
Per MPI rank memory allocation (min/avg/max) = 5.441 | 5.816 | 6.074 Mbytes
Step PotEng KinEng TotEng v_fx v_fy v_fz 
     429   -1152449.4            0   -1152449.4  0.023303262  0.034347293  -0.01868864 
     536   -1152449.4            0   -1152449.4 1.7381766e-06 2.5292231e-06 1.1786279e-05 
Loop time of 1.24599 on 104 procs for 107 steps with 288751 atoms

99.9% CPU use with 104 MPI tasks x 1 OpenMP threads

Minimization stats:
  Stopping criterion = energy tolerance
  Energy initial, next-to-last, final = 
      -1152449.4416889  -1152449.44333496  -1152449.44333496
  Force two-norm initial, final = 0.19312177 0.00023150224
  Force max component initial, final = 0.077860358 4.2288019e-05
  Final line search alpha, max atom move = 1.0000000 4.2288019e-05
  Iterations, force evaluations = 107 214

MPI task timing breakdown:
Section |  min time  |  avg time  |  max time  |%varavg| %total
---------------------------------------------------------------
Pair    | 0.32652    | 0.89876    | 1.1633     |  25.5 | 72.13
Neigh   | 0          | 0          | 0          |   0.0 |  0.00
Comm    | 0.020539   | 0.20139    | 0.62144    |  38.1 | 16.16
Output  | 0          | 0          | 0          |   0.0 |  0.00
Modify  | 1.3495e-05 | 0.0017655  | 0.0037719  |   2.0 |  0.14
Other   |            | 0.1441     |            |       | 11.56

Nlocal:        2776.45 ave        3961 max           0 min
Histogram: 8 4 4 0 6 10 8 2 28 34
Nghost:        3879.01 ave        5424 max         232 min
Histogram: 8 0 8 0 16 0 8 8 16 40
Neighs:        79213.5 ave      115450 max           0 min
Histogram: 8 4 4 0 10 6 8 8 24 32

Total # of neighbors = 8238203
Ave neighs/atom = 28.530474
Neighbor list builds = 0
Dangerous builds = 0
The dot product: 1.2136701999135e-08
Setting atom values ...
  1 settings made for x
  1 settings made for y
  1 settings made for z
[...]
Histogram: 8 0 8 0 16 0 8 8 16 40
Neighs:        79213.4 ave      115392 max           0 min
Histogram: 8 4 4 0 10 6 8 8 24 32

Total # of neighbors = 8238191
Ave neighs/atom = 28.530433
Neighbor list builds = 0
Dangerous builds = 0
The dot product: 5.47541768090805e-09
Setting atom values ...
  1 settings made for x
  1 settings made for y
  1 settings made for z
Setting up cg style minimization ...
  Unit style    : metal
  Current step  : 27593
Per MPI rank memory allocation (min/avg/max) = 5.441 | 5.816 | 6.074 Mbytes
Step PotEng KinEng TotEng v_fx v_fy v_fz 
   27593   -1152449.3            0   -1152449.3 -0.018443575  -0.02157252 -0.026438376 
   27740   -1152449.3            0   -1152449.3 -1.7386831e-05 -1.2263308e-05 -2.4928206e-05 
Loop time of 1.70918 on 104 procs for 147 steps with 288751 atoms

99.9% CPU use with 104 MPI tasks x 1 OpenMP threads

Minimization stats:
  Stopping criterion = energy tolerance
  Energy initial, next-to-last, final = 
     -1152449.32140415  -1152449.32295354  -1152449.32295354
  Force two-norm initial, final = 0.16669417 0.00022914952
  Force max component initial, final = 0.082365026 2.4928206e-05
  Final line search alpha, max atom move = 1.0000000 2.4928206e-05
  Iterations, force evaluations = 147 294

MPI task timing breakdown:
Section |  min time  |  avg time  |  max time  |%varavg| %total
---------------------------------------------------------------
Pair    | 0.44651    | 1.2319     | 1.6202     |  30.1 | 72.07
Neigh   | 0          | 0          | 0          |   0.0 |  0.00
Comm    | 0.026169   | 0.28351    | 0.83538    |  43.0 | 16.59
Output  | 0          | 0          | 0          |   0.0 |  0.00
Modify  | 1.781e-05  | 0.0024201  | 0.0051777  |   2.3 |  0.14
Other   |            | 0.1914     |            |       | 11.20

Nlocal:        2776.45 ave        3961 max           0 min
Histogram: 8 4 4 0 6 10 8 4 26 34
Nghost:        3879.14 ave        5424 max         232 min
Histogram: 8 0 8 0 16 0 8 8 16 40
Neighs:        79213.4 ave      115392 max           0 min
Histogram: 8 4 4 0 10 6 8 8 24 32

Total # of neighbors = 8238192
Ave neighs/atom = 28.530436
Neighbor list builds = 0
Dangerous builds = 0
The dot product: -2.99886311177213e-07
Setting atom values ...
  1 settings made for x
  1 settings made for y
  1 settings made for z
Setting up cg style minimization ...
  Unit style    : metal
  Current step  : 27740
Per MPI rank memory allocation (min/avg/max) = 5.441 | 5.816 | 6.074 Mbytes
Step PotEng KinEng TotEng v_fx v_fy v_fz 
   27740   -1152449.3            0   -1152449.3 -0.016537252 -0.017780744 -0.023512408 
   27979   -1152449.3            0   -1152449.3 -1.2930568e-06 -2.5623404e-07 -1.8454201e-06 
Loop time of 2.75586 on 104 procs for 239 steps with 288751 atoms

99.9% CPU use with 104 MPI tasks x 1 OpenMP threads

Minimization stats:
  Stopping criterion = energy tolerance
  Energy initial, next-to-last, final = 
     -1152449.30313518  -1152449.30456027  -1152449.30456027
  Force two-norm initial, final = 0.16428422 1.3851666e-05
  Force max component initial, final = 0.083909154 1.8454201e-06
  Final line search alpha, max atom move = 1.0000000 1.8454201e-06
  Iterations, force evaluations = 239 478

MPI task timing breakdown:
Section |  min time  |  avg time  |  max time  |%varavg| %total
---------------------------------------------------------------
Pair    | 0.72239    | 2.0004     | 2.6101     |  38.4 | 72.59
Neigh   | 0          | 0          | 0          |   0.0 |  0.00
Comm    | 0.042081   | 0.45573    | 1.3589     |  55.7 | 16.54
Output  | 0          | 0          | 0          |   0.0 |  0.00
Modify  | 2.8428e-05 | 0.0039301  | 0.0084149  |   3.0 |  0.14
Other   |            | 0.2958     |            |       | 10.73

Nlocal:        2776.45 ave        3961 max           0 min
Histogram: 8 4 4 0 6 10 8 4 26 34
Nghost:        3879.11 ave        5424 max         232 min
Histogram: 8 0 8 0 16 0 8 8 16 40
Neighs:        79213.4 ave      115392 max           0 min
Histogram: 8 4 4 0 10 6 8 8 24 32

Total # of neighbors = 8238193
Ave neighs/atom = 28.530440
Neighbor list builds = 0
Dangerous builds = 0
The dot product: -6.42078833582789e-09
Setting atom values ...
  1 settings made for x
  1 settings made for y
  1 settings made for z
Setting up cg style minimization ...
  Unit style    : metal
  Current step  : 27979
Per MPI rank memory allocation (min/avg/max) = 5.441 | 5.816 | 6.074 Mbytes
Step PotEng KinEng TotEng v_fx v_fy v_fz 
   27979   -1152449.3            0   -1152449.3 -0.016111813 -0.019580854 -0.022816358 
   28000   -1152449.3            0   -1152449.3 6.3129915e-05 -0.00056061618 9.4590425e-05 
   28176   -1152449.3            0   -1152449.3 -4.3464211e-06 -1.3066975e-05 -6.0916811e-06 
Loop time of 2.3014 on 104 procs for 197 steps with 288751 atoms

99.9% CPU use with 104 MPI tasks x 1 OpenMP threads

Minimization stats:
  Stopping criterion = linesearch alpha is zero
  Energy initial, next-to-last, final = 
     -1152449.28347015  -1152449.28484501  -1152449.28484501
  Force two-norm initial, final = 0.16423417 8.7294532e-05
  Force max component initial, final = 0.084125348 1.3066975e-05
  Final line search alpha, max atom move = 0.5 6.5334876e-06
  Iterations, force evaluations = 197 395

MPI task timing breakdown:
Section |  min time  |  avg time  |  max time  |%varavg| %total
---------------------------------------------------------------
Pair    | 0.59781    | 1.6542     | 2.1752     |  34.8 | 71.88
Neigh   | 0          | 0          | 0          |   0.0 |  0.00
Comm    | 0.03444    | 0.38139    | 1.1293     |  50.0 | 16.57
Output  | 0.00010663 | 0.00010931 | 0.00020864 |   0.0 |  0.00
Modify  | 2.3912e-05 | 0.0032525  | 0.006952   |   2.7 |  0.14
Other   |            | 0.2624     |            |       | 11.40

Nlocal:        2776.45 ave        3961 max           0 min
Histogram: 8 4 4 0 6 10 8 4 26 34
Nghost:        3879.12 ave        5424 max         232 min
Histogram: 8 0 8 0 16 0 8 8 16 40
Neighs:        79213.4 ave      115392 max           0 min
Histogram: 8 4 4 0 10 6 8 8 24 32

Total # of neighbors = 8238195
Ave neighs/atom = 28.530447
Neighbor list builds = 0
Dangerous builds = 0
The dot product: -3.89988830208212e-08
Setting atom values ...
  1 settings made for x
  1 settings made for y
  1 settings made for z
Setting up cg style minimization ...
  Unit style    : metal
  Current step  : 28176
Per MPI rank memory allocation (min/avg/max) = 5.441 | 5.816 | 6.074 Mbytes
Step PotEng KinEng TotEng v_fx v_fy v_fz 
   28176   -1152449.3            0   -1152449.3 -0.015272546 -0.020259214 -0.021567094 
   28358   -1152449.3            0   -1152449.3 5.7160118e-07 6.3735881e-06 7.5513221e-07 
Loop time of 2.10595 on 104 procs for 182 steps with 288751 atoms

99.9% CPU use with 104 MPI tasks x 1 OpenMP threads

Minimization stats:
  Stopping criterion = energy tolerance
  Energy initial, next-to-last, final = 
     -1152449.26238413  -1152449.26375481  -1152449.26375481
  Force two-norm initial, final = 0.16440607 0.00012821616
  Force max component initial, final = 0.084204866 6.3735881e-06
  Final line search alpha, max atom move = 1.0000000 6.3735881e-06
  Iterations, force evaluations = 182 364

MPI task timing breakdown:
Section |  min time  |  avg time  |  max time  |%varavg| %total
---------------------------------------------------------------
Pair    | 0.55163    | 1.523      | 1.9847     |  33.4 | 72.32
Neigh   | 0          | 0          | 0          |   0.0 |  0.00
Comm    | 0.032472   | 0.34815    | 1.0312     |  48.3 | 16.53
Output  | 0          | 0          | 0          |   0.0 |  0.00
Modify  | 2.1524e-05 | 0.0029905  | 0.0064123  |   2.6 |  0.14
Other   |            | 0.2318     |            |       | 11.01

Nlocal:        2776.45 ave        3962 max           0 min
Histogram: 8 4 4 0 6 10 8 4 26 34
Nghost:        3879.12 ave        5424 max         232 min
Histogram: 8 0 8 0 16 0 8 8 16 40
Neighs:        79213.4 ave      115421 max           0 min
Histogram: 8 4 4 0 10 6 8 8 24 32

Total # of neighbors = 8238195
Ave neighs/atom = 28.530447
Neighbor list builds = 0
Dangerous builds = 0
The dot product: 1.1501093825987e-08
Setting atom values ...
  1 settings made for x
  1 settings made for y
  1 settings made for z
Setting up cg style minimization ...
  Unit style    : metal
  Current step  : 28358
Per MPI rank memory allocation (min/avg/max) = 5.441 | 5.816 | 6.074 Mbytes
Step PotEng KinEng TotEng v_fx v_fy v_fz 
   28358   -1152449.2            0   -1152449.2 -0.014317696 -0.020577301 -0.020165357 
   28541   -1152449.2            0   -1152449.2 9.9014073e-06 -2.8898194e-06 1.4118782e-05 
Loop time of 2.12327 on 104 procs for 183 steps with 288751 atoms

99.9% CPU use with 104 MPI tasks x 1 OpenMP threads

Minimization stats:
  Stopping criterion = energy tolerance
  Energy initial, next-to-last, final = 
     -1152449.23987674  -1152449.24125391  -1152449.24125391
  Force two-norm initial, final = 0.16487376 0.00012899573
  Force max component initial, final = 0.084208721 1.5559298e-05
  Final line search alpha, max atom move = 1.0000000 1.5559298e-05
  Iterations, force evaluations = 183 366

MPI task timing breakdown:
Section |  min time  |  avg time  |  max time  |%varavg| %total
---------------------------------------------------------------
Pair    | 0.55448    | 1.5348     | 2.0115     |  33.6 | 72.29
Neigh   | 0          | 0          | 0          |   0.0 |  0.00
Comm    | 0.032122   | 0.35482    | 1.041      |  48.2 | 16.71
Output  | 0          | 0          | 0          |   0.0 |  0.00
Modify  | 2.1836e-05 | 0.0030089  | 0.0064624  |   2.6 |  0.14
Other   |            | 0.2306     |            |       | 10.86

Nlocal:        2776.45 ave        3961 max           0 min
Histogram: 8 4 4 0 6 10 8 4 26 34
Nghost:        3879.12 ave        5424 max         232 min
Histogram: 8 0 8 0 16 0 8 8 16 40
Neighs:        79213.4 ave      115398 max           0 min
Histogram: 8 4 4 0 10 6 8 8 24 32

Total # of neighbors = 8238196
Ave neighs/atom = 28.530450
Neighbor list builds = 0
Dangerous builds = 0
The dot product: 2.34618303146555e-08
Setting atom values ...
  1 settings made for x
  1 settings made for y
  1 settings made for z
Setting up cg style minimization ...
  Unit style    : metal
  Current step  : 28541
Per MPI rank memory allocation (min/avg/max) = 5.441 | 5.816 | 6.074 Mbytes
Step PotEng KinEng TotEng v_fx v_fy v_fz 
   28541   -1152449.2            0   -1152449.2 -0.013386723 -0.020723617 -0.018803421 
   28787   -1152449.2            0   -1152449.2 -5.0833839e-07 1.5079572e-06 -7.3898914e-07 
Loop time of 2.84244 on 104 procs for 246 steps with 288751 atoms

99.9% CPU use with 104 MPI tasks x 1 OpenMP threads

Minimization stats:
  Stopping criterion = energy tolerance
  Energy initial, next-to-last, final = 
     -1152449.21592871  -1152449.21732591  -1152449.21732591
  Force two-norm initial, final = 0.16565333 1.1082706e-05
  Force max component initial, final = 0.084174776 1.6131220e-06
  Final line search alpha, max atom move = 1.0000000 1.6131220e-06
  Iterations, force evaluations = 246 492

MPI task timing breakdown:
Section |  min time  |  avg time  |  max time  |%varavg| %total
---------------------------------------------------------------
Pair    | 0.74338    | 2.0577     | 2.6856     |  38.9 | 72.39
Neigh   | 0          | 0          | 0          |   0.0 |  0.00
Comm    | 0.044835   | 0.46913    | 1.3957     |  56.3 | 16.50
Output  | 0          | 0          | 0          |   0.0 |  0.00
Modify  | 3.0332e-05 | 0.0040407  | 0.0086901  |   3.0 |  0.14
Other   |            | 0.3116     |            |       | 10.96

Nlocal:        2776.45 ave        3961 max           0 min
Histogram: 8 4 4 0 6 10 8 6 24 34
Nghost:        3879.12 ave        5424 max         232 min
Histogram: 8 0 8 0 16 0 8 8 16 40
Neighs:        79213.4 ave      115407 max           0 min
Histogram: 8 4 4 0 10 6 8 8 24 32

Total # of neighbors = 8238196
Ave neighs/atom = 28.530450
Neighbor list builds = 0
Dangerous builds = 0
The dot product: 4.99011603639456e-10
Setting atom values ...
  1 settings made for x
  1 settings made for y
  1 settings made for z
Setting up cg style minimization ...
  Unit style    : metal
  Current step  : 28787
Per MPI rank memory allocation (min/avg/max) = 5.441 | 5.816 | 6.074 Mbytes
Step PotEng KinEng TotEng v_fx v_fy v_fz 
   28787   -1152449.2            0   -1152449.2 -0.012514403 -0.020526795 -0.017527338 
   28969   -1152449.2            0   -1152449.2 1.8908402e-06  2.36059e-05 2.4092718e-06 
Loop time of 2.14074 on 104 procs for 182 steps with 288751 atoms

99.9% CPU use with 104 MPI tasks x 1 OpenMP threads

Minimization stats:
  Stopping criterion = energy tolerance
  Energy initial, next-to-last, final = 
     -1152449.19055009  -1152449.19198504  -1152449.19198504
  Force two-norm initial, final = 0.1666539 0.00015180966
  Force max component initial, final = 0.084166586 2.3605900e-05
  Final line search alpha, max atom move = 1.0000000 2.3605900e-05
  Iterations, force evaluations = 182 364

MPI task timing breakdown:
Section |  min time  |  avg time  |  max time  |%varavg| %total
---------------------------------------------------------------
Pair    | 0.55243    | 1.5273     | 2.0028     |  33.5 | 71.34
Neigh   | 0          | 0          | 0          |   0.0 |  0.00
Comm    | 0.031873   | 0.35794    | 1.0409     |  47.4 | 16.72
Output  | 0          | 0          | 0          |   0.0 |  0.00
Modify  | 2.1679e-05 | 0.0029936  | 0.0064337  |   2.6 |  0.14
Other   |            | 0.2525     |            |       | 11.80

Nlocal:        2776.45 ave        3961 max           0 min
Histogram: 8 4 4 0 6 10 8 6 24 34
Nghost:        3879.14 ave        5424 max         232 min
Histogram: 8 0 8 0 16 0 8 8 16 40
Neighs:        79213.5 ave      115407 max           0 min
Histogram: 8 4 4 0 10 6 8 8 24 32

Total # of neighbors = 8238201
Ave neighs/atom = 28.530467
Neighbor list builds = 0
Dangerous builds = 0
The dot product: 5.63798764996667e-08
Setting atom values ...
  1 settings made for x
  1 settings made for y
  1 settings made for z
Setting up cg style minimization ...
  Unit style    : metal
  Current step  : 28969
Per MPI rank memory allocation (min/avg/max) = 5.441 | 5.816 | 6.074 Mbytes
Step PotEng KinEng TotEng v_fx v_fy v_fz 
   28969   -1152449.2            0   -1152449.2 -0.011623762  -0.01976405 -0.016222134 
   29000   -1152449.2            0   -1152449.2 0.00013303283 -3.6913358e-05 0.00018901436 
   29193   -1152449.2            0   -1152449.2 -3.0534543e-06 1.9408413e-06 -4.3523167e-06 
Loop time of 2.58402 on 104 procs for 224 steps with 288751 atoms

99.9% CPU use with 104 MPI tasks x 1 OpenMP threads

Minimization stats:
  Stopping criterion = energy tolerance
  Energy initial, next-to-last, final = 
     -1152449.16380628  -1152449.16529235  -1152449.16529235
  Force two-norm initial, final = 0.16754194 3.5062438e-05
  Force max component initial, final = 0.084106394 5.9657736e-06
  Final line search alpha, max atom move = 1.0000000 5.9657736e-06
  Iterations, force evaluations = 224 448

MPI task timing breakdown:
Section |  min time  |  avg time  |  max time  |%varavg| %total
---------------------------------------------------------------
Pair    | 0.67651    | 1.8735     | 2.4404     |  37.1 | 72.50
Neigh   | 0          | 0          | 0          |   0.0 |  0.00
Comm    | 0.045733   | 0.4273     | 1.281      |  53.7 | 16.54
Output  | 0.00010433 | 0.00010975 | 0.000206   |   0.0 |  0.00
Modify  | 2.6907e-05 | 0.0036897  | 0.0079093  |   2.9 |  0.14
Other   |            | 0.2794     |            |       | 10.81

Nlocal:        2776.45 ave        3961 max           0 min
Histogram: 8 4 4 0 6 10 8 6 24 34
Nghost:        3879.12 ave        5424 max         232 min
Histogram: 8 0 8 0 16 0 8 8 16 40
Neighs:        79213.5 ave      115414 max           0 min
Histogram: 8 4 4 0 10 6 8 8 24 32

Total # of neighbors = 8238204
Ave neighs/atom = 28.530478
Neighbor list builds = 0
Dangerous builds = 0
The dot product: -1.24397634576108e-08
Setting atom values ...
  1 settings made for x
  1 settings made for y
  1 settings made for z
Setting up cg style minimization ...
  Unit style    : metal
  Current step  : 29193
Per MPI rank memory allocation (min/avg/max) = 5.441 | 5.816 | 6.074 Mbytes
Step PotEng KinEng TotEng v_fx v_fy v_fz 
   29193   -1152449.1            0   -1152449.1 -0.011225794 -0.017495698 -0.015628219 
   29384   -1152449.1            0   -1152449.1 3.4166776e-06 5.0538793e-06 4.7604319e-06 
Loop time of 2.24397 on 104 procs for 191 steps with 288751 atoms

99.9% CPU use with 104 MPI tasks x 1 OpenMP threads

Minimization stats:
  Stopping criterion = energy tolerance
  Energy initial, next-to-last, final = 
     -1152449.13575668  -1152449.13726059  -1152449.13726059
  Force two-norm initial, final = 0.16791122 0.00011373424
  Force max component initial, final = 0.084079541 5.9467864e-06
  Final line search alpha, max atom move = 1.0000000 5.9467864e-06
  Iterations, force evaluations = 191 382

MPI task timing breakdown:
Section |  min time  |  avg time  |  max time  |%varavg| %total
---------------------------------------------------------------
Pair    | 0.58013    | 1.5998     | 2.1082     |  34.3 | 71.29
Neigh   | 0          | 0          | 0          |   0.0 |  0.00
Comm    | 0.035106   | 0.36966    | 1.0907     |  48.8 | 16.47
Output  | 0          | 0          | 0          |   0.0 |  0.00
Modify  | 2.3527e-05 | 0.0031469  | 0.0067433  |   2.7 |  0.14
Other   |            | 0.2714     |            |       | 12.09

Nlocal:        2776.45 ave        3961 max           0 min
Histogram: 8 4 4 0 6 10 8 6 24 34
Nghost:        3879.15 ave        5425 max         232 min
Histogram: 8 0 8 0 16 0 8 8 16 40
Neighs:        79213.5 ave      115414 max           0 min
Histogram: 8 4 4 0 10 6 8 8 24 32

Total # of neighbors = 8238204
Ave neighs/atom = 28.530478
Neighbor list builds = 0
Dangerous builds = 0
The dot product: 3.56376069687664e-08
Setting atom values ...
  1 settings made for x
  1 settings made for y
  1 settings made for z
Setting up cg style minimization ...
  Unit style    : metal
  Current step  : 29384
Per MPI rank memory allocation (min/avg/max) = 5.441 | 5.816 | 6.074 Mbytes
Step PotEng KinEng TotEng v_fx v_fy v_fz 
   29384   -1152449.1            0   -1152449.1 -0.012268938 -0.011314294 -0.017133643 
   29603   -1152449.1            0   -1152449.1 1.6136195e-06 -3.3323845e-06 2.329036e-06 
Loop time of 2.52594 on 104 procs for 219 steps with 288751 atoms

99.9% CPU use with 104 MPI tasks x 1 OpenMP threads

Minimization stats:
  Stopping criterion = energy tolerance
  Energy initial, next-to-last, final = 
     -1152449.10624791  -1152449.10783086  -1152449.10783086
  Force two-norm initial, final = 0.1676274 6.2325717e-05
  Force max component initial, final = 0.084042334 1.2266069e-05
  Final line search alpha, max atom move = 1.0000000 1.2266069e-05
  Iterations, force evaluations = 219 438

MPI task timing breakdown:
Section |  min time  |  avg time  |  max time  |%varavg| %total
---------------------------------------------------------------
Pair    | 0.66142    | 1.8312     | 2.3843     |  36.6 | 72.50
Neigh   | 0          | 0          | 0          |   0.0 |  0.00
Comm    | 0.037638   | 0.41762    | 1.2399     |  53.2 | 16.53
Output  | 0          | 0          | 0          |   0.0 |  0.00
Modify  | 2.5908e-05 | 0.0036025  | 0.0077278  |   2.8 |  0.14
Other   |            | 0.2735     |            |       | 10.83

Nlocal:        2776.45 ave        3961 max           0 min
Histogram: 8 4 4 0 6 10 8 6 24 34
Nghost:        3879.15 ave        5425 max         232 min
Histogram: 8 0 8 0 16 0 8 8 16 40
Neighs:        79213.5 ave      115414 max           0 min
Histogram: 8 4 4 0 10 6 8 8 24 32

Total # of neighbors = 8238206
Ave neighs/atom = 28.530485
Neighbor list builds = 0
Dangerous builds = 0
The dot product: -3.30278882469329e-09
