LAMMPS (29 Oct 2020)
OMP_NUM_THREADS environment is not set. Defaulting to 1 thread. (../comm.cpp:94)
  using 1 OpenMP thread(s) per MPI task
OMP_NUM_THREADS environment is not set. Defaulting to 1 thread. (../comm.cpp:94)
  using 1 OpenMP thread(s) per MPI task
Reading data file ...
  orthogonal box = (-122.39241 -121.13707 -37.090501) to (122.39241 121.13707 37.090501)
  13 by 4 by 2 MPI processor grid
  reading atoms ...
  288751 atoms
  read_data CPU = 0.393 seconds
199981 atoms in group inner
88770 atoms in group outer
1 atoms in group carbon
Neighbor list info ...
  update every 1 steps, delay 0 steps, check yes
  max neighbors/atom: 2000, page size: 100000
  master list distance cutoff = 5.6
  ghost atom cutoff = 5.6
  binsize = 2.8, bins = 88 87 27
  1 neighbor lists, perpetual/occasional/extra = 1 0 0
  (1) pair eam/alloy, perpetual
      attributes: half, newton on
      pair build: half/bin/atomonly/newton
      stencil: half/bin/3d/newton
      bin: standard
Setting up cg style minimization ...
  Unit style    : metal
  Current step  : 0
Per MPI rank memory allocation (min/avg/max) = 5.441 | 5.816 | 6.074 Mbytes
Step v_fx v_fy v_fz PotEng KinEng TotEng 
       0    26.036995    15.464255   -51.216337   -1152433.1            0   -1152433.1 
     248 9.9669318e-07 1.4643103e-06 3.5656434e-06   -1152449.5            0   -1152449.5 
Loop time of 2.9331 on 104 procs for 248 steps with 288751 atoms

99.8% CPU use with 104 MPI tasks x 1 OpenMP threads

Minimization stats:
  Stopping criterion = energy tolerance
  Energy initial, next-to-last, final = 
     -1152433.05000542  -1152449.45035262  -1152449.45035262
  Force two-norm initial, final = 89.063679 2.0627621e-05
  Force max component initial, final = 58.334502 3.5874772e-06
  Final line search alpha, max atom move = 1.0000000 3.5874772e-06
  Iterations, force evaluations = 248 487

MPI task timing breakdown:
Section |  min time  |  avg time  |  max time  |%varavg| %total
---------------------------------------------------------------
Pair    | 0.76466    | 2.0589     | 2.687      |  38.2 | 70.19
Neigh   | 5.1652e-05 | 0.01465    | 0.021284   |   5.0 |  0.50
Comm    | 0.046574   | 0.47403    | 1.3937     |  55.7 | 16.16
Output  | 0          | 0          | 0          |   0.0 |  0.00
Modify  | 2.5425e-05 | 0.0026386  | 0.0067359  |   3.2 |  0.09
Other   |            | 0.3829     |            |       | 13.05

Nlocal:        2776.45 ave        3957 max           0 min
Histogram: 8 4 4 0 4 12 8 2 28 34
Nghost:        3879.03 ave        5424 max         232 min
Histogram: 8 0 8 0 16 0 8 8 16 40
Neighs:        79213.5 ave      115346 max           0 min
Histogram: 8 4 4 0 10 6 8 8 24 32

Total # of neighbors = 8238207
Ave neighs/atom = 28.530488
Neighbor list builds = 5
Dangerous builds = 0
Setting atom values ...
  1 settings made for x
  1 settings made for y
  1 settings made for z
Setting up cg style minimization ...
  Unit style    : metal
  Current step  : 248
Per MPI rank memory allocation (min/avg/max) = 5.441 | 5.816 | 6.074 Mbytes
Step PotEng KinEng TotEng v_fx v_fy v_fz 
     248   -1152449.4            0   -1152449.4 0.0074142042 -0.015065163 -0.024554982 
     400   -1152449.5            0   -1152449.5 1.4966919e-05 -8.7490589e-06 -3.103726e-05 
Loop time of 1.82223 on 104 procs for 152 steps with 288751 atoms

99.9% CPU use with 104 MPI tasks x 1 OpenMP threads

Minimization stats:
  Stopping criterion = energy tolerance
  Energy initial, next-to-last, final = 
     -1152449.44965288   -1152449.4500793   -1152449.4500793
  Force two-norm initial, final = 0.094088617 0.00020723159
  Force max component initial, final = 0.043957168 3.8529602e-05
  Final line search alpha, max atom move = 1.0000000 3.8529602e-05
  Iterations, force evaluations = 152 304

MPI task timing breakdown:
Section |  min time  |  avg time  |  max time  |%varavg| %total
---------------------------------------------------------------
Pair    | 0.46148    | 1.2917     | 1.6851     |  30.8 | 70.89
Neigh   | 0          | 0          | 0          |   0.0 |  0.00
Comm    | 0.035753   | 0.29328    | 0.87733    |  45.0 | 16.09
Output  | 0          | 0          | 0          |   0.0 |  0.00
Modify  | 1.8571e-05 | 0.0025194  | 0.0053676  |   2.4 |  0.14
Other   |            | 0.2347     |            |       | 12.88

Nlocal:        2776.45 ave        3956 max           0 min
Histogram: 8 4 4 0 4 12 8 0 30 34
Nghost:        3879.03 ave        5424 max         232 min
Histogram: 8 0 8 0 16 0 8 8 16 40
Neighs:        79213.4 ave      115324 max           0 min
Histogram: 8 4 4 0 10 6 8 8 24 32

Total # of neighbors = 8238197
Ave neighs/atom = 28.530454
Neighbor list builds = 0
Dangerous builds = 0
Setting atom values ...
  1 settings made for x
  1 settings made for y
  1 settings made for z
Setting up cg style minimization ...
  Unit style    : metal
  Current step  : 400
Per MPI rank memory allocation (min/avg/max) = 5.441 | 5.816 | 6.074 Mbytes
Step PotEng KinEng TotEng v_fx v_fy v_fz 
     400   -1152449.4            0   -1152449.4 0.0084319649 -0.016981666 -0.038879833 
     585   -1152449.4            0   -1152449.4 -1.2616991e-05 6.6777122e-06 3.4267579e-05 
Loop time of 2.19348 on 104 procs for 185 steps with 288751 atoms

99.9% CPU use with 104 MPI tasks x 1 OpenMP threads

Minimization stats:
  Stopping criterion = energy tolerance
  Energy initial, next-to-last, final = 
     -1152449.44696363  -1152449.44825589  -1152449.44825589
  Force two-norm initial, final = 0.16104246 0.0001049919
  Force max component initial, final = 0.087296967 3.4267579e-05
  Final line search alpha, max atom move = 1.0000000 3.4267579e-05
  Iterations, force evaluations = 185 370

MPI task timing breakdown:
Section |  min time  |  avg time  |  max time  |%varavg| %total
---------------------------------------------------------------
Pair    | 0.55918    | 1.5598     | 2.0434     |  33.9 | 71.11
Neigh   | 0          | 0          | 0          |   0.0 |  0.00
Comm    | 0.034197   | 0.35695    | 1.0516     |  48.9 | 16.27
Output  | 0          | 0          | 0          |   0.0 |  0.00
Modify  | 2.2847e-05 | 0.0030631  | 0.0065386  |   2.6 |  0.14
Other   |            | 0.2736     |            |       | 12.47

Nlocal:        2776.45 ave        3956 max           0 min
Histogram: 8 4 4 0 4 12 8 0 30 34
Nghost:        3879.03 ave        5424 max         232 min
Histogram: 8 0 8 0 16 0 8 8 16 40
Neighs:        79213.4 ave      115324 max           0 min
Histogram: 8 4 4 0 10 6 8 8 24 32

Total # of neighbors = 8238196
Ave neighs/atom = 28.530450
Neighbor list builds = 0
Dangerous builds = 0
The dot product: -9.0419443878281e-08
Setting atom values ...
  1 settings made for x
  1 settings made for y
  1 settings made for z
Setting up cg style minimization ...
  Unit style    : metal
  Current step  : 585
Per MPI rank memory allocation (min/avg/max) = 5.441 | 5.816 | 6.074 Mbytes
Step PotEng KinEng TotEng v_fx v_fy v_fz 
     585   -1152449.4            0   -1152449.4 0.0058460274 -0.0095998264 -0.031254684 
     722   -1152449.4            0   -1152449.4 -5.6248376e-06 1.3364835e-05 3.7079424e-05 
Loop time of 1.63567 on 104 procs for 137 steps with 288751 atoms

99.9% CPU use with 104 MPI tasks x 1 OpenMP threads

Minimization stats:
  Stopping criterion = energy tolerance
  Energy initial, next-to-last, final = 
     -1152449.44358874  -1152449.44482283  -1152449.44482283
  Force two-norm initial, final = 0.15518691 0.0001543919
  Force max component initial, final = 0.092360834 3.7079424e-05
  Final line search alpha, max atom move = 1.0000000 3.7079424e-05
  Iterations, force evaluations = 137 274

MPI task timing breakdown:
Section |  min time  |  avg time  |  max time  |%varavg| %total
---------------------------------------------------------------
Pair    | 0.414      | 1.1605     | 1.5124     |  29.2 | 70.95
Neigh   | 0          | 0          | 0          |   0.0 |  0.00
Comm    | 0.025024   | 0.2624     | 0.78913    |  42.8 | 16.04
Output  | 0          | 0          | 0          |   0.0 |  0.00
Modify  | 1.594e-05  | 0.0022695  | 0.0048369  |   2.2 |  0.14
Other   |            | 0.2105     |            |       | 12.87

Nlocal:        2776.45 ave        3956 max           0 min
Histogram: 8 4 4 0 4 12 8 0 30 34
Nghost:        3879.03 ave        5424 max         232 min
Histogram: 8 0 8 0 16 0 8 8 16 40
Neighs:        79213.4 ave      115324 max           0 min
Histogram: 8 4 4 0 10 6 8 8 24 32

Total # of neighbors = 8238193
Ave neighs/atom = 28.530440
Neighbor list builds = 0
Dangerous builds = 0
The dot product: -9.01066795656989e-08
Setting atom values ...
  1 settings made for x
  1 settings made for y
  1 settings made for z
Setting up cg style minimization ...
  Unit style    : metal
  Current step  : 722
Per MPI rank memory allocation (min/avg/max) = 5.441 | 5.816 | 6.074 Mbytes
Step PotEng KinEng TotEng v_fx v_fy v_fz 
     722   -1152449.4            0   -1152449.4 0.0022956833 -0.0089720286 -0.024877107 
     892   -1152449.4            0   -1152449.4 7.1460539e-06 -8.0047586e-06 -3.7428396e-05 
Loop time of 2.0041 on 104 procs for 170 steps with 288751 atoms

99.9% CPU use with 104 MPI tasks x 1 OpenMP threads

Minimization stats:
  Stopping criterion = energy tolerance
  Energy initial, next-to-last, final = 
     -1152449.43869534  -1152449.43988082  -1152449.43988082
  Force two-norm initial, final = 0.15166646 0.00015564922
  Force max component initial, final = 0.096041295 3.7428396e-05
  Final line search alpha, max atom move = 1.0000000 3.7428396e-05
  Iterations, force evaluations = 170 340

MPI task timing breakdown:
Section |  min time  |  avg time  |  max time  |%varavg| %total
---------------------------------------------------------------
Pair    | 0.51177    | 1.428      | 1.8714     |  32.4 | 71.25
Neigh   | 0          | 0          | 0          |   0.0 |  0.00
Comm    | 0.030588   | 0.32531    | 0.96453    |  46.9 | 16.23
Output  | 0          | 0          | 0          |   0.0 |  0.00
Modify  | 1.981e-05  | 0.0028145  | 0.00604    |   2.5 |  0.14
Other   |            | 0.248      |            |       | 12.38

Nlocal:        2776.45 ave        3954 max           0 min
Histogram: 8 4 4 0 4 12 8 0 30 34
Nghost:        3879.03 ave        5424 max         232 min
Histogram: 8 0 8 0 16 0 8 8 16 40
Neighs:        79213.4 ave      115263 max           0 min
Histogram: 8 4 4 0 10 6 8 8 24 32

Total # of neighbors = 8238194
Ave neighs/atom = 28.530443
Neighbor list builds = 0
Dangerous builds = 0
The dot product: 7.16973613712498e-08
Setting atom values ...
  1 settings made for x
  1 settings made for y
  1 settings made for z
Setting up cg style minimization ...
  Unit style    : metal
  Current step  : 892
Per MPI rank memory allocation (min/avg/max) = 5.441 | 5.816 | 6.074 Mbytes
Step PotEng KinEng TotEng v_fx v_fy v_fz 
     892   -1152449.4            0   -1152449.4 -0.0028993638 -0.012808366 -0.019388882 
    1000   -1152449.4            0   -1152449.4 3.0431003e-06 -3.4492775e-05 -8.7881982e-05 
    1016   -1152449.4            0   -1152449.4 -4.2665332e-06 -1.4209476e-05 -1.805841e-05 
Loop time of 1.46033 on 104 procs for 124 steps with 288751 atoms

99.9% CPU use with 104 MPI tasks x 1 OpenMP threads

Minimization stats:
  Stopping criterion = energy tolerance
  Energy initial, next-to-last, final = 
     -1152449.43236596  -1152449.43353217  -1152449.43353217
  Force two-norm initial, final = 0.15009902 0.00014454937
  Force max component initial, final = 0.099042422 1.8058410e-05
  Final line search alpha, max atom move = 1.0000000 1.8058410e-05
  Iterations, force evaluations = 124 248

MPI task timing breakdown:
Section |  min time  |  avg time  |  max time  |%varavg| %total
---------------------------------------------------------------
Pair    | 0.37637    | 1.0494     | 1.3657     |  27.8 | 71.86
Neigh   | 0          | 0          | 0          |   0.0 |  0.00
Comm    | 0.028303   | 0.23592    | 0.70432    |  40.8 | 16.16
Output  | 0.00024032 | 0.00024668 | 0.00038042 |   0.0 |  0.02
Modify  | 1.5272e-05 | 0.0020561  | 0.0043557  |   2.1 |  0.14
Other   |            | 0.1727     |            |       | 11.83

Nlocal:        2776.45 ave        3954 max           0 min
Histogram: 8 4 4 0 4 12 8 0 30 34
Nghost:        3879.03 ave        5424 max         232 min
Histogram: 8 0 8 0 16 0 8 8 16 40
Neighs:        79213.4 ave      115262 max           0 min
Histogram: 8 4 4 0 10 6 8 8 24 32

Total # of neighbors = 8238194
Ave neighs/atom = 28.530443
Neighbor list builds = 0
Dangerous builds = 0
The dot product: 6.46905454522239e-08
Setting atom values ...
  1 settings made for x
  1 settings made for y
  1 settings made for z
Setting up cg style minimization ...
  Unit style    : metal
  Current step  : 1016
Per MPI rank memory allocation (min/avg/max) = 5.441 | 5.816 | 6.074 Mbytes
Step PotEng KinEng TotEng v_fx v_fy v_fz 
    1016   -1152449.4            0   -1152449.4 -0.0078738027  -0.01649617 -0.014496925 
    1156   -1152449.4            0   -1152449.4 1.0304965e-06 -1.0211312e-05 -2.9348244e-05 
Loop time of 1.64298 on 104 procs for 140 steps with 288751 atoms

99.9% CPU use with 104 MPI tasks x 1 OpenMP threads

Minimization stats:
  Stopping criterion = energy tolerance
  Energy initial, next-to-last, final = 
     -1152449.42472329  -1152449.42589725  -1152449.42589725
  Force two-norm initial, final = 0.14950907 0.00014274095
  Force max component initial, final = 0.10166062 2.9348244e-05
  Final line search alpha, max atom move = 1.0000000 2.9348244e-05
  Iterations, force evaluations = 140 280

MPI task timing breakdown:
Section |  min time  |  avg time  |  max time  |%varavg| %total
---------------------------------------------------------------
Pair    | 0.42254    | 1.1764     | 1.5365     |  29.4 | 71.60
Neigh   | 0          | 0          | 0          |   0.0 |  0.00
Comm    | 0.028018   | 0.26661    | 0.80329    |  43.0 | 16.23
Output  | 0          | 0          | 0          |   0.0 |  0.00
Modify  | 1.5821e-05 | 0.0023172  | 0.0049412  |   2.3 |  0.14
Other   |            | 0.1977     |            |       | 12.03

Nlocal:        2776.45 ave        3953 max           0 min
Histogram: 8 4 4 0 4 12 8 0 30 34
Nghost:        3879.03 ave        5424 max         232 min
Histogram: 8 0 8 0 16 0 8 8 16 40
Neighs:        79213.4 ave      115238 max           0 min
Histogram: 8 4 4 0 10 6 8 8 24 32

Total # of neighbors = 8238194
Ave neighs/atom = 28.530443
Neighbor list builds = 0
Dangerous builds = 0
The dot product: 6.96974181447341e-08
Setting atom values ...
  1 settings made for x
  1 settings made for y
  1 settings made for z
Setting up cg style minimization ...
  Unit style    : metal
  Current step  : 1156
Per MPI rank memory allocation (min/avg/max) = 5.441 | 5.816 | 6.074 Mbytes
Step PotEng KinEng TotEng v_fx v_fy v_fz 
    1156   -1152449.4            0   -1152449.4 -0.010869407 -0.017287179 -0.010325578 
    1285   -1152449.4            0   -1152449.4 6.0331602e-06 1.958372e-05 3.3717304e-05 
Loop time of 1.53056 on 104 procs for 129 steps with 288751 atoms

99.9% CPU use with 104 MPI tasks x 1 OpenMP threads

Minimization stats:
  Stopping criterion = energy tolerance
  Energy initial, next-to-last, final = 
     -1152449.41580215  -1152449.41698611  -1152449.41698611
  Force two-norm initial, final = 0.14933243 0.00016704094
  Force max component initial, final = 0.10383924 3.3717304e-05
  Final line search alpha, max atom move = 1.0000000 3.3717304e-05
  Iterations, force evaluations = 129 258

MPI task timing breakdown:
Section |  min time  |  avg time  |  max time  |%varavg| %total
---------------------------------------------------------------
Pair    | 0.40109    | 1.0951     | 1.421      |  27.9 | 71.55
Neigh   | 0          | 0          | 0          |   0.0 |  0.00
Comm    | 0.023629   | 0.24674    | 0.73072    |  41.2 | 16.12
Output  | 0          | 0          | 0          |   0.0 |  0.00
Modify  | 1.4669e-05 | 0.0021369  | 0.004534   |   2.2 |  0.14
Other   |            | 0.1866     |            |       | 12.19

Nlocal:        2776.45 ave        3953 max           0 min
Histogram: 8 4 4 0 4 12 8 0 30 34
Nghost:        3879.01 ave        5424 max         232 min
Histogram: 8 0 8 0 16 0 8 8 16 40
Neighs:        79213.4 ave      115238 max           0 min
Histogram: 8 4 4 0 10 6 8 8 24 32

Total # of neighbors = 8238193
Ave neighs/atom = 28.530440
Neighbor list builds = 0
Dangerous builds = 0
The dot product: -1.41258968221522e-07
Setting atom values ...
  1 settings made for x
  1 settings made for y
  1 settings made for z
Setting up cg style minimization ...
  Unit style    : metal
  Current step  : 1285
Per MPI rank memory allocation (min/avg/max) = 5.441 | 5.816 | 6.074 Mbytes
Step PotEng KinEng TotEng v_fx v_fy v_fz 
    1285   -1152449.4            0   -1152449.4 -0.011638719 -0.015590476 -0.006981503 
    1441   -1152449.4            0   -1152449.4 -2.8942404e-06 -1.9696413e-05 -5.0154548e-05 
Loop time of 1.81929 on 104 procs for 156 steps with 288751 atoms

99.9% CPU use with 104 MPI tasks x 1 OpenMP threads

Minimization stats:
  Stopping criterion = energy tolerance
  Energy initial, next-to-last, final = 
     -1152449.40558871   -1152449.4067744   -1152449.4067744
  Force two-norm initial, final = 0.14941916 0.00018796926
  Force max component initial, final = 0.10559473 5.0154548e-05
  Final line search alpha, max atom move = 1.0000000 5.0154548e-05
  Iterations, force evaluations = 156 312

MPI task timing breakdown:
Section |  min time  |  avg time  |  max time  |%varavg| %total
---------------------------------------------------------------
Pair    | 0.47015    | 1.31       | 1.7116     |  31.1 | 72.01
Neigh   | 0          | 0          | 0          |   0.0 |  0.00
Comm    | 0.027341   | 0.29584    | 0.89106    |  45.7 | 16.26
Output  | 0          | 0          | 0          |   0.0 |  0.00
Modify  | 1.8009e-05 | 0.0025733  | 0.0054691  |   2.4 |  0.14
Other   |            | 0.2108     |            |       | 11.59

Nlocal:        2776.45 ave        3951 max           0 min
Histogram: 8 4 4 0 4 12 8 0 30 34
Nghost:        3879.01 ave        5424 max         232 min
Histogram: 8 0 8 0 16 0 8 8 16 40
Neighs:        79213.4 ave      115191 max           0 min
Histogram: 8 4 4 0 10 6 8 8 24 32

Total # of neighbors = 8238195
Ave neighs/atom = 28.530447
Neighbor list builds = 0
Dangerous builds = 0
The dot product: 1.41377517889417e-07
Setting atom values ...
  1 settings made for x
  1 settings made for y
  1 settings made for z
Setting up cg style minimization ...
  Unit style    : metal
  Current step  : 1441
Per MPI rank memory allocation (min/avg/max) = 5.441 | 5.816 | 6.074 Mbytes
Step PotEng KinEng TotEng v_fx v_fy v_fz 
    1441   -1152449.4            0   -1152449.4 -0.010501708 -0.012447311 -0.0045163757 
    1579   -1152449.4            0   -1152449.4 -5.3374624e-06 -1.2305449e-05 -2.1945638e-05 
Loop time of 1.66962 on 104 procs for 138 steps with 288751 atoms

99.9% CPU use with 104 MPI tasks x 1 OpenMP threads

Minimization stats:
  Stopping criterion = energy tolerance
  Energy initial, next-to-last, final = 
     -1152449.39404901    -1152449.395227    -1152449.395227
  Force two-norm initial, final = 0.14972548 0.00014266311
  Force max component initial, final = 0.10709379 2.3546288e-05
  Final line search alpha, max atom move = 1.0000000 2.3546288e-05
  Iterations, force evaluations = 138 276

MPI task timing breakdown:
Section |  min time  |  avg time  |  max time  |%varavg| %total
---------------------------------------------------------------
Pair    | 0.41611    | 1.1773     | 1.5481     |  29.7 | 70.51
Neigh   | 0          | 0          | 0          |   0.0 |  0.00
Comm    | 0.029372   | 0.26948    | 0.78567    |  41.9 | 16.14
Output  | 0          | 0          | 0          |   0.0 |  0.00
Modify  | 1.6071e-05 | 0.0022881  | 0.0048816  |   2.2 |  0.14
Other   |            | 0.2206     |            |       | 13.21

Nlocal:        2776.45 ave        3950 max           0 min
Histogram: 8 4 4 0 4 12 8 0 28 36
Nghost:        3879.01 ave        5424 max         232 min
Histogram: 8 0 8 0 16 0 8 8 16 40
Neighs:        79213.4 ave      115149 max           0 min
Histogram: 8 4 4 0 10 6 8 8 24 32

Total # of neighbors = 8238196
Ave neighs/atom = 28.530450
Neighbor list builds = 0
Dangerous builds = 0
The dot product: 8.84464890076369e-08
Setting atom values ...
  1 settings made for x
  1 settings made for y
  1 settings made for z
Setting up cg style minimization ...
  Unit style    : metal
  Current step  : 1579
Per MPI rank memory allocation (min/avg/max) = 5.441 | 5.816 | 6.074 Mbytes
Step PotEng KinEng TotEng v_fx v_fy v_fz 
    1579   -1152449.4            0   -1152449.4 -0.0079529983 -0.0086214857 -0.0027197011 
    1711   -1152449.4            0   -1152449.4 -2.0310468e-05 -1.9313215e-05 2.4663712e-06 
Loop time of 1.56494 on 104 procs for 132 steps with 288751 atoms

99.9% CPU use with 104 MPI tasks x 1 OpenMP threads

Minimization stats:
  Stopping criterion = energy tolerance
  Energy initial, next-to-last, final = 
     -1152449.38114605  -1152449.38231296  -1152449.38231296
  Force two-norm initial, final = 0.15020523 0.00017654263
  Force max component initial, final = 0.10844789 3.1565126e-05
  Final line search alpha, max atom move = 1.0000000 3.1565126e-05
  Iterations, force evaluations = 132 264

MPI task timing breakdown:
Section |  min time  |  avg time  |  max time  |%varavg| %total
---------------------------------------------------------------
Pair    | 0.39871    | 1.1145     | 1.4616     |  28.7 | 71.22
Neigh   | 0          | 0          | 0          |   0.0 |  0.00
Comm    | 0.026028   | 0.25576    | 0.7606     |  41.4 | 16.34
Output  | 0          | 0          | 0          |   0.0 |  0.00
Modify  | 1.5472e-05 | 0.0021876  | 0.0046917  |   2.2 |  0.14
Other   |            | 0.1925     |            |       | 12.30

Nlocal:        2776.45 ave        3945 max           0 min
Histogram: 8 4 4 0 4 12 8 0 28 36
Nghost:        3879.01 ave        5424 max         232 min
Histogram: 8 0 8 0 16 0 8 8 16 40
Neighs:        79213.4 ave      114959 max           0 min
Histogram: 8 4 4 0 10 6 8 8 24 32

Total # of neighbors = 8238193
Ave neighs/atom = 28.530440
Neighbor list builds = 0
Dangerous builds = 0
The dot product: 1.34187706112211e-07
Setting atom values ...
  1 settings made for x
  1 settings made for y
  1 settings made for z
Setting up cg style minimization ...
  Unit style    : metal
  Current step  : 1711
Per MPI rank memory allocation (min/avg/max) = 5.441 | 5.816 | 6.074 Mbytes
Step PotEng KinEng TotEng v_fx v_fy v_fz 
    1711   -1152449.4            0   -1152449.4 -0.0045267154 -0.004646595 -0.0014919183 
    1817   -1152449.4            0   -1152449.4 -1.2554578e-05 -3.5725447e-05 -8.7413771e-05 
Loop time of 1.2428 on 104 procs for 106 steps with 288751 atoms

99.9% CPU use with 104 MPI tasks x 1 OpenMP threads

Minimization stats:
  Stopping criterion = energy tolerance
  Energy initial, next-to-last, final = 
     -1152449.36685578  -1152449.36801261  -1152449.36801261
  Force two-norm initial, final = 0.15091716 0.00029492398
  Force max component initial, final = 0.10985288 8.7413771e-05
  Final line search alpha, max atom move = 1.0000000 8.7413771e-05
  Iterations, force evaluations = 106 212

MPI task timing breakdown:
Section |  min time  |  avg time  |  max time  |%varavg| %total
---------------------------------------------------------------
Pair    | 0.32099    | 0.89649    | 1.1695     |  25.6 | 72.13
Neigh   | 0          | 0          | 0          |   0.0 |  0.00
Comm    | 0.023522   | 0.20171    | 0.61078    |  38.0 | 16.23
Output  | 0          | 0          | 0          |   0.0 |  0.00
Modify  | 1.2934e-05 | 0.0017594  | 0.0037276  |   2.0 |  0.14
Other   |            | 0.1428     |            |       | 11.49

Nlocal:        2776.45 ave        3943 max           0 min
Histogram: 8 4 4 0 4 12 8 0 28 36
Nghost:        3879.01 ave        5424 max         232 min
Histogram: 8 0 8 0 16 0 8 8 16 40
Neighs:        79213.4 ave      114887 max           0 min
Histogram: 8 4 4 0 10 6 8 8 22 34

Total # of neighbors = 8238192
Ave neighs/atom = 28.530436
Neighbor list builds = 0
Dangerous builds = 0
The dot product: 2.05369972131717e-07
Setting atom values ...
  1 settings made for x
  1 settings made for y
  1 settings made for z
Setting up cg style minimization ...
  Unit style    : metal
  Current step  : 1817
Per MPI rank memory allocation (min/avg/max) = 5.441 | 5.816 | 6.074 Mbytes
Step PotEng KinEng TotEng v_fx v_fy v_fz 
    1817   -1152449.4            0   -1152449.4 -0.00069082717 -0.00082511785 -0.00076424381 
    1966   -1152449.4            0   -1152449.4 3.3001397e-05 3.7103625e-05 2.7742592e-05 
Loop time of 1.75087 on 104 procs for 149 steps with 288751 atoms

99.9% CPU use with 104 MPI tasks x 1 OpenMP threads

Minimization stats:
  Stopping criterion = energy tolerance
  Energy initial, next-to-last, final = 
     -1152449.35116298  -1152449.35230836  -1152449.35230836
  Force two-norm initial, final = 0.15187789 0.00021110068
  Force max component initial, final = 0.11136268 4.0292685e-05
  Final line search alpha, max atom move = 1.0000000 4.0292685e-05
  Iterations, force evaluations = 149 298

MPI task timing breakdown:
Section |  min time  |  avg time  |  max time  |%varavg| %total
---------------------------------------------------------------
Pair    | 0.44782    | 1.2505     | 1.6378     |  30.3 | 71.42
Neigh   | 0          | 0          | 0          |   0.0 |  0.00
Comm    | 0.025844   | 0.28469    | 0.84316    |  44.0 | 16.26
Output  | 0          | 0          | 0          |   0.0 |  0.00
Modify  | 1.7396e-05 | 0.0024657  | 0.0052309  |   2.3 |  0.14
Other   |            | 0.2132     |            |       | 12.18

Nlocal:        2776.45 ave        3940 max           0 min
Histogram: 8 4 4 0 4 12 8 0 28 36
Nghost:        3879.03 ave        5424 max         232 min
Histogram: 8 0 8 0 16 0 8 8 16 40
Neighs:        79213.4 ave      114790 max           0 min
Histogram: 8 4 4 0 10 6 8 8 22 34

Total # of neighbors = 8238192
Ave neighs/atom = 28.530436
Neighbor list builds = 0
Dangerous builds = 0
The dot product: -1.54268066694469e-07
Setting atom values ...
  1 settings made for x
  1 settings made for y
  1 settings made for z
Setting up cg style minimization ...
  Unit style    : metal
  Current step  : 1966
Per MPI rank memory allocation (min/avg/max) = 5.441 | 5.816 | 6.074 Mbytes
Step PotEng KinEng TotEng v_fx v_fy v_fz 
    1966   -1152449.3            0   -1152449.3 0.0030723078  0.002765379 0.00022047627 
    2000   -1152449.3            0   -1152449.3 6.0249609e-05 -4.3184336e-05 -0.00037619099 
    2094   -1152449.3            0   -1152449.3 -1.7857302e-08 -9.1016251e-06 -3.5490568e-05 
Loop time of 1.49191 on 104 procs for 128 steps with 288751 atoms

99.9% CPU use with 104 MPI tasks x 1 OpenMP threads

Minimization stats:
  Stopping criterion = energy tolerance
  Energy initial, next-to-last, final = 
     -1152449.33404434  -1152449.33518078  -1152449.33518078
  Force two-norm initial, final = 0.1530794 0.00016916703
  Force max component initial, final = 0.11305483 3.5490568e-05
  Final line search alpha, max atom move = 1.0000000 3.5490568e-05
  Iterations, force evaluations = 128 256

MPI task timing breakdown:
Section |  min time  |  avg time  |  max time  |%varavg| %total
---------------------------------------------------------------
Pair    | 0.38494    | 1.0799     | 1.4012     |  28.1 | 72.38
Neigh   | 0          | 0          | 0          |   0.0 |  0.00
Comm    | 0.025291   | 0.24192    | 0.72427    |  41.5 | 16.22
Output  | 0.00023114 | 0.00023454 | 0.0003189  |   0.0 |  0.02
Modify  | 1.5035e-05 | 0.0021173  | 0.0044932  |   2.2 |  0.14
Other   |            | 0.1678     |            |       | 11.25

Nlocal:        2776.45 ave        3938 max           0 min
Histogram: 8 4 4 0 4 12 8 0 28 36
Nghost:        3879.03 ave        5424 max         232 min
Histogram: 8 0 8 0 16 0 8 8 16 40
Neighs:        79213.4 ave      114718 max           0 min
Histogram: 8 4 4 0 9 7 8 8 22 34

Total # of neighbors = 8238191
Ave neighs/atom = 28.530433
Neighbor list builds = 0
Dangerous builds = 0
The dot product: 3.74080459819919e-08
Setting atom values ...
  1 settings made for x
  1 settings made for y
  1 settings made for z
Setting up cg style minimization ...
  Unit style    : metal
  Current step  : 2094
Per MPI rank memory allocation (min/avg/max) = 5.441 | 5.816 | 6.074 Mbytes
Step PotEng KinEng TotEng v_fx v_fy v_fz 
    2094   -1152449.3            0   -1152449.3 0.0065707925 0.0059630811 0.00095214995 
    2249   -1152449.3            0   -1152449.3 -4.7417477e-07 8.3600672e-06 3.5041414e-05 
Loop time of 1.81214 on 104 procs for 155 steps with 288751 atoms

99.9% CPU use with 104 MPI tasks x 1 OpenMP threads

Minimization stats:
  Stopping criterion = energy tolerance
  Energy initial, next-to-last, final = 
     -1152449.31547937  -1152449.31661503  -1152449.31661503
  Force two-norm initial, final = 0.15455292 0.00018097082
  Force max component initial, final = 0.11500021 3.5041414e-05
  Final line search alpha, max atom move = 1.0000000 3.5041414e-05
  Iterations, force evaluations = 155 310

MPI task timing breakdown:
Section |  min time  |  avg time  |  max time  |%varavg| %total
---------------------------------------------------------------
Pair    | 0.46581    | 1.3028     | 1.6928     |  30.9 | 71.89
Neigh   | 0          | 0          | 0          |   0.0 |  0.00
Comm    | 0.027985   | 0.29429    | 0.88657    |  45.4 | 16.24
Output  | 0          | 0          | 0          |   0.0 |  0.00
Modify  | 1.8103e-05 | 0.00257    | 0.005465   |   2.4 |  0.14
Other   |            | 0.2125     |            |       | 11.73

Nlocal:        2776.45 ave        3932 max           0 min
Histogram: 8 4 4 0 4 12 8 0 26 38
Nghost:        3879.05 ave        5424 max         232 min
Histogram: 8 0 8 0 16 0 8 8 16 40
Neighs:        79213.4 ave      114522 max           0 min
Histogram: 8 4 4 0 8 8 8 8 20 36

Total # of neighbors = 8238191
Ave neighs/atom = 28.530433
Neighbor list builds = 0
Dangerous builds = 0
The dot product: -2.5841602288809e-08
Setting atom values ...
  1 settings made for x
  1 settings made for y
  1 settings made for z
Setting up cg style minimization ...
  Unit style    : metal
  Current step  : 2249
Per MPI rank memory allocation (min/avg/max) = 5.441 | 5.816 | 6.074 Mbytes
Step PotEng KinEng TotEng v_fx v_fy v_fz 
    2249   -1152449.3            0   -1152449.3 0.0099218983  0.009055485 0.0017506302 
    2388   -1152449.3            0   -1152449.3 -1.5961156e-06 -1.246793e-06 5.6945005e-07 
Loop time of 1.62705 on 104 procs for 139 steps with 288751 atoms

99.9% CPU use with 104 MPI tasks x 1 OpenMP threads

Minimization stats:
  Stopping criterion = energy tolerance
  Energy initial, next-to-last, final = 
     -1152449.29545803  -1152449.29660086  -1152449.29660086
  Force two-norm initial, final = 0.15630761 0.00013984721
  Force max component initial, final = 0.11708854 1.1238001e-05
  Final line search alpha, max atom move = 1.0000000 1.1238001e-05
  Iterations, force evaluations = 139 278

MPI task timing breakdown:
Section |  min time  |  avg time  |  max time  |%varavg| %total
---------------------------------------------------------------
Pair    | 0.42008    | 1.1757     | 1.5216     |  29.4 | 72.26
Neigh   | 0          | 0          | 0          |   0.0 |  0.00
Comm    | 0.026175   | 0.26418    | 0.79104    |  43.2 | 16.24
Output  | 0          | 0          | 0          |   0.0 |  0.00
Modify  | 1.6164e-05 | 0.0022989  | 0.0049071  |   2.3 |  0.14
Other   |            | 0.1849     |            |       | 11.36

Nlocal:        2776.45 ave        3930 max           0 min
Histogram: 8 4 4 0 4 12 8 0 26 38
Nghost:        3879.07 ave        5424 max         232 min
Histogram: 8 0 8 0 16 0 8 8 16 40
Neighs:        79213.4 ave      114474 max           0 min
Histogram: 8 4 4 0 8 8 8 8 20 36

Total # of neighbors = 8238191
Ave neighs/atom = 28.530433
Neighbor list builds = 0
Dangerous builds = 0
The dot product: -2.00951952973613e-09
Setting atom values ...
  1 settings made for x
  1 settings made for y
  1 settings made for z
Setting up cg style minimization ...
  Unit style    : metal
  Current step  : 2388
Per MPI rank memory allocation (min/avg/max) = 5.441 | 5.816 | 6.074 Mbytes
Step PotEng KinEng TotEng v_fx v_fy v_fz 
    2388   -1152449.3            0   -1152449.3  0.013158349  0.012045232 0.0022159905 
    2549   -1152449.3            0   -1152449.3 -4.7206002e-06 2.2686741e-06 2.615101e-05 
Loop time of 1.87296 on 104 procs for 161 steps with 288751 atoms

99.9% CPU use with 104 MPI tasks x 1 OpenMP threads

Minimization stats:
  Stopping criterion = energy tolerance
  Energy initial, next-to-last, final = 
     -1152449.27397359  -1152449.27513338  -1152449.27513338
  Force two-norm initial, final = 0.15843855 0.00018465867
  Force max component initial, final = 0.11937533 3.7582783e-05
  Final line search alpha, max atom move = 1.0000000 3.7582783e-05
  Iterations, force evaluations = 161 322

MPI task timing breakdown:
Section |  min time  |  avg time  |  max time  |%varavg| %total
---------------------------------------------------------------
Pair    | 0.48319    | 1.3496     | 1.7542     |  31.5 | 72.06
Neigh   | 0          | 0          | 0          |   0.0 |  0.00
Comm    | 0.027942   | 0.30473    | 0.9157     |  46.1 | 16.27
Output  | 0          | 0          | 0          |   0.0 |  0.00
Modify  | 1.8993e-05 | 0.0026603  | 0.0056628  |   2.4 |  0.14
Other   |            | 0.216      |            |       | 11.53

Nlocal:        2776.45 ave        3930 max           0 min
Histogram: 8 4 4 0 4 12 8 0 26 38
Nghost:        3879.11 ave        5424 max         232 min
Histogram: 8 0 8 0 16 0 8 8 16 40
Neighs:        79213.3 ave      114478 max           0 min
Histogram: 8 4 4 0 8 8 8 8 20 36

Total # of neighbors = 8238188
Ave neighs/atom = 28.530422
Neighbor list builds = 0
Dangerous builds = 0
The dot product: -1.71968767631313e-08
Setting atom values ...
  1 settings made for x
  1 settings made for y
  1 settings made for z
Setting up cg style minimization ...
  Unit style    : metal
  Current step  : 2549
Per MPI rank memory allocation (min/avg/max) = 5.441 | 5.816 | 6.074 Mbytes
Step PotEng KinEng TotEng v_fx v_fy v_fz 
    2549   -1152449.3            0   -1152449.3  0.016256538   0.01501453 0.0025329532 
    2676   -1152449.3            0   -1152449.3 -8.9142838e-06 -3.2224246e-06 1.916768e-05 
Loop time of 1.4882 on 104 procs for 127 steps with 288751 atoms

99.9% CPU use with 104 MPI tasks x 1 OpenMP threads

Minimization stats:
  Stopping criterion = energy tolerance
  Energy initial, next-to-last, final = 
     -1152449.25102578  -1152449.25221223  -1152449.25221223
  Force two-norm initial, final = 0.1609823 0.00016154381
  Force max component initial, final = 0.12183818 2.6017996e-05
  Final line search alpha, max atom move = 1.0000000 2.6017996e-05
  Iterations, force evaluations = 127 254

MPI task timing breakdown:
Section |  min time  |  avg time  |  max time  |%varavg| %total
---------------------------------------------------------------
Pair    | 0.38349    | 1.0756     | 1.3985     |  28.1 | 72.28
Neigh   | 0          | 0          | 0          |   0.0 |  0.00
Comm    | 0.0292     | 0.24107    | 0.71914    |  41.3 | 16.20
Output  | 0          | 0          | 0          |   0.0 |  0.00
Modify  | 1.4916e-05 | 0.002099   | 0.0044512  |   2.1 |  0.14
Other   |            | 0.1694     |            |       | 11.38

Nlocal:        2776.45 ave        3930 max           0 min
Histogram: 8 4 4 0 4 12 8 0 26 38
Nghost:        3879.09 ave        5424 max         232 min
Histogram: 8 0 8 0 16 0 8 8 16 40
Neighs:        79213.3 ave      114477 max           0 min
Histogram: 8 4 4 0 8 8 8 8 20 36

Total # of neighbors = 8238188
Ave neighs/atom = 28.530422
Neighbor list builds = 0
Dangerous builds = 0
The dot product: -3.65105023953526e-08
Setting atom values ...
  1 settings made for x
  1 settings made for y
  1 settings made for z
Setting up cg style minimization ...
  Unit style    : metal
  Current step  : 2676
Per MPI rank memory allocation (min/avg/max) = 5.441 | 5.816 | 6.074 Mbytes
Step PotEng KinEng TotEng v_fx v_fy v_fz 
    2676   -1152449.2            0   -1152449.2  0.019168944  0.017907315  0.002474911 
    2801   -1152449.2            0   -1152449.2 -2.1930508e-05 -1.5571951e-05 1.7325594e-05 
Loop time of 1.47184 on 104 procs for 125 steps with 288751 atoms

99.9% CPU use with 104 MPI tasks x 1 OpenMP threads

Minimization stats:
  Stopping criterion = energy tolerance
  Energy initial, next-to-last, final = 
     -1152449.22661816  -1152449.22784219  -1152449.22784219
  Force two-norm initial, final = 0.16398024 0.00019477473
  Force max component initial, final = 0.12449865 2.5091457e-05
  Final line search alpha, max atom move = 1.0000000 2.5091457e-05
  Iterations, force evaluations = 125 250

MPI task timing breakdown:
Section |  min time  |  avg time  |  max time  |%varavg| %total
---------------------------------------------------------------
Pair    | 0.37648    | 1.0538     | 1.3788     |  27.8 | 71.60
Neigh   | 0          | 0          | 0          |   0.0 |  0.00
Comm    | 0.023214   | 0.24188    | 0.72501    |  40.7 | 16.43
Output  | 0          | 0          | 0          |   0.0 |  0.00
Modify  | 1.4448e-05 | 0.0020705  | 0.0044012  |   2.1 |  0.14
Other   |            | 0.1741     |            |       | 11.83

Nlocal:        2776.45 ave        3930 max           0 min
Histogram: 8 4 4 0 4 12 8 0 26 38
Nghost:        3879.09 ave        5424 max         232 min
Histogram: 8 0 8 0 16 0 8 8 16 40
Neighs:        79213.3 ave      114477 max           0 min
Histogram: 8 4 4 0 8 8 8 8 20 36

Total # of neighbors = 8238188
Ave neighs/atom = 28.530422
Neighbor list builds = 0
Dangerous builds = 0
The dot product: -1.20728833906764e-07
Setting atom values ...
  1 settings made for x
  1 settings made for y
  1 settings made for z
Setting up cg style minimization ...
  Unit style    : metal
  Current step  : 2801
Per MPI rank memory allocation (min/avg/max) = 5.441 | 5.816 | 6.074 Mbytes
Step PotEng KinEng TotEng v_fx v_fy v_fz 
    2801   -1152449.2            0   -1152449.2  0.021780382  0.020694543 0.0022455705 
    2977   -1152449.2            0   -1152449.2 -1.5350999e-06 -6.4419999e-06 -2.0533684e-05 
Loop time of 2.06227 on 104 procs for 176 steps with 288751 atoms

99.9% CPU use with 104 MPI tasks x 1 OpenMP threads

Minimization stats:
  Stopping criterion = energy tolerance
  Energy initial, next-to-last, final = 
     -1152449.20076338  -1152449.20203504  -1152449.20203504
  Force two-norm initial, final = 0.16738935 0.00010801268
  Force max component initial, final = 0.12731221 2.0533684e-05
  Final line search alpha, max atom move = 1.0000000 2.0533684e-05
  Iterations, force evaluations = 176 352

MPI task timing breakdown:
Section |  min time  |  avg time  |  max time  |%varavg| %total
---------------------------------------------------------------
Pair    | 0.53087    | 1.4882     | 1.9363     |  33.0 | 72.16
Neigh   | 0          | 0          | 0          |   0.0 |  0.00
Comm    | 0.030637   | 0.33432    | 1.0065     |  48.6 | 16.21
Output  | 0          | 0          | 0          |   0.0 |  0.00
Modify  | 2.1147e-05 | 0.0029113  | 0.0061972  |   2.5 |  0.14
Other   |            | 0.2369     |            |       | 11.49

Nlocal:        2776.45 ave        3930 max           0 min
Histogram: 8 4 4 0 4 12 8 0 26 38
Nghost:        3879.09 ave        5424 max         232 min
Histogram: 8 0 8 0 16 0 8 8 16 40
Neighs:        79213.3 ave      114477 max           0 min
Histogram: 8 4 4 0 8 8 8 8 20 36

Total # of neighbors = 8238183
Ave neighs/atom = 28.530405
Neighbor list builds = 0
Dangerous builds = 0
The dot product: -1.80799976401996e-08
Setting atom values ...
  1 settings made for x
  1 settings made for y
  1 settings made for z
Setting up cg style minimization ...
  Unit style    : metal
  Current step  : 2977
Per MPI rank memory allocation (min/avg/max) = 5.441 | 5.816 | 6.074 Mbytes
Step PotEng KinEng TotEng v_fx v_fy v_fz 
    2977   -1152449.2            0   -1152449.2  0.025205072   0.02437246 0.0015222743 
    3000   -1152449.2            0   -1152449.2 3.3706359e-06 3.4267919e-05 0.00012632273 
    3104   -1152449.2            0   -1152449.2 3.1866029e-07 1.746024e-06 5.867473e-06 
Loop time of 1.50168 on 104 procs for 127 steps with 288751 atoms

99.9% CPU use with 104 MPI tasks x 1 OpenMP threads

Minimization stats:
  Stopping criterion = energy tolerance
  Energy initial, next-to-last, final = 
     -1152449.17348654   -1152449.1748277   -1152449.1748277
  Force two-norm initial, final = 0.17142427 0.00014617936
  Force max component initial, final = 0.13022956 3.3281313e-05
  Final line search alpha, max atom move = 1.0000000 3.3281313e-05
  Iterations, force evaluations = 127 254

MPI task timing breakdown:
Section |  min time  |  avg time  |  max time  |%varavg| %total
---------------------------------------------------------------
Pair    | 0.38408    | 1.0777     | 1.3962     |  28.0 | 71.76
Neigh   | 0          | 0          | 0          |   0.0 |  0.00
Comm    | 0.022786   | 0.24463    | 0.73059    |  41.2 | 16.29
Output  | 0.0001596  | 0.00016598 | 0.00024345 |   0.0 |  0.01
Modify  | 1.7101e-05 | 0.0021047  | 0.0044903  |   2.2 |  0.14
Other   |            | 0.1771     |            |       | 11.80

Nlocal:        2776.45 ave        3930 max           0 min
Histogram: 8 4 4 0 4 12 8 0 26 38
Nghost:        3879.09 ave        5424 max         232 min
Histogram: 8 0 8 0 16 0 8 8 16 40
Neighs:        79213.3 ave      114477 max           0 min
Histogram: 8 4 4 0 8 8 8 8 20 36

Total # of neighbors = 8238183
Ave neighs/atom = 28.530405
Neighbor list builds = 0
Dangerous builds = 0
The dot product: 4.97423890113966e-09
Setting atom values ...
  1 settings made for x
  1 settings made for y
  1 settings made for z
Setting up cg style minimization ...
  Unit style    : metal
  Current step  : 3104
Per MPI rank memory allocation (min/avg/max) = 5.441 | 5.816 | 6.074 Mbytes
Step PotEng KinEng TotEng v_fx v_fy v_fz 
    3104   -1152449.1            0   -1152449.1  0.030344838  0.029066088 -0.0036506906 
    3261   -1152449.1            0   -1152449.1 1.3416345e-05 2.2190185e-06 -4.4653641e-05 
Loop time of 1.82647 on 104 procs for 157 steps with 288751 atoms

99.9% CPU use with 104 MPI tasks x 1 OpenMP threads

Minimization stats:
  Stopping criterion = energy tolerance
  Energy initial, next-to-last, final = 
     -1152449.14482397  -1152449.14628873  -1152449.14628873
  Force two-norm initial, final = 0.17603956 0.00015879551
  Force max component initial, final = 0.13344137 4.4653641e-05
  Final line search alpha, max atom move = 1.0000000 4.4653641e-05
  Iterations, force evaluations = 157 314

MPI task timing breakdown:
Section |  min time  |  avg time  |  max time  |%varavg| %total
---------------------------------------------------------------
Pair    | 0.4732     | 1.3222     | 1.714      |  31.1 | 72.39
Neigh   | 0          | 0          | 0          |   0.0 |  0.00
Comm    | 0.031013   | 0.2966     | 0.88484    |  45.6 | 16.24
Output  | 0          | 0          | 0          |   0.0 |  0.00
Modify  | 1.8397e-05 | 0.0025943  | 0.0055073  |   2.4 |  0.14
Other   |            | 0.205      |            |       | 11.23

Nlocal:        2776.45 ave        3930 max           0 min
Histogram: 8 4 4 0 4 12 8 0 26 38
Nghost:        3879.09 ave        5424 max         232 min
Histogram: 8 0 8 0 16 0 8 8 16 40
Neighs:        79213.3 ave      114468 max           0 min
Histogram: 8 4 4 0 8 8 8 8 20 36

Total # of neighbors = 8238185
Ave neighs/atom = 28.530412
Neighbor list builds = 0
Dangerous builds = 0
The dot product: 2.14155863567757e-07
Setting atom values ...
  1 settings made for x
  1 settings made for y
  1 settings made for z
Setting up cg style minimization ...
  Unit style    : metal
  Current step  : 3261
Per MPI rank memory allocation (min/avg/max) = 5.441 | 5.816 | 6.074 Mbytes
Step PotEng KinEng TotEng v_fx v_fy v_fz 
    3261   -1152449.1            0   -1152449.1  0.039006551  0.036302722 -0.017134314 
    3377   -1152449.1            0   -1152449.1 2.8973813e-05 2.9858207e-05 -9.3401809e-07 
Loop time of 1.34724 on 104 procs for 116 steps with 288751 atoms

99.9% CPU use with 104 MPI tasks x 1 OpenMP threads

Minimization stats:
  Stopping criterion = energy tolerance
  Energy initial, next-to-last, final = 
     -1152449.11471636  -1152449.11645648  -1152449.11645648
  Force two-norm initial, final = 0.1832502 0.00020981522
  Force max component initial, final = 0.13702928 2.9858207e-05
  Final line search alpha, max atom move = 1.0000000 2.9858207e-05
  Iterations, force evaluations = 116 232

MPI task timing breakdown:
Section |  min time  |  avg time  |  max time  |%varavg| %total
---------------------------------------------------------------
Pair    | 0.34859    | 0.9742     | 1.2659     |  26.8 | 72.31
Neigh   | 0          | 0          | 0          |   0.0 |  0.00
Comm    | 0.019767   | 0.21991    | 0.66163    |  39.2 | 16.32
Output  | 0          | 0          | 0          |   0.0 |  0.00
Modify  | 1.3356e-05 | 0.0019168  | 0.0040827  |   2.1 |  0.14
Other   |            | 0.1512     |            |       | 11.22

Nlocal:        2776.45 ave        3930 max           0 min
Histogram: 8 4 4 0 4 12 8 0 26 38
Nghost:        3879.09 ave        5424 max         232 min
Histogram: 8 0 8 0 16 0 8 8 16 40
Neighs:        79213.3 ave      114466 max           0 min
Histogram: 8 4 4 0 8 8 8 8 20 36

Total # of neighbors = 8238183
Ave neighs/atom = 28.530405
Neighbor list builds = 0
Dangerous builds = 0
The dot product: 6.10169003941016e-07
Setting atom values ...
  1 settings made for x
  1 settings made for y
  1 settings made for z
Setting up cg style minimization ...
  Unit style    : metal
  Current step  : 3377
Per MPI rank memory allocation (min/avg/max) = 5.441 | 5.816 | 6.074 Mbytes
Step PotEng KinEng TotEng v_fx v_fy v_fz 
    3377   -1152449.1            0   -1152449.1  0.047968454  0.046410406 -0.029235628 
    3521   -1152449.1            0   -1152449.1 -1.5821276e-07 -3.0108552e-06 -1.1968092e-05 
Loop time of 1.682 on 104 procs for 144 steps with 288751 atoms

99.9% CPU use with 104 MPI tasks x 1 OpenMP threads

Minimization stats:
  Stopping criterion = energy tolerance
  Energy initial, next-to-last, final = 
     -1152449.08328157  -1152449.08534709  -1152449.08534709
  Force two-norm initial, final = 0.19295289 5.1701124e-05
  Force max component initial, final = 0.14124936 1.1968092e-05
  Final line search alpha, max atom move = 1.0000000 1.1968092e-05
  Iterations, force evaluations = 144 288

MPI task timing breakdown:
Section |  min time  |  avg time  |  max time  |%varavg| %total
---------------------------------------------------------------
Pair    | 0.43442    | 1.2161     | 1.577      |  29.9 | 72.30
Neigh   | 0          | 0          | 0          |   0.0 |  0.00
Comm    | 0.030861   | 0.27254    | 0.81913    |  44.3 | 16.20
Output  | 0          | 0          | 0          |   0.0 |  0.00
Modify  | 1.6341e-05 | 0.0023794  | 0.0051141  |   2.3 |  0.14
Other   |            | 0.191      |            |       | 11.35

Nlocal:        2776.45 ave        3930 max           0 min
Histogram: 8 4 4 0 4 12 8 0 26 38
Nghost:        3879.09 ave        5424 max         232 min
Histogram: 8 0 8 0 16 0 8 8 16 40
Neighs:        79213.3 ave      114465 max           0 min
Histogram: 8 4 4 0 8 8 8 8 20 36

Total # of neighbors = 8238183
Ave neighs/atom = 28.530405
Neighbor list builds = 0
Dangerous builds = 0
The dot product: 4.47912457976013e-08
Setting atom values ...
  1 settings made for x
  1 settings made for y
  1 settings made for z
Setting up cg style minimization ...
  Unit style    : metal
  Current step  : 3521
Per MPI rank memory allocation (min/avg/max) = 5.441 | 5.816 | 6.074 Mbytes
Step PotEng KinEng TotEng v_fx v_fy v_fz 
    3521   -1152449.1            0   -1152449.1  0.053139921  0.055554913 -0.037869473 
    3648   -1152449.1            0   -1152449.1 1.3023587e-05 3.1376081e-06 -5.6353243e-05 
Loop time of 1.47446 on 104 procs for 127 steps with 288751 atoms

99.9% CPU use with 104 MPI tasks x 1 OpenMP threads

Minimization stats:
  Stopping criterion = energy tolerance
  Energy initial, next-to-last, final = 
     -1152449.05062785  -1152449.05296103  -1152449.05296103
  Force two-norm initial, final = 0.2016854 0.00021786827
  Force max component initial, final = 0.14557809 5.6353243e-05
  Final line search alpha, max atom move = 1.0000000 5.6353243e-05
  Iterations, force evaluations = 127 254

MPI task timing breakdown:
Section |  min time  |  avg time  |  max time  |%varavg| %total
---------------------------------------------------------------
Pair    | 0.38067    | 1.0664     | 1.3865     |  28.0 | 72.33
Neigh   | 0          | 0          | 0          |   0.0 |  0.00
Comm    | 0.023413   | 0.24011    | 0.72843    |  41.3 | 16.28
Output  | 0          | 0          | 0          |   0.0 |  0.00
Modify  | 1.4416e-05 | 0.0020998  | 0.0044541  |   2.1 |  0.14
Other   |            | 0.1658     |            |       | 11.25

Nlocal:        2776.45 ave        3930 max           0 min
Histogram: 8 4 4 0 4 12 8 0 26 38
Nghost:        3879.09 ave        5424 max         232 min
Histogram: 8 0 8 0 16 0 8 8 16 40
Neighs:        79213.3 ave      114465 max           0 min
Histogram: 8 4 4 0 8 8 8 8 20 36

Total # of neighbors = 8238182
Ave neighs/atom = 28.530402
Neighbor list builds = 0
Dangerous builds = 0
The dot product: 7.29025773118629e-07
Setting atom values ...
  1 settings made for x
  1 settings made for y
  1 settings made for z
Setting up cg style minimization ...
  Unit style    : metal
  Current step  : 3648
Per MPI rank memory allocation (min/avg/max) = 5.441 | 5.816 | 6.074 Mbytes
Step PotEng KinEng TotEng v_fx v_fy v_fz 
    3648     -1152449            0     -1152449  0.055111015  0.062074622 -0.050387385 
    3870     -1152449            0     -1152449 -1.363212e-06 -1.9841539e-06 -9.7607224e-07 
Loop time of 2.58821 on 104 procs for 222 steps with 288751 atoms

99.9% CPU use with 104 MPI tasks x 1 OpenMP threads

Minimization stats:
  Stopping criterion = energy tolerance
  Energy initial, next-to-last, final = 
     -1152449.01682131  -1152449.01940659  -1152449.01940659
  Force two-norm initial, final = 0.20994405 3.6417666e-05
  Force max component initial, final = 0.14965741 5.3929085e-06
  Final line search alpha, max atom move = 1.0000000 5.3929085e-06
  Iterations, force evaluations = 222 444

MPI task timing breakdown:
Section |  min time  |  avg time  |  max time  |%varavg| %total
---------------------------------------------------------------
Pair    | 0.66847    | 1.8794     | 2.4407     |  37.2 | 72.61
Neigh   | 0          | 0          | 0          |   0.0 |  0.00
Comm    | 0.048256   | 0.41871    | 1.2514     |  55.0 | 16.18
Output  | 0          | 0          | 0          |   0.0 |  0.00
Modify  | 2.5156e-05 | 0.0036647  | 0.0077895  |   2.8 |  0.14
Other   |            | 0.2865     |            |       | 11.07

Nlocal:        2776.45 ave        3930 max           0 min
Histogram: 8 4 4 0 4 12 8 0 26 38
Nghost:        3879.09 ave        5425 max         232 min
Histogram: 8 0 8 0 16 0 8 8 16 40
Neighs:        79213.2 ave      114465 max           0 min
Histogram: 8 4 4 0 8 8 8 8 20 36

Total # of neighbors = 8238178
Ave neighs/atom = 28.530388
Neighbor list builds = 0
Dangerous builds = 0
The dot product: -3.55393258185616e-08
Setting atom values ...
  1 settings made for x
  1 settings made for y
  1 settings made for z
Setting up cg style minimization ...
  Unit style    : metal
  Current step  : 3870
Per MPI rank memory allocation (min/avg/max) = 5.441 | 5.816 | 6.074 Mbytes
Step PotEng KinEng TotEng v_fx v_fy v_fz 
    3870     -1152449            0     -1152449  0.053634672  0.065101737 -0.068681942 
    4000     -1152449            0     -1152449 -7.1936168e-05 -0.00010762418 -2.9226435e-05 
    4088     -1152449            0     -1152449 -3.7982029e-06 -5.4013738e-06 1.3673182e-07 
Loop time of 2.54032 on 104 procs for 218 steps with 288751 atoms

99.9% CPU use with 104 MPI tasks x 1 OpenMP threads

Minimization stats:
  Stopping criterion = energy tolerance
  Energy initial, next-to-last, final = 
     -1152448.98211033  -1152448.98489177  -1152448.98489177
  Force two-norm initial, final = 0.21847596 5.0729898e-05
  Force max component initial, final = 0.15357849 1.2591394e-05
  Final line search alpha, max atom move = 1.0000000 1.2591394e-05
  Iterations, force evaluations = 218 436

MPI task timing breakdown:
Section |  min time  |  avg time  |  max time  |%varavg| %total
---------------------------------------------------------------
Pair    | 0.65346    | 1.8275     | 2.3873     |  36.7 | 71.94
Neigh   | 0          | 0          | 0          |   0.0 |  0.00
Comm    | 0.038849   | 0.41327    | 1.2328     |  53.8 | 16.27
Output  | 0.00018018 | 0.00018789 | 0.00032055 |   0.0 |  0.01
Modify  | 2.5969e-05 | 0.0035951  | 0.0076433  |   2.8 |  0.14
Other   |            | 0.2958     |            |       | 11.64

Nlocal:        2776.45 ave        3930 max           0 min
Histogram: 8 4 4 0 4 12 8 0 26 38
Nghost:        3879.02 ave        5425 max         232 min
Histogram: 8 0 8 0 16 0 8 8 16 40
Neighs:        79213.2 ave      114462 max           0 min
Histogram: 8 4 4 0 8 8 8 8 20 36

Total # of neighbors = 8238178
Ave neighs/atom = 28.530388
Neighbor list builds = 0
Dangerous builds = 0
The dot product: -1.2778111095987e-07
Setting atom values ...
  1 settings made for x
  1 settings made for y
  1 settings made for z
Setting up cg style minimization ...
  Unit style    : metal
  Current step  : 4088
Per MPI rank memory allocation (min/avg/max) = 5.441 | 5.816 | 6.074 Mbytes
Step PotEng KinEng TotEng v_fx v_fy v_fz 
    4088   -1152448.9            0   -1152448.9  0.047416056  0.063600859  -0.08176688 
    4422     -1152449            0     -1152449 5.9344523e-06 1.6776852e-05 6.3663511e-05 
Loop time of 3.91254 on 104 procs for 334 steps with 288751 atoms

99.9% CPU use with 104 MPI tasks x 1 OpenMP threads

Minimization stats:
  Stopping criterion = energy tolerance
  Energy initial, next-to-last, final = 
     -1152448.94672738  -1152448.98110164  -1152448.98110164
  Force two-norm initial, final = 0.22437033 0.00019432237
  Force max component initial, final = 0.15706658 6.3663511e-05
  Final line search alpha, max atom move = 1.0000000 6.3663511e-05
  Iterations, force evaluations = 334 668

MPI task timing breakdown:
Section |  min time  |  avg time  |  max time  |%varavg| %total
---------------------------------------------------------------
Pair    | 1.0152     | 2.8194     | 3.6704     |  45.2 | 72.06
Neigh   | 2.1122e-05 | 0.0058476  | 0.008525   |   3.2 |  0.15
Comm    | 0.063717   | 0.63732    | 1.9107     |  66.6 | 16.29
Output  | 0          | 0          | 0          |   0.0 |  0.00
Modify  | 3.9132e-05 | 0.0055132  | 0.011728   |   3.5 |  0.14
Other   |            | 0.4444     |            |       | 11.36

Nlocal:        2776.45 ave        3946 max           0 min
Histogram: 8 4 4 0 4 12 8 1 26 37
Nghost:        3879.01 ave        5426 max         232 min
Histogram: 8 0 8 0 16 0 8 8 16 40
Neighs:        79213.3 ave      114958 max           0 min
Histogram: 8 4 4 0 10 6 8 8 23 33

Total # of neighbors = 8238182
Ave neighs/atom = 28.530402
Neighbor list builds = 2
Dangerous builds = 0
The dot product: -3.63601172584552e-06
Setting atom values ...
  1 settings made for x
  1 settings made for y
  1 settings made for z
Setting up cg style minimization ...
  Unit style    : metal
  Current step  : 4422
Per MPI rank memory allocation (min/avg/max) = 5.441 | 5.816 | 6.074 Mbytes
Step PotEng KinEng TotEng v_fx v_fy v_fz 
    4422     -1152449            0     -1152449  0.021539646  0.051742628  -0.13994267 
    4671     -1152449            0     -1152449 -7.3938947e-07 -9.4217678e-07 -3.037304e-06 
Loop time of 2.9185 on 104 procs for 249 steps with 288751 atoms

99.9% CPU use with 104 MPI tasks x 1 OpenMP threads

Minimization stats:
  Stopping criterion = energy tolerance
  Energy initial, next-to-last, final = 
      -1152448.9587502  -1152448.96263022  -1152448.96263022
  Force two-norm initial, final = 0.25574336 1.7518893e-05
  Force max component initial, final = 0.16443131 4.8686110e-06
  Final line search alpha, max atom move = 1.0000000 4.8686110e-06
  Iterations, force evaluations = 249 498

MPI task timing breakdown:
Section |  min time  |  avg time  |  max time  |%varavg| %total
---------------------------------------------------------------
Pair    | 0.7543     | 2.0975     | 2.7351     |  39.2 | 71.87
Neigh   | 0          | 0          | 0          |   0.0 |  0.00
Comm    | 0.044538   | 0.47661    | 1.4383     |  57.6 | 16.33
Output  | 0          | 0          | 0          |   0.0 |  0.00
Modify  | 2.7791e-05 | 0.0041129  | 0.0087674  |   3.0 |  0.14
Other   |            | 0.3403     |            |       | 11.66

Nlocal:        2776.45 ave        3941 max           0 min
Histogram: 8 4 4 0 4 12 8 0 28 36
Nghost:        3879.05 ave        5427 max         232 min
Histogram: 8 0 8 0 16 0 8 8 16 40
Neighs:        79213.3 ave      114819 max           0 min
Histogram: 8 4 4 0 10 6 8 8 22 34

Total # of neighbors = 8238183
Ave neighs/atom = 28.530405
Neighbor list builds = 0
Dangerous builds = 0
The dot product: 7.24628662699317e-08
Setting atom values ...
  1 settings made for x
  1 settings made for y
  1 settings made for z
Setting up cg style minimization ...
  Unit style    : metal
  Current step  : 4671
Per MPI rank memory allocation (min/avg/max) = 5.441 | 5.816 | 6.074 Mbytes
Step PotEng KinEng TotEng v_fx v_fy v_fz 
    4671   -1152448.9            0   -1152448.9 0.0058917366  0.025025795 -0.068541819 
    4823   -1152448.9            0   -1152448.9 2.4087755e-06 6.438169e-06 -1.0109268e-05 
Loop time of 1.81806 on 104 procs for 152 steps with 288751 atoms

99.9% CPU use with 104 MPI tasks x 1 OpenMP threads

Minimization stats:
  Stopping criterion = energy tolerance
  Energy initial, next-to-last, final = 
     -1152448.94018893  -1152448.94255238  -1152448.94255238
  Force two-norm initial, final = 0.22362504 0.00018191404
  Force max component initial, final = 0.16594044 4.0418643e-05
  Final line search alpha, max atom move = 1.0000000 4.0418643e-05
  Iterations, force evaluations = 152 304

MPI task timing breakdown:
Section |  min time  |  avg time  |  max time  |%varavg| %total
---------------------------------------------------------------
Pair    | 0.45923    | 1.2917     | 1.6876     |  30.9 | 71.05
Neigh   | 0          | 0          | 0          |   0.0 |  0.00
Comm    | 0.029883   | 0.29467    | 0.87748    |  44.4 | 16.21
Output  | 0          | 0          | 0          |   0.0 |  0.00
Modify  | 1.7091e-05 | 0.002516   | 0.005342   |   2.4 |  0.14
Other   |            | 0.2292     |            |       | 12.61

Nlocal:        2776.45 ave        3942 max           0 min
Histogram: 8 4 4 0 4 12 8 0 28 36
Nghost:        3879.03 ave        5424 max         232 min
Histogram: 8 0 8 0 16 0 8 8 16 40
Neighs:        79213.3 ave      114858 max           0 min
Histogram: 8 4 4 0 10 6 8 8 22 34

Total # of neighbors = 8238184
Ave neighs/atom = 28.530409
Neighbor list builds = 0
Dangerous builds = 0
The dot product: 1.63800360475256e-07
Setting atom values ...
  1 settings made for x
  1 settings made for y
  1 settings made for z
Setting up cg style minimization ...
  Unit style    : metal
  Current step  : 4823
Per MPI rank memory allocation (min/avg/max) = 5.441 | 5.816 | 6.074 Mbytes
Step PotEng KinEng TotEng v_fx v_fy v_fz 
    4823   -1152448.9            0   -1152448.9 0.0010626536  0.012826088 -0.041449123 
    4959   -1152448.9            0   -1152448.9 -1.831864e-05 -2.4417293e-05 -3.3534702e-05 
Loop time of 1.59996 on 104 procs for 136 steps with 288751 atoms

99.9% CPU use with 104 MPI tasks x 1 OpenMP threads

Minimization stats:
  Stopping criterion = energy tolerance
  Energy initial, next-to-last, final = 
     -1152448.92010482  -1152448.92239274  -1152448.92239274
  Force two-norm initial, final = 0.22084784 0.00020784603
  Force max component initial, final = 0.16771041 3.3534702e-05
  Final line search alpha, max atom move = 1.0000000 3.3534702e-05
  Iterations, force evaluations = 136 272

MPI task timing breakdown:
Section |  min time  |  avg time  |  max time  |%varavg| %total
---------------------------------------------------------------
Pair    | 0.40928    | 1.148      | 1.4985     |  29.2 | 71.75
Neigh   | 0          | 0          | 0          |   0.0 |  0.00
Comm    | 0.023535   | 0.2608     | 0.77848    |  42.5 | 16.30
Output  | 0          | 0          | 0          |   0.0 |  0.00
Modify  | 1.5151e-05 | 0.0022507  | 0.0048104  |   2.2 |  0.14
Other   |            | 0.1889     |            |       | 11.81

Nlocal:        2776.45 ave        3942 max           0 min
Histogram: 8 4 4 0 4 12 8 0 28 36
Nghost:        3879.05 ave        5425 max         232 min
Histogram: 8 0 8 0 16 0 8 8 16 40
Neighs:        79213.3 ave      114848 max           0 min
Histogram: 8 4 4 0 10 6 8 8 22 34

Total # of neighbors = 8238185
Ave neighs/atom = 28.530412
Neighbor list builds = 0
Dangerous builds = 0
The dot product: 2.21075919862309e-07
Setting atom values ...
  1 settings made for x
  1 settings made for y
  1 settings made for z
Setting up cg style minimization ...
  Unit style    : metal
  Current step  : 4959
Per MPI rank memory allocation (min/avg/max) = 5.441 | 5.816 | 6.074 Mbytes
Step PotEng KinEng TotEng v_fx v_fy v_fz 
    4959   -1152448.9            0   -1152448.9 -0.00055619626 0.0078884868 -0.030301604 
    5000   -1152448.9            0   -1152448.9 9.4024654e-05 0.00010664047 0.00022216021 
    5153   -1152448.9            0   -1152448.9 -5.8200673e-06 -1.1265689e-05 2.1203588e-06 
Loop time of 2.26797 on 104 procs for 194 steps with 288751 atoms

99.9% CPU use with 104 MPI tasks x 1 OpenMP threads

Minimization stats:
  Stopping criterion = energy tolerance
  Energy initial, next-to-last, final = 
     -1152448.90013784  -1152448.90212701  -1152448.90212701
  Force two-norm initial, final = 0.22078401 5.1293690e-05
  Force max component initial, final = 0.16964497 1.1265689e-05
  Final line search alpha, max atom move = 1.0000000 1.1265689e-05
  Iterations, force evaluations = 194 388

MPI task timing breakdown:
Section |  min time  |  avg time  |  max time  |%varavg| %total
---------------------------------------------------------------
Pair    | 0.58551    | 1.636      | 2.1238     |  34.6 | 72.13
Neigh   | 0          | 0          | 0          |   0.0 |  0.00
Comm    | 0.038913   | 0.36708    | 1.0952     |  51.0 | 16.19
Output  | 0.00015736 | 0.00015996 | 0.00025324 |   0.0 |  0.01
Modify  | 2.3546e-05 | 0.0032036  | 0.0068437  |   2.7 |  0.14
Other   |            | 0.2616     |            |       | 11.53

Nlocal:        2776.45 ave        3943 max           0 min
Histogram: 8 4 4 0 4 12 8 0 28 36
Nghost:        3879.07 ave        5425 max         232 min
Histogram: 8 0 8 0 16 0 8 8 16 40
Neighs:        79213.3 ave      114873 max           0 min
Histogram: 8 4 4 0 10 6 8 8 22 34

Total # of neighbors = 8238182
Ave neighs/atom = 28.530402
Neighbor list builds = 0
Dangerous builds = 0
The dot product: -2.09599602045763e-08
Setting atom values ...
  1 settings made for x
  1 settings made for y
  1 settings made for z
Setting up cg style minimization ...
  Unit style    : metal
  Current step  : 5153
Per MPI rank memory allocation (min/avg/max) = 5.441 | 5.816 | 6.074 Mbytes
Step PotEng KinEng TotEng v_fx v_fy v_fz 
    5153   -1152448.9            0   -1152448.9 -0.00045326378 0.0055042611  -0.02035036 
    5311   -1152448.9            0   -1152448.9 -8.5442927e-06 -1.4685351e-05 -3.1774333e-06 
Loop time of 1.82987 on 104 procs for 158 steps with 288751 atoms

99.9% CPU use with 104 MPI tasks x 1 OpenMP threads

Minimization stats:
  Stopping criterion = energy tolerance
  Energy initial, next-to-last, final = 
     -1152448.87881021  -1152448.88061811  -1152448.88061811
  Force two-norm initial, final = 0.21932288 0.0002222092
  Force max component initial, final = 0.17176235 2.7255883e-05
  Final line search alpha, max atom move = 1.0000000 2.7255883e-05
  Iterations, force evaluations = 158 316

MPI task timing breakdown:
Section |  min time  |  avg time  |  max time  |%varavg| %total
---------------------------------------------------------------
Pair    | 0.47471    | 1.3238     | 1.7243     |  31.1 | 72.34
Neigh   | 0          | 0          | 0          |   0.0 |  0.00
Comm    | 0.027745   | 0.29709    | 0.89816    |  45.9 | 16.24
Output  | 0          | 0          | 0          |   0.0 |  0.00
Modify  | 1.7735e-05 | 0.0026086  | 0.0055369  |   2.4 |  0.14
Other   |            | 0.2064     |            |       | 11.28

Nlocal:        2776.45 ave        3942 max           0 min
Histogram: 8 4 4 0 4 12 8 0 28 36
Nghost:        3879.05 ave        5425 max         232 min
Histogram: 8 0 8 0 16 0 8 8 16 40
Neighs:        79213.3 ave      114847 max           0 min
Histogram: 8 4 4 0 10 6 8 8 22 34

Total # of neighbors = 8238180
Ave neighs/atom = 28.530395
Neighbor list builds = 0
Dangerous builds = 0
The dot product: 8.04977879572526e-09
Setting atom values ...
  1 settings made for x
  1 settings made for y
  1 settings made for z
Setting up cg style minimization ...
  Unit style    : metal
  Current step  : 5311
Per MPI rank memory allocation (min/avg/max) = 5.441 | 5.816 | 6.074 Mbytes
Step PotEng KinEng TotEng v_fx v_fy v_fz 
    5311   -1152448.9            0   -1152448.9 -0.00023608276 0.0038396427 -0.013417701 
    5531   -1152448.9            0   -1152448.9 5.9092962e-07 1.1778794e-06 -2.954838e-07 
Loop time of 2.59496 on 104 procs for 220 steps with 288751 atoms

99.9% CPU use with 104 MPI tasks x 1 OpenMP threads

Minimization stats:
  Stopping criterion = energy tolerance
  Energy initial, next-to-last, final = 
     -1152448.85530276  -1152448.85722236  -1152448.85722236
  Force two-norm initial, final = 0.22318607 4.2764790e-05
  Force max component initial, final = 0.17395555 1.1091159e-05
  Final line search alpha, max atom move = 1.0000000 1.1091159e-05
  Iterations, force evaluations = 220 440

MPI task timing breakdown:
Section |  min time  |  avg time  |  max time  |%varavg| %total
---------------------------------------------------------------
Pair    | 0.66249    | 1.8647     | 2.42       |  37.1 | 71.86
Neigh   | 0          | 0          | 0          |   0.0 |  0.00
Comm    | 0.044959   | 0.41856    | 1.2576     |  54.6 | 16.13
Output  | 0          | 0          | 0          |   0.0 |  0.00
Modify  | 2.4865e-05 | 0.0036354  | 0.007721   |   2.8 |  0.14
Other   |            | 0.3081     |            |       | 11.87

Nlocal:        2776.45 ave        3941 max           0 min
Histogram: 8 4 4 0 4 12 8 0 28 36
Nghost:        3879.03 ave        5425 max         232 min
Histogram: 8 0 8 0 16 0 8 8 16 40
Neighs:        79213.3 ave      114815 max           0 min
Histogram: 8 4 4 0 10 6 8 8 22 34

Total # of neighbors = 8238179
Ave neighs/atom = 28.530391
Neighbor list builds = 0
Dangerous builds = 0
The dot product: -5.16357803630613e-10
Setting atom values ...
  1 settings made for x
  1 settings made for y
  1 settings made for z
Setting up cg style minimization ...
  Unit style    : metal
  Current step  : 5531
Per MPI rank memory allocation (min/avg/max) = 5.441 | 5.816 | 6.074 Mbytes
Step PotEng KinEng TotEng v_fx v_fy v_fz 
    5531   -1152448.8            0   -1152448.8 -0.000114677 0.0029527847 -0.0098704475 
    5711   -1152448.8            0   -1152448.8 2.4710026e-06 2.4270077e-07 1.3357087e-05 
Loop time of 2.09794 on 104 procs for 180 steps with 288751 atoms

99.9% CPU use with 104 MPI tasks x 1 OpenMP threads

Minimization stats:
  Stopping criterion = energy tolerance
  Energy initial, next-to-last, final = 
      -1152448.8296757  -1152448.83170697  -1152448.83170697
  Force two-norm initial, final = 0.22781822 0.00016987806
  Force max component initial, final = 0.17619947 3.7694336e-05
  Final line search alpha, max atom move = 1.0000000 3.7694336e-05
  Iterations, force evaluations = 180 360

MPI task timing breakdown:
Section |  min time  |  avg time  |  max time  |%varavg| %total
---------------------------------------------------------------
Pair    | 0.54044    | 1.5097     | 1.9752     |  33.3 | 71.96
Neigh   | 0          | 0          | 0          |   0.0 |  0.00
Comm    | 0.031801   | 0.34199    | 1.0201     |  48.8 | 16.30
Output  | 0          | 0          | 0          |   0.0 |  0.00
Modify  | 2.0109e-05 | 0.0029707  | 0.0063036  |   2.6 |  0.14
Other   |            | 0.2433     |            |       | 11.60

Nlocal:        2776.45 ave        3939 max           0 min
Histogram: 8 4 4 0 4 12 8 0 28 36
Nghost:        3879.03 ave        5425 max         232 min
Histogram: 8 0 8 0 16 0 8 8 16 40
Neighs:        79213.2 ave      114752 max           0 min
Histogram: 8 4 4 0 9 7 8 8 22 34

Total # of neighbors = 8238177
Ave neighs/atom = 28.530384
Neighbor list builds = 0
Dangerous builds = 0
The dot product: -2.11119977824796e-09
Setting atom values ...
  1 settings made for x
  1 settings made for y
  1 settings made for z
Setting up cg style minimization ...
  Unit style    : metal
  Current step  : 5711
Per MPI rank memory allocation (min/avg/max) = 5.441 | 5.816 | 6.074 Mbytes
Step PotEng KinEng TotEng v_fx v_fy v_fz 
    5711   -1152448.8            0   -1152448.8 3.6390894e-05 0.0025266603 -0.0076898433 
    5955   -1152448.8            0   -1152448.8 7.2596063e-07 6.3522845e-07 2.1555749e-06 
Loop time of 2.83111 on 104 procs for 244 steps with 288751 atoms

99.9% CPU use with 104 MPI tasks x 1 OpenMP threads

Minimization stats:
  Stopping criterion = energy tolerance
  Energy initial, next-to-last, final = 
      -1152448.8018155  -1152448.80394696  -1152448.80394696
  Force two-norm initial, final = 0.23242109 2.0784707e-05
  Force max component initial, final = 0.17855645 6.2098109e-06
  Final line search alpha, max atom move = 1.0000000 6.2098109e-06
  Iterations, force evaluations = 244 488

MPI task timing breakdown:
Section |  min time  |  avg time  |  max time  |%varavg| %total
---------------------------------------------------------------
Pair    | 0.73252    | 2.0596     | 2.6692     |  38.9 | 72.75
Neigh   | 0          | 0          | 0          |   0.0 |  0.00
Comm    | 0.043261   | 0.4583     | 1.4015     |  58.0 | 16.19
Output  | 0          | 0          | 0          |   0.0 |  0.00
Modify  | 2.8379e-05 | 0.004023   | 0.008549   |   3.0 |  0.14
Other   |            | 0.3091     |            |       | 10.92

Nlocal:        2776.45 ave        3937 max           0 min
Histogram: 8 4 4 0 4 12 8 0 28 36
Nghost:        3879.01 ave        5425 max         232 min
Histogram: 8 0 8 0 16 0 8 8 16 40
Neighs:        79213.2 ave      114690 max           0 min
Histogram: 8 4 4 0 8 8 8 8 22 34

Total # of neighbors = 8238176
Ave neighs/atom = 28.530381
Neighbor list builds = 0
Dangerous builds = 0
The dot product: -1.94208700706465e-10
Setting atom values ...
  1 settings made for x
  1 settings made for y
  1 settings made for z
Setting up cg style minimization ...
  Unit style    : metal
  Current step  : 5955
Per MPI rank memory allocation (min/avg/max) = 5.441 | 5.816 | 6.074 Mbytes
Step PotEng KinEng TotEng v_fx v_fy v_fz 
    5955   -1152448.8            0   -1152448.8 0.00026988203 0.0025542001 -0.0064815209 
    6000   -1152448.8            0   -1152448.8 9.6815595e-06 1.766726e-06 4.9786061e-05 
    6189   -1152448.8            0   -1152448.8 -1.5637512e-06 -1.7536852e-06 -3.4285961e-06 
Loop time of 2.71397 on 104 procs for 234 steps with 288751 atoms

99.9% CPU use with 104 MPI tasks x 1 OpenMP threads

Minimization stats:
  Stopping criterion = energy tolerance
  Energy initial, next-to-last, final = 
     -1152448.77164841  -1152448.77385576  -1152448.77385576
  Force two-norm initial, final = 0.23637933 3.5079698e-05
  Force max component initial, final = 0.18089436 1.2311175e-05
  Final line search alpha, max atom move = 1.0000000 1.2311175e-05
  Iterations, force evaluations = 234 468

MPI task timing breakdown:
Section |  min time  |  avg time  |  max time  |%varavg| %total
---------------------------------------------------------------
Pair    | 0.70366    | 1.9641     | 2.5504     |  38.0 | 72.37
Neigh   | 0          | 0          | 0          |   0.0 |  0.00
Comm    | 0.042704   | 0.44056    | 1.3366     |  56.3 | 16.23
Output  | 0.00014978 | 0.00016143 | 0.00025606 |   0.0 |  0.01
Modify  | 2.6992e-05 | 0.0038643  | 0.0082227  |   2.9 |  0.14
Other   |            | 0.3053     |            |       | 11.25

Nlocal:        2776.45 ave        3930 max           0 min
Histogram: 8 4 4 0 4 12 8 0 26 38
Nghost:        3878.99 ave        5425 max         232 min
Histogram: 8 0 8 0 16 0 8 8 16 40
Neighs:        79213.2 ave      114462 max           0 min
Histogram: 8 4 4 0 8 8 8 8 20 36

Total # of neighbors = 8238169
Ave neighs/atom = 28.530357
Neighbor list builds = 0
Dangerous builds = 0
The dot product: 2.76347654220968e-10
Setting atom values ...
  1 settings made for x
  1 settings made for y
  1 settings made for z
Setting up cg style minimization ...
  Unit style    : metal
  Current step  : 6189
Per MPI rank memory allocation (min/avg/max) = 5.441 | 5.816 | 6.074 Mbytes
Step PotEng KinEng TotEng v_fx v_fy v_fz 
    6189   -1152448.7            0   -1152448.7 0.00055557978 0.0028534918 -0.0058391063 
    6347   -1152448.7            0   -1152448.7 4.6372367e-06 1.0369229e-05 -6.1923899e-06 
Loop time of 1.85048 on 104 procs for 158 steps with 288751 atoms

99.9% CPU use with 104 MPI tasks x 1 OpenMP threads

Minimization stats:
  Stopping criterion = energy tolerance
  Energy initial, next-to-last, final = 
     -1152448.73911683  -1152448.74137699  -1152448.74137699
  Force two-norm initial, final = 0.23960825 0.00019551803
  Force max component initial, final = 0.18329989 6.9727275e-05
  Final line search alpha, max atom move = 1.0000000 6.9727275e-05
  Iterations, force evaluations = 158 316

MPI task timing breakdown:
Section |  min time  |  avg time  |  max time  |%varavg| %total
---------------------------------------------------------------
Pair    | 0.47637    | 1.3344     | 1.729      |  31.2 | 72.11
Neigh   | 0          | 0          | 0          |   0.0 |  0.00
Comm    | 0.034627   | 0.29965    | 0.89707    |  45.8 | 16.19
Output  | 0          | 0          | 0          |   0.0 |  0.00
Modify  | 1.8548e-05 | 0.0026124  | 0.0055353  |   2.4 |  0.14
Other   |            | 0.2138     |            |       | 11.55

Nlocal:        2776.45 ave        3930 max           0 min
Histogram: 8 4 4 0 4 12 8 0 26 38
Nghost:        3879.02 ave        5425 max         232 min
Histogram: 8 0 8 0 16 0 8 8 16 40
Neighs:        79213.1 ave      114461 max           0 min
Histogram: 8 4 4 0 8 8 8 8 20 36

Total # of neighbors = 8238166
Ave neighs/atom = 28.530346
Neighbor list builds = 0
Dangerous builds = 0
The dot product: -1.37374108940742e-08
Setting atom values ...
  1 settings made for x
  1 settings made for y
  1 settings made for z
Setting up cg style minimization ...
  Unit style    : metal
  Current step  : 6347
Per MPI rank memory allocation (min/avg/max) = 5.441 | 5.816 | 6.074 Mbytes
Step PotEng KinEng TotEng v_fx v_fy v_fz 
    6347   -1152448.7            0   -1152448.7 0.00087006614 0.0033390506 -0.0056300444 
    6540   -1152448.7            0   -1152448.7 8.7918533e-06 1.6233291e-05 -1.0470123e-06 
Loop time of 2.24947 on 104 procs for 193 steps with 288751 atoms

99.9% CPU use with 104 MPI tasks x 1 OpenMP threads

Minimization stats:
  Stopping criterion = linesearch alpha is zero
  Energy initial, next-to-last, final = 
     -1152448.70418954  -1152448.70648201  -1152448.70648201
  Force two-norm initial, final = 0.24216747 0.00012583899
  Force max component initial, final = 0.18578249 4.4310945e-05
  Final line search alpha, max atom move = 0.5 2.2155473e-05
  Iterations, force evaluations = 193 387

MPI task timing breakdown:
Section |  min time  |  avg time  |  max time  |%varavg| %total
---------------------------------------------------------------
Pair    | 0.58068    | 1.625      | 2.118      |  34.6 | 72.24
Neigh   | 0          | 0          | 0          |   0.0 |  0.00
Comm    | 0.033157   | 0.3669     | 1.106      |  51.0 | 16.31
Output  | 0          | 0          | 0          |   0.0 |  0.00
Modify  | 2.2558e-05 | 0.0031973  | 0.0068068  |   2.7 |  0.14
Other   |            | 0.2544     |            |       | 11.31

Nlocal:        2776.45 ave        3930 max           0 min
Histogram: 8 4 4 0 4 12 8 0 26 38
Nghost:        3878.94 ave        5425 max         232 min
Histogram: 8 0 8 0 16 0 8 8 16 40
Neighs:        79213.1 ave      114461 max           0 min
Histogram: 8 4 4 0 8 8 8 8 20 36

Total # of neighbors = 8238166
Ave neighs/atom = 28.530346
Neighbor list builds = 0
Dangerous builds = 0
The dot product: -1.47102123966001e-08
Setting atom values ...
  1 settings made for x
  1 settings made for y
  1 settings made for z
Setting up cg style minimization ...
  Unit style    : metal
  Current step  : 6540
Per MPI rank memory allocation (min/avg/max) = 5.441 | 5.816 | 6.074 Mbytes
Step PotEng KinEng TotEng v_fx v_fy v_fz 
    6540   -1152448.7            0   -1152448.7 0.0011834493 0.0040003643 -0.0059962894 
    6711   -1152448.7            0   -1152448.7 3.3008529e-07 -4.7558438e-06 1.7210808e-05 
Loop time of 2.023 on 104 procs for 171 steps with 288751 atoms

99.9% CPU use with 104 MPI tasks x 1 OpenMP threads

Minimization stats:
  Stopping criterion = energy tolerance
  Energy initial, next-to-last, final = 
     -1152448.66685956  -1152448.66916532  -1152448.66916532
  Force two-norm initial, final = 0.24411394 0.00021594805
  Force max component initial, final = 0.18820176 8.0974704e-05
  Final line search alpha, max atom move = 1.0000000 8.0974704e-05
  Iterations, force evaluations = 171 342

MPI task timing breakdown:
Section |  min time  |  avg time  |  max time  |%varavg| %total
---------------------------------------------------------------
Pair    | 0.51567    | 1.4461     | 1.8807     |  32.6 | 71.48
Neigh   | 0          | 0          | 0          |   0.0 |  0.00
Comm    | 0.03492    | 0.32895    | 0.97212    |  47.5 | 16.26
Output  | 0          | 0          | 0          |   0.0 |  0.00
Modify  | 1.9824e-05 | 0.0028265  | 0.0060009  |   2.5 |  0.14
Other   |            | 0.2452     |            |       | 12.12

Nlocal:        2776.45 ave        3930 max           0 min
Histogram: 8 4 4 0 4 12 8 0 26 38
Nghost:        3878.91 ave        5425 max         232 min
Histogram: 8 0 8 0 16 0 8 8 16 40
Neighs:        79213.1 ave      114462 max           0 min
Histogram: 8 4 4 0 8 8 8 8 20 36

Total # of neighbors = 8238163
Ave neighs/atom = 28.530336
Neighbor list builds = 0
Dangerous builds = 0
The dot product: 1.65204488932926e-08
Setting atom values ...
  1 settings made for x
  1 settings made for y
  1 settings made for z
Setting up cg style minimization ...
  Unit style    : metal
  Current step  : 6711
Per MPI rank memory allocation (min/avg/max) = 5.441 | 5.816 | 6.074 Mbytes
Step PotEng KinEng TotEng v_fx v_fy v_fz 
    6711   -1152448.6            0   -1152448.6 0.0015364294 0.0047884845 -0.0065554396 
    6899   -1152448.6            0   -1152448.6 3.1258491e-06 3.3637014e-06 7.3513827e-06 
Loop time of 2.19687 on 104 procs for 188 steps with 288751 atoms

99.9% CPU use with 104 MPI tasks x 1 OpenMP threads

[...]
Histogram: 8 4 4 0 4 12 8 2 28 34
Nghost:        3879.15 ave        5425 max         232 min
Histogram: 8 0 8 0 16 0 8 8 16 40
Neighs:        79213.4 ave      115450 max           0 min
Histogram: 8 4 4 0 10 6 8 8 24 32

Total # of neighbors = 8238196
Ave neighs/atom = 28.530450
Neighbor list builds = 0
Dangerous builds = 0
The dot product: -3.56829077793561e-09
Setting atom values ...
  1 settings made for x
  1 settings made for y
  1 settings made for z
Setting up cg style minimization ...
  Unit style    : metal
  Current step  : 9788
Per MPI rank memory allocation (min/avg/max) = 5.441 | 5.816 | 6.074 Mbytes
Step PotEng KinEng TotEng v_fx v_fy v_fz 
    9788   -1152448.8            0   -1152448.8 -0.0089578903 -0.0078533029  -0.01239407 
    9947   -1152448.8            0   -1152448.8 1.2873481e-05 -1.6427403e-05 1.6014768e-05 
Loop time of 1.87955 on 104 procs for 159 steps with 288751 atoms

99.9% CPU use with 104 MPI tasks x 1 OpenMP threads

Minimization stats:
  Stopping criterion = energy tolerance
  Energy initial, next-to-last, final = 
     -1152448.75566377   -1152448.7568275   -1152448.7568275
  Force two-norm initial, final = 0.13536844 0.00020183479
  Force max component initial, final = 0.061421733 1.8477798e-05
  Final line search alpha, max atom move = 1.0000000 1.8477798e-05
  Iterations, force evaluations = 159 318

MPI task timing breakdown:
Section |  min time  |  avg time  |  max time  |%varavg| %total
---------------------------------------------------------------
Pair    | 0.47653    | 1.3404     | 1.7693     |  31.7 | 71.31
Neigh   | 0          | 0          | 0          |   0.0 |  0.00
Comm    | 0.027713   | 0.31296    | 0.91047    |  45.0 | 16.65
Output  | 0          | 0          | 0          |   0.0 |  0.00
Modify  | 1.8742e-05 | 0.0026311  | 0.0055894  |   2.4 |  0.14
Other   |            | 0.2236     |            |       | 11.90

Nlocal:        2776.45 ave        3960 max           0 min
Histogram: 8 4 4 0 4 12 8 2 28 34
Nghost:        3879.15 ave        5425 max         232 min
Histogram: 8 0 8 0 16 0 8 8 16 40
Neighs:        79213.4 ave      115450 max           0 min
Histogram: 8 4 4 0 10 6 8 8 24 32

Total # of neighbors = 8238195
Ave neighs/atom = 28.530447
Neighbor list builds = 0
Dangerous builds = 0
The dot product: -4.93586663971861e-08
Setting atom values ...
  1 settings made for x
  1 settings made for y
  1 settings made for z
Setting up cg style minimization ...
  Unit style    : metal
  Current step  : 9947
Per MPI rank memory allocation (min/avg/max) = 5.441 | 5.816 | 6.074 Mbytes
Step PotEng KinEng TotEng v_fx v_fy v_fz 
    9947   -1152448.8            0   -1152448.8 -0.0093428947 -0.0072389645 -0.012728705 
   10000   -1152448.8            0   -1152448.8 9.4537316e-05 -9.0686719e-05 0.00011895504 
   10131   -1152448.8            0   -1152448.8 -4.7241537e-06 2.703667e-06 -6.0540898e-06 
Loop time of 2.15052 on 104 procs for 184 steps with 288751 atoms

99.9% CPU use with 104 MPI tasks x 1 OpenMP threads

Minimization stats:
  Stopping criterion = energy tolerance
  Energy initial, next-to-last, final = 
     -1152448.76120392  -1152448.76235386  -1152448.76235386
  Force two-norm initial, final = 0.135883 0.00010435598
  Force max component initial, final = 0.061543036 1.9253437e-05
  Final line search alpha, max atom move = 1.0000000 1.9253437e-05
  Iterations, force evaluations = 184 368

MPI task timing breakdown:
Section |  min time  |  avg time  |  max time  |%varavg| %total
---------------------------------------------------------------
Pair    | 0.54879    | 1.5432     | 2.0176     |  33.8 | 71.76
Neigh   | 0          | 0          | 0          |   0.0 |  0.00
Comm    | 0.030574   | 0.3509     | 1.0537     |  49.2 | 16.32
Output  | 0.00022749 | 0.0002347  | 0.00036227 |   0.0 |  0.01
Modify  | 2.197e-05  | 0.0030451  | 0.0064683  |   2.6 |  0.14
Other   |            | 0.2531     |            |       | 11.77

Nlocal:        2776.45 ave        3960 max           0 min
Histogram: 8 4 4 0 4 12 8 2 28 34
Nghost:        3879.15 ave        5426 max         232 min
Histogram: 8 0 8 0 16 0 8 8 16 40
Neighs:        79213.4 ave      115451 max           0 min
Histogram: 8 4 4 0 10 6 8 8 24 32

Total # of neighbors = 8238195
Ave neighs/atom = 28.530447
Neighbor list builds = 0
Dangerous builds = 0
The dot product: 2.93791669443749e-08
Setting atom values ...
  1 settings made for x
  1 settings made for y
  1 settings made for z
Setting up cg style minimization ...
  Unit style    : metal
  Current step  : 10131
Per MPI rank memory allocation (min/avg/max) = 5.441 | 5.816 | 6.074 Mbytes
Step PotEng KinEng TotEng v_fx v_fy v_fz 
   10131   -1152448.8            0   -1152448.8 -0.0096925554 -0.0065333232  -0.01302191 
   10285   -1152448.8            0   -1152448.8 1.5554905e-05 -1.969292e-05 1.9214613e-05 
Loop time of 1.81101 on 104 procs for 154 steps with 288751 atoms

99.9% CPU use with 104 MPI tasks x 1 OpenMP threads

Minimization stats:
  Stopping criterion = energy tolerance
  Energy initial, next-to-last, final = 
      -1152448.7658954  -1152448.76703962  -1152448.76703962
  Force two-norm initial, final = 0.1364329 0.00022455321
  Force max component initial, final = 0.061656872 3.3662184e-05
  Final line search alpha, max atom move = 1.0000000 3.3662184e-05
  Iterations, force evaluations = 154 308

MPI task timing breakdown:
Section |  min time  |  avg time  |  max time  |%varavg| %total
---------------------------------------------------------------
Pair    | 0.46288    | 1.3005     | 1.7026     |  31.2 | 71.81
Neigh   | 0          | 0          | 0          |   0.0 |  0.00
Comm    | 0.026002   | 0.29901    | 0.88772    |  44.9 | 16.51
Output  | 0          | 0          | 0          |   0.0 |  0.00
Modify  | 1.8361e-05 | 0.0025481  | 0.0054453  |   2.4 |  0.14
Other   |            | 0.209      |            |       | 11.54

Nlocal:        2776.45 ave        3960 max           0 min
Histogram: 8 4 4 0 4 12 8 2 28 34
Nghost:        3879.15 ave        5426 max         232 min
Histogram: 8 0 8 0 16 0 8 8 16 40
Neighs:        79213.4 ave      115451 max           0 min
Histogram: 8 4 4 0 10 6 8 8 24 32

Total # of neighbors = 8238193
Ave neighs/atom = 28.530440
Neighbor list builds = 0
Dangerous builds = 0
The dot product: -5.81927532509911e-08
Setting atom values ...
  1 settings made for x
  1 settings made for y
  1 settings made for z
Setting up cg style minimization ...
  Unit style    : metal
  Current step  : 10285
Per MPI rank memory allocation (min/avg/max) = 5.441 | 5.816 | 6.074 Mbytes
Step PotEng KinEng TotEng v_fx v_fy v_fz 
   10285   -1152448.8            0   -1152448.8 -0.0099865328 -0.0058495812 -0.013252474 
   10441   -1152448.8            0   -1152448.8 -1.7154792e-05 2.2623204e-05 -2.1067521e-05 
Loop time of 1.82687 on 104 procs for 156 steps with 288751 atoms

99.9% CPU use with 104 MPI tasks x 1 OpenMP threads

Minimization stats:
  Stopping criterion = energy tolerance
  Energy initial, next-to-last, final = 
     -1152448.76976586  -1152448.77091161  -1152448.77091161
  Force two-norm initial, final = 0.13703657 0.00021878141
  Force max component initial, final = 0.061781866 2.2623204e-05
  Final line search alpha, max atom move = 1.0000000 2.2623204e-05
  Iterations, force evaluations = 156 312

MPI task timing breakdown:
Section |  min time  |  avg time  |  max time  |%varavg| %total
---------------------------------------------------------------
Pair    | 0.46758    | 1.3099     | 1.7199     |  31.1 | 71.70
Neigh   | 0          | 0          | 0          |   0.0 |  0.00
Comm    | 0.026969   | 0.29729    | 0.88471    |  45.1 | 16.27
Output  | 0          | 0          | 0          |   0.0 |  0.00
Modify  | 1.8826e-05 | 0.0025802  | 0.0054691  |   2.4 |  0.14
Other   |            | 0.2171     |            |       | 11.89

Nlocal:        2776.45 ave        3960 max           0 min
Histogram: 8 4 4 0 4 12 8 2 28 34
Nghost:        3879.16 ave        5426 max         232 min
Histogram: 8 0 8 0 16 0 8 8 16 40
Neighs:        79213.4 ave      115451 max           0 min
Histogram: 8 4 4 0 10 6 8 8 24 32

Total # of neighbors = 8238193
Ave neighs/atom = 28.530440
Neighbor list builds = 0
Dangerous builds = 0
The dot product: 6.4054150607004e-08
Setting atom values ...
  1 settings made for x
  1 settings made for y
  1 settings made for z
Setting up cg style minimization ...
  Unit style    : metal
  Current step  : 10441
Per MPI rank memory allocation (min/avg/max) = 5.441 | 5.816 | 6.074 Mbytes
Step PotEng KinEng TotEng v_fx v_fy v_fz 
   10441   -1152448.8            0   -1152448.8 -0.010295183 -0.0050782116 -0.013502584 
   10598   -1152448.8            0   -1152448.8 -3.1374289e-05 4.1573976e-05 -3.8383802e-05 
Loop time of 1.85386 on 104 procs for 157 steps with 288751 atoms

99.9% CPU use with 104 MPI tasks x 1 OpenMP threads

Minimization stats:
  Stopping criterion = energy tolerance
  Energy initial, next-to-last, final = 
      -1152448.7728605  -1152448.77401549  -1152448.77401549
  Force two-norm initial, final = 0.13771514 0.00021599512
  Force max component initial, final = 0.061847867 4.1573976e-05
  Final line search alpha, max atom move = 1.0000000 4.1573976e-05
  Iterations, force evaluations = 157 314

MPI task timing breakdown:
Section |  min time  |  avg time  |  max time  |%varavg| %total
---------------------------------------------------------------
Pair    | 0.4714     | 1.3225     | 1.7339     |  31.4 | 71.34
Neigh   | 0          | 0          | 0          |   0.0 |  0.00
Comm    | 0.025812   | 0.30755    | 0.92899    |  45.2 | 16.59
Output  | 0          | 0          | 0          |   0.0 |  0.00
Modify  | 1.8649e-05 | 0.0025931  | 0.0055259  |   2.4 |  0.14
Other   |            | 0.2212     |            |       | 11.93

Nlocal:        2776.45 ave        3960 max           0 min
Histogram: 8 4 4 0 4 12 8 2 28 34
Nghost:        3879.16 ave        5425 max         232 min
Histogram: 8 0 8 0 16 0 8 8 16 40
Neighs:        79213.4 ave      115450 max           0 min
Histogram: 8 4 4 0 10 6 8 8 24 32

Total # of neighbors = 8238190
Ave neighs/atom = 28.530429
Neighbor list builds = 0
Dangerous builds = 0
The dot product: 1.26458683909775e-07
Setting atom values ...
  1 settings made for x
  1 settings made for y
  1 settings made for z
Setting up cg style minimization ...
  Unit style    : metal
  Current step  : 10598
Per MPI rank memory allocation (min/avg/max) = 5.441 | 5.816 | 6.074 Mbytes
Step PotEng KinEng TotEng v_fx v_fy v_fz 
   10598   -1152448.8            0   -1152448.8 -0.010537395 -0.0043025576 -0.013669681 
   10752   -1152448.8            0   -1152448.8 1.6819886e-05 -2.6617917e-05   2.0304e-05 
Loop time of 1.83555 on 104 procs for 154 steps with 288751 atoms

99.9% CPU use with 104 MPI tasks x 1 OpenMP threads

Minimization stats:
  Stopping criterion = energy tolerance
  Energy initial, next-to-last, final = 
     -1152448.77524533  -1152448.77641945  -1152448.77641945
  Force two-norm initial, final = 0.13848018 0.00020452633
  Force max component initial, final = 0.061867944 2.8456915e-05
  Final line search alpha, max atom move = 1.0000000 2.8456915e-05
  Iterations, force evaluations = 154 308

MPI task timing breakdown:
Section |  min time  |  avg time  |  max time  |%varavg| %total
---------------------------------------------------------------
Pair    | 0.46877    | 1.3082     | 1.7201     |  31.3 | 71.27
Neigh   | 0          | 0          | 0          |   0.0 |  0.00
Comm    | 0.026417   | 0.29941    | 0.88643    |  44.7 | 16.31
Output  | 0          | 0          | 0          |   0.0 |  0.00
Modify  | 1.8425e-05 | 0.0026084  | 0.0092895  |   2.7 |  0.14
Other   |            | 0.2254     |            |       | 12.28

Nlocal:        2776.45 ave        3960 max           0 min
Histogram: 8 4 4 0 4 12 8 2 28 34
Nghost:        3879.11 ave        5425 max         232 min
Histogram: 8 0 8 0 16 0 8 8 16 40
Neighs:        79213.3 ave      115450 max           0 min
Histogram: 8 4 4 0 10 6 8 8 24 32

Total # of neighbors = 8238188
Ave neighs/atom = 28.530422
Neighbor list builds = 0
Dangerous builds = 0
The dot product: -6.58893057640222e-08
Setting atom values ...
  1 settings made for x
  1 settings made for y
  1 settings made for z
Setting up cg style minimization ...
  Unit style    : metal
  Current step  : 10752
Per MPI rank memory allocation (min/avg/max) = 5.441 | 5.816 | 6.074 Mbytes
Step PotEng KinEng TotEng v_fx v_fy v_fz 
   10752   -1152448.8            0   -1152448.8 -0.010057351 -0.0046414881  -0.01296766 
   10886   -1152448.8            0   -1152448.8 4.8305534e-05 -6.7927601e-05 5.8459684e-05 
Loop time of 1.58107 on 104 procs for 134 steps with 288751 atoms

99.9% CPU use with 104 MPI tasks x 1 OpenMP threads

Minimization stats:
  Stopping criterion = energy tolerance
  Energy initial, next-to-last, final = 
     -1152448.77698947  -1152448.77814989  -1152448.77814989
  Force two-norm initial, final = 0.13896854 0.00027622608
  Force max component initial, final = 0.06183327 6.7927601e-05
  Final line search alpha, max atom move = 1.0000000 6.7927601e-05
  Iterations, force evaluations = 134 268

MPI task timing breakdown:
Section |  min time  |  avg time  |  max time  |%varavg| %total
---------------------------------------------------------------
Pair    | 0.40333    | 1.1287     | 1.4912     |  28.9 | 71.39
Neigh   | 0          | 0          | 0          |   0.0 |  0.00
Comm    | 0.022726   | 0.25983    | 0.75705    |  41.5 | 16.43
Output  | 0          | 0          | 0          |   0.0 |  0.00
Modify  | 1.6037e-05 | 0.00222    | 0.0047278  |   2.2 |  0.14
Other   |            | 0.1903     |            |       | 12.04

Nlocal:        2776.45 ave        3960 max           0 min
Histogram: 8 4 4 0 4 12 8 2 28 34
Nghost:        3879.11 ave        5425 max         232 min
Histogram: 8 0 8 0 16 0 8 8 16 40
Neighs:        79213.4 ave      115446 max           0 min
Histogram: 8 4 4 0 10 6 8 8 24 32

Total # of neighbors = 8238191
Ave neighs/atom = 28.530433
Neighbor list builds = 0
Dangerous builds = 0
The dot product: -1.87542402787991e-07
Setting atom values ...
  1 settings made for x
  1 settings made for y
  1 settings made for z
Setting up cg style minimization ...
  Unit style    : metal
  Current step  : 10886
Per MPI rank memory allocation (min/avg/max) = 5.441 | 5.816 | 6.074 Mbytes
Step PotEng KinEng TotEng v_fx v_fy v_fz 
   10886   -1152448.8            0   -1152448.8 -0.007253979 -0.009549081 -0.0095343552 
   11000   -1152448.8            0   -1152448.8 -5.2229153e-05 7.5612686e-05 -6.2897496e-05 
   11144   -1152448.8            0   -1152448.8 -3.0313059e-07 2.1791118e-07 -3.7384855e-07 
Loop time of 3.02424 on 104 procs for 258 steps with 288751 atoms

99.9% CPU use with 104 MPI tasks x 1 OpenMP threads

Minimization stats:
  Stopping criterion = energy tolerance
  Energy initial, next-to-last, final = 
        -1152448.77784   -1152448.7789945   -1152448.7789945
  Force two-norm initial, final = 0.13901902 6.1009550e-06
  Force max component initial, final = 0.061823366 1.5445201e-06
  Final line search alpha, max atom move = 1.0000000 1.5445201e-06
  Iterations, force evaluations = 258 516

MPI task timing breakdown:
Section |  min time  |  avg time  |  max time  |%varavg| %total
---------------------------------------------------------------
Pair    | 0.7734     | 2.165      | 2.8338     |  40.0 | 71.59
Neigh   | 0          | 0          | 0          |   0.0 |  0.00
Comm    | 0.053643   | 0.49249    | 1.4906     |  58.3 | 16.28
Output  | 0.00020888 | 0.00021192 | 0.00035788 |   0.0 |  0.01
Modify  | 3.0879e-05 | 0.0042609  | 0.0090564  |   3.1 |  0.14
Other   |            | 0.3623     |            |       | 11.98

Nlocal:        2776.45 ave        3961 max           0 min
Histogram: 8 4 4 0 6 10 8 2 28 34
Nghost:        3879.09 ave        5425 max         232 min
Histogram: 8 0 8 0 16 0 8 8 16 40
Neighs:        79213.3 ave      115476 max           0 min
Histogram: 8 4 4 0 10 6 8 8 24 32

Total # of neighbors = 8238188
Ave neighs/atom = 28.530422
Neighbor list builds = 0
Dangerous builds = 0
The dot product: 1.10588988855774e-09
Setting atom values ...
  1 settings made for x
  1 settings made for y
  1 settings made for z
Setting up cg style minimization ...
  Unit style    : metal
  Current step  : 11144
Per MPI rank memory allocation (min/avg/max) = 5.441 | 5.816 | 6.074 Mbytes
Step PotEng KinEng TotEng v_fx v_fy v_fz 
   11144   -1152448.8            0   -1152448.8 -0.0062430404 -0.011109246 -0.0082468992 
   11405   -1152448.8            0   -1152448.8 -3.6402913e-07 5.6813608e-07 -4.3626812e-07 
Loop time of 3.07563 on 104 procs for 261 steps with 288751 atoms

99.9% CPU use with 104 MPI tasks x 1 OpenMP threads

Minimization stats:
  Stopping criterion = energy tolerance
  Energy initial, next-to-last, final = 
      -1152448.7775541  -1152448.77871659  -1152448.77871659
  Force two-norm initial, final = 0.13978289 5.3352207e-06
  Force max component initial, final = 0.06177006 8.0764201e-07
  Final line search alpha, max atom move = 1.0000000 8.0764201e-07
  Iterations, force evaluations = 261 522

MPI task timing breakdown:
Section |  min time  |  avg time  |  max time  |%varavg| %total
---------------------------------------------------------------
Pair    | 0.78173    | 2.1979     | 2.8982     |  40.6 | 71.46
Neigh   | 0          | 0          | 0          |   0.0 |  0.00
Comm    | 0.045946   | 0.51145    | 1.4885     |  57.7 | 16.63
Output  | 0          | 0          | 0          |   0.0 |  0.00
Modify  | 3.1372e-05 | 0.0043089  | 0.0091725  |   3.1 |  0.14
Other   |            | 0.362      |            |       | 11.77

Nlocal:        2776.45 ave        3961 max           0 min
Histogram: 8 4 4 0 6 10 8 2 28 34
Nghost:        3879.07 ave        5425 max         232 min
Histogram: 8 0 8 0 16 0 8 8 16 40
Neighs:        79213.4 ave      115470 max           0 min
Histogram: 8 4 4 0 10 6 8 8 24 32

Total # of neighbors = 8238190
Ave neighs/atom = 28.530429
Neighbor list builds = 0
Dangerous builds = 0
The dot product: 6.98040402693793e-11
Setting up cg style minimization ...
  Unit style    : metal
  Current step  : 11405
Per MPI rank memory allocation (min/avg/max) = 5.441 | 5.816 | 6.074 Mbytes
Step PotEng KinEng TotEng v_fx v_fy v_fz 
   11405   -1152448.8            0   -1152448.8  -0.03371651 -0.00098443319  0.026850126 
   11581   -1152448.8            0   -1152448.8 -2.1101062e-05 2.899763e-05 -2.4896559e-05 
Loop time of 2.04805 on 104 procs for 176 steps with 288751 atoms

99.9% CPU use with 104 MPI tasks x 1 OpenMP threads

Minimization stats:
  Stopping criterion = energy tolerance
  Energy initial, next-to-last, final = 
     -1152448.77871659   -1152448.7790355   -1152448.7790355
  Force two-norm initial, final = 0.04311266 0.00011966696
  Force max component initial, final = 0.03371651 2.8997630e-05
  Final line search alpha, max atom move = 1.0000000 2.8997630e-05
  Iterations, force evaluations = 176 352

MPI task timing breakdown:
Section |  min time  |  avg time  |  max time  |%varavg| %total
---------------------------------------------------------------
Pair    | 0.52519    | 1.4762     | 1.9332     |  33.1 | 72.08
Neigh   | 0          | 0          | 0          |   0.0 |  0.00
Comm    | 0.029631   | 0.33536    | 1.0064     |  48.1 | 16.37
Output  | 0          | 0          | 0          |   0.0 |  0.00
Modify  | 1.9536e-05 | 0.0019002  | 0.0048481  |   2.7 |  0.09
Other   |            | 0.2346     |            |       | 11.45

Nlocal:        2776.45 ave        3960 max           0 min
Histogram: 8 4 4 0 4 12 8 2 28 34
Nghost:        3879.07 ave        5425 max         232 min
Histogram: 8 0 8 0 16 0 8 8 16 40
Neighs:        79213.4 ave      115439 max           0 min
Histogram: 8 4 4 0 10 6 8 8 24 32

Total # of neighbors = 8238190
Ave neighs/atom = 28.530429
Neighbor list builds = 0
Dangerous builds = 0
