LAMMPS (29 Oct 2020)
OMP_NUM_THREADS environment is not set. Defaulting to 1 thread. (../comm.cpp:94)
  using 1 OpenMP thread(s) per MPI task
OMP_NUM_THREADS environment is not set. Defaulting to 1 thread. (../comm.cpp:94)
  using 1 OpenMP thread(s) per MPI task
Reading data file ...
  orthogonal box = (-122.39241 -121.13707 -37.090501) to (122.39241 121.13707 37.090501)
  13 by 4 by 2 MPI processor grid
  reading atoms ...
  288751 atoms
  read_data CPU = 0.370 seconds
199981 atoms in group inner
88770 atoms in group outer
1 atoms in group carbon
Neighbor list info ...
  update every 1 steps, delay 0 steps, check yes
  max neighbors/atom: 2000, page size: 100000
  master list distance cutoff = 5.6
  ghost atom cutoff = 5.6
  binsize = 2.8, bins = 88 87 27
  1 neighbor lists, perpetual/occasional/extra = 1 0 0
  (1) pair eam/alloy, perpetual
      attributes: half, newton on
      pair build: half/bin/atomonly/newton
      stencil: half/bin/3d/newton
      bin: standard
Setting up cg style minimization ...
  Unit style    : metal
  Current step  : 0
Per MPI rank memory allocation (min/avg/max) = 5.441 | 5.816 | 6.074 Mbytes
Step v_fx v_fy v_fz PotEng KinEng TotEng 
       0    26.419732    14.943167    50.449246   -1152433.3            0   -1152433.3 
     177 1.1402228e-05 2.8359085e-06 8.3502591e-06   -1152449.5            0   -1152449.5 
Loop time of 2.04327 on 104 procs for 177 steps with 288751 atoms

99.9% CPU use with 104 MPI tasks x 1 OpenMP threads

Minimization stats:
  Stopping criterion = energy tolerance
  Energy initial, next-to-last, final = 
     -1152433.28060025  -1152449.45035286  -1152449.45035286
  Force two-norm initial, final = 88.142043 0.0001021998
  Force max component initial, final = 57.482723 2.2722738e-05
  Final line search alpha, max atom move = 1.0000000 2.2722738e-05
  Iterations, force evaluations = 177 346

MPI task timing breakdown:
Section |  min time  |  avg time  |  max time  |%varavg| %total
---------------------------------------------------------------
Pair    | 0.55473    | 1.4605     | 1.8971     |  31.8 | 71.48
Neigh   | 5.1594e-05 | 0.014715   | 0.021414   |   5.0 |  0.72
Comm    | 0.039809   | 0.32847    | 0.98567    |  47.7 | 16.08
Output  | 0          | 0          | 0          |   0.0 |  0.00
Modify  | 1.9879e-05 | 0.0018601  | 0.0047676  |   2.7 |  0.09
Other   |            | 0.2378     |            |       | 11.64

Nlocal:        2776.45 ave        3961 max           0 min
Histogram: 8 4 4 0 6 10 8 2 28 34
Nghost:        3879.01 ave        5424 max         232 min
Histogram: 8 0 8 0 16 0 8 8 16 40
Neighs:        79213.6 ave      115455 max           0 min
Histogram: 8 4 4 0 10 6 8 8 24 32

Total # of neighbors = 8238212
Ave neighs/atom = 28.530506
Neighbor list builds = 5
Dangerous builds = 0
Setting atom values ...
  1 settings made for x
  1 settings made for y
  1 settings made for z
Setting up cg style minimization ...
  Unit style    : metal
  Current step  : 177
Per MPI rank memory allocation (min/avg/max) = 5.441 | 5.816 | 6.074 Mbytes
Step PotEng KinEng TotEng v_fx v_fy v_fz 
     177   -1152449.4            0   -1152449.4  0.012436697 -0.016212802 -0.020754851 
     318   -1152449.5            0   -1152449.5  1.30488e-05  4.30822e-07 3.3910357e-05 
Loop time of 1.64701 on 104 procs for 141 steps with 288751 atoms

99.9% CPU use with 104 MPI tasks x 1 OpenMP threads

Minimization stats:
  Stopping criterion = energy tolerance
  Energy initial, next-to-last, final = 
     -1152449.44947018  -1152449.45002045  -1152449.45002045
  Force two-norm initial, final = 0.10822107 0.00015670477
  Force max component initial, final = 0.047619547 3.3910357e-05
  Final line search alpha, max atom move = 1.0000000 3.3910357e-05
  Iterations, force evaluations = 141 282

MPI task timing breakdown:
Section |  min time  |  avg time  |  max time  |%varavg| %total
---------------------------------------------------------------
Pair    | 0.43384    | 1.1922     | 1.5566     |  29.3 | 72.39
Neigh   | 0          | 0          | 0          |   0.0 |  0.00
Comm    | 0.030107   | 0.26818    | 0.80195    |  43.9 | 16.28
Output  | 0          | 0          | 0          |   0.0 |  0.00
Modify  | 1.6767e-05 | 0.0023277  | 0.0050362  |   2.3 |  0.14
Other   |            | 0.1843     |            |       | 11.19

Nlocal:        2776.45 ave        3960 max           0 min
Histogram: 8 4 4 0 4 12 8 2 28 34
Nghost:        3879.01 ave        5424 max         232 min
Histogram: 8 0 8 0 16 0 8 8 16 40
Neighs:        79213.4 ave      115429 max           0 min
Histogram: 8 4 4 0 10 6 8 8 24 32

Total # of neighbors = 8238197
Ave neighs/atom = 28.530454
Neighbor list builds = 0
Dangerous builds = 0
Setting atom values ...
  1 settings made for x
  1 settings made for y
  1 settings made for z
Setting up cg style minimization ...
  Unit style    : metal
  Current step  : 318
Per MPI rank memory allocation (min/avg/max) = 5.441 | 5.816 | 6.074 Mbytes
Step PotEng KinEng TotEng v_fx v_fy v_fz 
     318   -1152449.4            0   -1152449.4  0.021662231  -0.02327559 -0.033885395 
     447   -1152449.4            0   -1152449.4 -1.9129468e-05 1.2152741e-05 -1.15745e-05 
Loop time of 1.50651 on 104 procs for 129 steps with 288751 atoms

99.9% CPU use with 104 MPI tasks x 1 OpenMP threads

Minimization stats:
  Stopping criterion = energy tolerance
  Energy initial, next-to-last, final = 
     -1152449.44665745  -1152449.44808481  -1152449.44808481
  Force two-norm initial, final = 0.17475888 0.0001541351
  Force max component initial, final = 0.079495477 3.0344933e-05
  Final line search alpha, max atom move = 1.0000000 3.0344933e-05
  Iterations, force evaluations = 129 258

MPI task timing breakdown:
Section |  min time  |  avg time  |  max time  |%varavg| %total
---------------------------------------------------------------
Pair    | 0.39774    | 1.0843     | 1.4141     |  28.0 | 71.98
Neigh   | 0          | 0          | 0          |   0.0 |  0.00
Comm    | 0.027603   | 0.24358    | 0.73313    |  41.5 | 16.17
Output  | 0          | 0          | 0          |   0.0 |  0.00
Modify  | 1.574e-05  | 0.0021282  | 0.0046159  |   2.2 |  0.14
Other   |            | 0.1765     |            |       | 11.71

Nlocal:        2776.45 ave        3959 max           0 min
Histogram: 8 4 4 0 4 12 8 2 28 34
Nghost:        3879.01 ave        5424 max         232 min
Histogram: 8 0 8 0 16 0 8 8 16 40
Neighs:        79213.5 ave      115403 max           0 min
Histogram: 8 4 4 0 10 6 8 8 24 32

Total # of neighbors = 8238199
Ave neighs/atom = 28.530461
Neighbor list builds = 0
Dangerous builds = 0
The dot product: 2.40390605177754e-08
Setting atom values ...
  1 settings made for x
  1 settings made for y
  1 settings made for z
Setting up cg style minimization ...
  Unit style    : metal
  Current step  : 447
Per MPI rank memory allocation (min/avg/max) = 5.441 | 5.816 | 6.074 Mbytes
Step PotEng KinEng TotEng v_fx v_fy v_fz 
     447   -1152449.4            0   -1152449.4  0.021000449 -0.019057276 -0.032007836 
     591   -1152449.4            0   -1152449.4 8.5936989e-07 -4.9165514e-07 1.4384391e-06 
Loop time of 1.68654 on 104 procs for 144 steps with 288751 atoms

99.9% CPU use with 104 MPI tasks x 1 OpenMP threads

Minimization stats:
  Stopping criterion = energy tolerance
  Energy initial, next-to-last, final = 
     -1152449.44327951  -1152449.44465996  -1152449.44465996
  Force two-norm initial, final = 0.17152148 3.5873905e-05
  Force max component initial, final = 0.079127849 7.5046891e-06
  Final line search alpha, max atom move = 1.0000000 7.5046891e-06
  Iterations, force evaluations = 144 288

MPI task timing breakdown:
Section |  min time  |  avg time  |  max time  |%varavg| %total
---------------------------------------------------------------
Pair    | 0.4441     | 1.2199     | 1.5767     |  29.5 | 72.33
Neigh   | 0          | 0          | 0          |   0.0 |  0.00
Comm    | 0.032515   | 0.27719    | 0.83028    |  43.7 | 16.44
Output  | 0          | 0          | 0          |   0.0 |  0.00
Modify  | 1.6846e-05 | 0.0023824  | 0.0051341  |   2.3 |  0.14
Other   |            | 0.187      |            |       | 11.09

Nlocal:        2776.45 ave        3959 max           0 min
Histogram: 8 4 4 0 4 12 8 2 28 34
Nghost:        3879.01 ave        5424 max         232 min
Histogram: 8 0 8 0 16 0 8 8 16 40
Neighs:        79213.5 ave      115403 max           0 min
Histogram: 8 4 4 0 10 6 8 8 24 32

Total # of neighbors = 8238199
Ave neighs/atom = 28.530461
Neighbor list builds = 0
Dangerous builds = 0
The dot product: -5.3691118528536e-09
Setting atom values ...
  1 settings made for x
  1 settings made for y
  1 settings made for z
Setting up cg style minimization ...
  Unit style    : metal
  Current step  : 591
Per MPI rank memory allocation (min/avg/max) = 5.441 | 5.816 | 6.074 Mbytes
Step PotEng KinEng TotEng v_fx v_fy v_fz 
     591   -1152449.4            0   -1152449.4  0.019609025 -0.015609419 -0.026278331 
     742   -1152449.4            0   -1152449.4 4.6697199e-06 -2.5743111e-06 4.0519086e-05 
Loop time of 1.74257 on 104 procs for 151 steps with 288751 atoms

99.9% CPU use with 104 MPI tasks x 1 OpenMP threads

Minimization stats:
  Stopping criterion = energy tolerance
  Energy initial, next-to-last, final = 
     -1152449.43854541  -1152449.43990924  -1152449.43990924
  Force two-norm initial, final = 0.16886332 0.00014274707
  Force max component initial, final = 0.077237245 4.0519086e-05
  Final line search alpha, max atom move = 1.0000000 4.0519086e-05
  Iterations, force evaluations = 151 302

MPI task timing breakdown:
Section |  min time  |  avg time  |  max time  |%varavg| %total
---------------------------------------------------------------
Pair    | 0.46207    | 1.2666     | 1.6509     |  30.2 | 72.69
Neigh   | 0          | 0          | 0          |   0.0 |  0.00
Comm    | 0.028815   | 0.28134    | 0.85423    |  45.2 | 16.15
Output  | 0          | 0          | 0          |   0.0 |  0.00
Modify  | 1.8103e-05 | 0.0024926  | 0.0053426  |   2.3 |  0.14
Other   |            | 0.1921     |            |       | 11.03

Nlocal:        2776.45 ave        3958 max           0 min
Histogram: 8 4 4 0 4 12 8 2 28 34
Nghost:        3879.01 ave        5424 max         232 min
Histogram: 8 0 8 0 16 0 8 8 16 40
Neighs:        79213.5 ave      115381 max           0 min
Histogram: 8 4 4 0 10 6 8 8 24 32

Total # of neighbors = 8238201
Ave neighs/atom = 28.530467
Neighbor list builds = 0
Dangerous builds = 0
The dot product: -1.4562157503184e-07
Setting atom values ...
  1 settings made for x
  1 settings made for y
  1 settings made for z
Setting up cg style minimization ...
  Unit style    : metal
  Current step  : 742
Per MPI rank memory allocation (min/avg/max) = 5.441 | 5.816 | 6.074 Mbytes
Step PotEng KinEng TotEng v_fx v_fy v_fz 
     742   -1152449.4            0   -1152449.4  0.017883196 -0.013502366 -0.019492592 
     913   -1152449.4            0   -1152449.4 -8.1515863e-06 6.2352902e-06 6.6123735e-06 
Loop time of 2.00258 on 104 procs for 171 steps with 288751 atoms

99.9% CPU use with 104 MPI tasks x 1 OpenMP threads

Minimization stats:
  Stopping criterion = energy tolerance
  Energy initial, next-to-last, final = 
      -1152449.4324408  -1152449.43379703  -1152449.43379703
  Force two-norm initial, final = 0.16731513 0.000171392
  Force max component initial, final = 0.074570087 2.9248401e-05
  Final line search alpha, max atom move = 1.0000000 2.9248401e-05
  Iterations, force evaluations = 171 342

MPI task timing breakdown:
Section |  min time  |  avg time  |  max time  |%varavg| %total
---------------------------------------------------------------
Pair    | 0.52831    | 1.4444     | 1.8725     |  32.1 | 72.13
Neigh   | 0          | 0          | 0          |   0.0 |  0.00
Comm    | 0.037551   | 0.32359    | 0.97285    |  47.7 | 16.16
Output  | 0          | 0          | 0          |   0.0 |  0.00
Modify  | 2.1339e-05 | 0.0028194  | 0.0060595  |   2.5 |  0.14
Other   |            | 0.2318     |            |       | 11.57

Nlocal:        2776.45 ave        3957 max           0 min
Histogram: 8 4 4 0 4 12 8 2 28 34
Nghost:        3879.01 ave        5424 max         232 min
Histogram: 8 0 8 0 16 0 8 8 16 40
Neighs:        79213.5 ave      115358 max           0 min
Histogram: 8 4 4 0 10 6 8 8 24 32

Total # of neighbors = 8238202
Ave neighs/atom = 28.530471
Neighbor list builds = 0
Dangerous builds = 0
The dot product: 1.24222781711897e-09
Setting atom values ...
  1 settings made for x
  1 settings made for y
  1 settings made for z
Setting up cg style minimization ...
  Unit style    : metal
  Current step  : 913
Per MPI rank memory allocation (min/avg/max) = 5.441 | 5.816 | 6.074 Mbytes
Step PotEng KinEng TotEng v_fx v_fy v_fz 
     913   -1152449.4            0   -1152449.4  0.016166635 -0.012370154 -0.013502438 
    1000   -1152449.4            0   -1152449.4 5.4977619e-07 5.9134039e-06 -8.0627475e-05 
    1094   -1152449.4            0   -1152449.4 2.455162e-06 -2.1728642e-06 1.673773e-06 
Loop time of 2.11266 on 104 procs for 181 steps with 288751 atoms

99.9% CPU use with 104 MPI tasks x 1 OpenMP threads

Minimization stats:
  Stopping criterion = energy tolerance
  Energy initial, next-to-last, final = 
     -1152449.42492613  -1152449.42628297  -1152449.42628297
  Force two-norm initial, final = 0.16676677 0.0001024397
  Force max component initial, final = 0.074426146 1.3288550e-05
  Final line search alpha, max atom move = 1.0000000 1.3288550e-05
  Iterations, force evaluations = 181 362

MPI task timing breakdown:
Section |  min time  |  avg time  |  max time  |%varavg| %total
---------------------------------------------------------------
Pair    | 0.55152    | 1.5167     | 1.9738     |  33.1 | 71.79
Neigh   | 0          | 0          | 0          |   0.0 |  0.00
Comm    | 0.033775   | 0.34059    | 1.031      |  49.2 | 16.12
Output  | 0.00014111 | 0.00014897 | 0.00027729 |   0.0 |  0.01
Modify  | 2.1434e-05 | 0.0029813  | 0.0064232  |   2.6 |  0.14
Other   |            | 0.2522     |            |       | 11.94

Nlocal:        2776.45 ave        3956 max           0 min
Histogram: 8 4 4 0 4 12 8 0 30 34
Nghost:        3879.01 ave        5424 max         232 min
Histogram: 8 0 8 0 16 0 8 8 16 40
Neighs:        79213.5 ave      115318 max           0 min
Histogram: 8 4 4 0 10 6 8 8 24 32

Total # of neighbors = 8238201
Ave neighs/atom = 28.530467
Neighbor list builds = 0
Dangerous builds = 0
The dot product: -1.29140515740435e-08
Setting atom values ...
  1 settings made for x
  1 settings made for y
  1 settings made for z
Setting up cg style minimization ...
  Unit style    : metal
  Current step  : 1094
Per MPI rank memory allocation (min/avg/max) = 5.441 | 5.816 | 6.074 Mbytes
Step PotEng KinEng TotEng v_fx v_fy v_fz 
    1094   -1152449.4            0   -1152449.4  0.014775905 -0.011917431 -0.0086751695 
    1218   -1152449.4            0   -1152449.4 1.7788367e-05 -1.302764e-05 -2.2343682e-05 
Loop time of 1.46015 on 104 procs for 124 steps with 288751 atoms

99.9% CPU use with 104 MPI tasks x 1 OpenMP threads

Minimization stats:
  Stopping criterion = energy tolerance
  Energy initial, next-to-last, final = 
     -1152449.41597202  -1152449.41733577  -1152449.41733577
  Force two-norm initial, final = 0.1668166 0.00021602453
  Force max component initial, final = 0.074742871 5.0258441e-05
  Final line search alpha, max atom move = 1.0000000 5.0258441e-05
  Iterations, force evaluations = 124 248

MPI task timing breakdown:
Section |  min time  |  avg time  |  max time  |%varavg| %total
---------------------------------------------------------------
Pair    | 0.38442    | 1.0466     | 1.3593     |  27.3 | 71.67
Neigh   | 0          | 0          | 0          |   0.0 |  0.00
Comm    | 0.024648   | 0.23365    | 0.70098    |  40.6 | 16.00
Output  | 0          | 0          | 0          |   0.0 |  0.00
Modify  | 1.4967e-05 | 0.002048   | 0.0044232  |   2.1 |  0.14
Other   |            | 0.1779     |            |       | 12.18

Nlocal:        2776.45 ave        3954 max           0 min
Histogram: 8 4 4 0 4 12 8 1 29 34
Nghost:        3879.01 ave        5424 max         232 min
Histogram: 8 0 8 0 16 0 8 8 16 40
Neighs:        79213.5 ave      115239 max           0 min
Histogram: 8 4 4 0 10 6 8 8 24 32

Total # of neighbors = 8238203
Ave neighs/atom = 28.530474
Neighbor list builds = 0
Dangerous builds = 0
The dot product: -1.84393681661095e-08
Setting atom values ...
  1 settings made for x
  1 settings made for y
  1 settings made for z
Setting up cg style minimization ...
  Unit style    : metal
  Current step  : 1218
Per MPI rank memory allocation (min/avg/max) = 5.441 | 5.816 | 6.074 Mbytes
Step PotEng KinEng TotEng v_fx v_fy v_fz 
    1218   -1152449.4            0   -1152449.4  0.013938008 -0.012040949 -0.0049941224 
    1401   -1152449.4            0   -1152449.4 8.1347262e-06 -3.6118436e-06 -2.8280873e-05 
Loop time of 2.11444 on 104 procs for 183 steps with 288751 atoms

99.9% CPU use with 104 MPI tasks x 1 OpenMP threads

Minimization stats:
  Stopping criterion = energy tolerance
  Energy initial, next-to-last, final = 
       -1152449.405558  -1152449.40693025  -1152449.40693025
  Force two-norm initial, final = 0.16716264 0.00010112937
  Force max component initial, final = 0.074711199 2.8280873e-05
  Final line search alpha, max atom move = 1.0000000 2.8280873e-05
  Iterations, force evaluations = 183 366

MPI task timing breakdown:
Section |  min time  |  avg time  |  max time  |%varavg| %total
---------------------------------------------------------------
Pair    | 0.56221    | 1.5357     | 1.997      |  33.3 | 72.63
Neigh   | 0          | 0          | 0          |   0.0 |  0.00
Comm    | 0.039672   | 0.34219    | 1.0388     |  49.8 | 16.18
Output  | 0          | 0          | 0          |   0.0 |  0.00
Modify  | 2.2945e-05 | 0.0030159  | 0.0064961  |   2.6 |  0.14
Other   |            | 0.2335     |            |       | 11.04

Nlocal:        2776.45 ave        3953 max           0 min
Histogram: 8 4 4 0 4 12 8 2 28 34
Nghost:        3879.01 ave        5424 max         232 min
Histogram: 8 0 8 0 16 0 8 8 16 40
Neighs:        79213.5 ave      115203 max           0 min
Histogram: 8 4 4 0 10 6 8 8 24 32

Total # of neighbors = 8238201
Ave neighs/atom = 28.530467
Neighbor list builds = 0
Dangerous builds = 0
The dot product: 2.58010536894166e-08
Setting atom values ...
  1 settings made for x
  1 settings made for y
  1 settings made for z
Setting up cg style minimization ...
  Unit style    : metal
  Current step  : 1401
Per MPI rank memory allocation (min/avg/max) = 5.441 | 5.816 | 6.074 Mbytes
Step PotEng KinEng TotEng v_fx v_fy v_fz 
    1401   -1152449.4            0   -1152449.4  0.013884814 -0.012794201 -0.0025412024 
    1571   -1152449.4            0   -1152449.4 5.9154677e-07 -6.2964928e-06 3.7306502e-05 
Loop time of 1.9679 on 104 procs for 170 steps with 288751 atoms

99.9% CPU use with 104 MPI tasks x 1 OpenMP threads

Minimization stats:
  Stopping criterion = energy tolerance
  Energy initial, next-to-last, final = 
      -1152449.3936643  -1152449.39504282  -1152449.39504282
  Force two-norm initial, final = 0.16756016 0.00016964177
  Force max component initial, final = 0.074485054 3.7306502e-05
  Final line search alpha, max atom move = 1.0000000 3.7306502e-05
  Iterations, force evaluations = 170 340

MPI task timing breakdown:
Section |  min time  |  avg time  |  max time  |%varavg| %total
---------------------------------------------------------------
Pair    | 0.52082    | 1.4356     | 1.8552     |  32.1 | 72.95
Neigh   | 0          | 0          | 0          |   0.0 |  0.00
Comm    | 0.033863   | 0.31973    | 0.96912    |  48.2 | 16.25
Output  | 0          | 0          | 0          |   0.0 |  0.00
Modify  | 2.0964e-05 | 0.002813   | 0.0060825  |   2.5 |  0.14
Other   |            | 0.2098     |            |       | 10.66

Nlocal:        2776.45 ave        3951 max           0 min
Histogram: 8 4 4 0 4 12 8 2 28 34
Nghost:        3879.01 ave        5424 max         232 min
Histogram: 8 0 8 0 16 0 8 8 16 40
Neighs:        79213.5 ave      115135 max           0 min
Histogram: 8 4 4 0 10 6 8 8 24 32

Total # of neighbors = 8238202
Ave neighs/atom = 28.530471
Neighbor list builds = 0
Dangerous builds = 0
The dot product: -7.39100833923608e-08
Setting atom values ...
  1 settings made for x
  1 settings made for y
  1 settings made for z
Setting up cg style minimization ...
  Unit style    : metal
  Current step  : 1571
Per MPI rank memory allocation (min/avg/max) = 5.441 | 5.816 | 6.074 Mbytes
Step PotEng KinEng TotEng v_fx v_fy v_fz 
    1571   -1152449.4            0   -1152449.4  0.014539486 -0.014162594 -0.00066370487 
    1691   -1152449.4            0   -1152449.4 1.3402572e-05 -1.8347198e-05 3.0626902e-05 
Loop time of 1.3939 on 104 procs for 120 steps with 288751 atoms

99.9% CPU use with 104 MPI tasks x 1 OpenMP threads

Minimization stats:
  Stopping criterion = energy tolerance
  Energy initial, next-to-last, final = 
     -1152449.38027049  -1152449.38165403  -1152449.38165403
  Force two-norm initial, final = 0.16799225 0.00025102478
  Force max component initial, final = 0.074336738 6.2855709e-05
  Final line search alpha, max atom move = 1.0000000 6.2855709e-05
  Iterations, force evaluations = 120 240

MPI task timing breakdown:
Section |  min time  |  avg time  |  max time  |%varavg| %total
---------------------------------------------------------------
Pair    | 0.37141    | 1.0111     | 1.3133     |  27.0 | 72.53
Neigh   | 0          | 0          | 0          |   0.0 |  0.00
Comm    | 0.023854   | 0.22607    | 0.69132    |  40.5 | 16.22
Output  | 0          | 0          | 0          |   0.0 |  0.00
Modify  | 1.4114e-05 | 0.0019817  | 0.0042732  |   2.1 |  0.14
Other   |            | 0.1548     |            |       | 11.11

Nlocal:        2776.45 ave        3950 max           0 min
Histogram: 8 4 4 0 4 12 8 2 26 36
Nghost:        3879.01 ave        5424 max         232 min
Histogram: 8 0 8 0 16 0 8 8 16 40
Neighs:        79213.5 ave      115103 max           0 min
Histogram: 8 4 4 0 10 6 8 8 24 32

Total # of neighbors = 8238203
Ave neighs/atom = 28.530474
Neighbor list builds = 0
Dangerous builds = 0
The dot product: -1.02940608316404e-07
Setting atom values ...
  1 settings made for x
  1 settings made for y
  1 settings made for z
Setting up cg style minimization ...
  Unit style    : metal
  Current step  : 1691
Per MPI rank memory allocation (min/avg/max) = 5.441 | 5.816 | 6.074 Mbytes
Step PotEng KinEng TotEng v_fx v_fy v_fz 
    1691   -1152449.4            0   -1152449.4  0.015572554 -0.015781181 0.00046291759 
    1828   -1152449.4            0   -1152449.4 4.0274821e-05 -2.7071099e-05 -7.3928748e-05 
Loop time of 1.59114 on 104 procs for 137 steps with 288751 atoms

99.9% CPU use with 104 MPI tasks x 1 OpenMP threads

Minimization stats:
  Stopping criterion = energy tolerance
  Energy initial, next-to-last, final = 
     -1152449.36535902  -1152449.36674756  -1152449.36674756
  Force two-norm initial, final = 0.1684117 0.00026385707
  Force max component initial, final = 0.074337612 7.3928748e-05
  Final line search alpha, max atom move = 1.0000000 7.3928748e-05
  Iterations, force evaluations = 137 274

MPI task timing breakdown:
Section |  min time  |  avg time  |  max time  |%varavg| %total
---------------------------------------------------------------
Pair    | 0.41924    | 1.1558     | 1.5068     |  28.9 | 72.64
Neigh   | 0          | 0          | 0          |   0.0 |  0.00
Comm    | 0.029456   | 0.26023    | 0.77749    |  43.2 | 16.36
Output  | 0          | 0          | 0          |   0.0 |  0.00
Modify  | 1.6226e-05 | 0.0022611  | 0.0049021  |   2.2 |  0.14
Other   |            | 0.1728     |            |       | 10.86

Nlocal:        2776.45 ave        3948 max           0 min
Histogram: 8 4 4 0 4 12 8 2 26 36
Nghost:        3879.01 ave        5424 max         232 min
Histogram: 8 0 8 0 16 0 8 8 16 40
Neighs:        79213.5 ave      115042 max           0 min
Histogram: 8 4 4 0 10 6 8 8 24 32

Total # of neighbors = 8238204
Ave neighs/atom = 28.530478
Neighbor list builds = 0
Dangerous builds = 0
The dot product: 1.35426221713715e-08
Setting atom values ...
  1 settings made for x
  1 settings made for y
  1 settings made for z
Setting up cg style minimization ...
  Unit style    : metal
  Current step  : 1828
Per MPI rank memory allocation (min/avg/max) = 5.441 | 5.816 | 6.074 Mbytes
Step PotEng KinEng TotEng v_fx v_fy v_fz 
    1828   -1152449.3            0   -1152449.3  0.016288084 -0.016880435 0.00059765601 
    1959   -1152449.4            0   -1152449.4 1.8344514e-05 -1.763771e-05 -6.3458486e-06 
Loop time of 1.50346 on 104 procs for 131 steps with 288751 atoms

99.9% CPU use with 104 MPI tasks x 1 OpenMP threads

Minimization stats:
  Stopping criterion = energy tolerance
  Energy initial, next-to-last, final = 
     -1152449.34890839  -1152449.35030101  -1152449.35030101
  Force two-norm initial, final = 0.16864634 0.00026282243
  Force max component initial, final = 0.074331797 5.3202158e-05
  Final line search alpha, max atom move = 1.0000000 5.3202158e-05
  Iterations, force evaluations = 131 262

MPI task timing breakdown:
Section |  min time  |  avg time  |  max time  |%varavg| %total
---------------------------------------------------------------
Pair    | 0.40068    | 1.0978     | 1.4251     |  28.1 | 73.02
Neigh   | 0          | 0          | 0          |   0.0 |  0.00
Comm    | 0.023908   | 0.24333    | 0.7452     |  42.1 | 16.19
Output  | 0          | 0          | 0          |   0.0 |  0.00
Modify  | 1.5233e-05 | 0.0021649  | 0.004727   |   2.2 |  0.14
Other   |            | 0.1602     |            |       | 10.65

Nlocal:        2776.45 ave        3946 max           0 min
Histogram: 8 4 4 0 4 12 8 2 26 36
Nghost:        3879.01 ave        5424 max         232 min
Histogram: 8 0 8 0 16 0 8 8 16 40
Neighs:        79213.5 ave      114987 max           0 min
Histogram: 8 4 4 0 10 6 8 8 24 32

Total # of neighbors = 8238204
Ave neighs/atom = 28.530478
Neighbor list builds = 0
Dangerous builds = 0
The dot product: -4.18830877723831e-08
Setting atom values ...
  1 settings made for x
  1 settings made for y
  1 settings made for z
Setting up cg style minimization ...
  Unit style    : metal
  Current step  : 1959
Per MPI rank memory allocation (min/avg/max) = 5.441 | 5.816 | 6.074 Mbytes
Step PotEng KinEng TotEng v_fx v_fy v_fz 
    1959   -1152449.3            0   -1152449.3  0.016156951 -0.016915746 -0.00010757132 
    2000   -1152449.3            0   -1152449.3 0.00019923914 -0.00010320523 -0.00050399931 
    2181   -1152449.3            0   -1152449.3 2.7581298e-07 -1.6315932e-07 -6.0093123e-07 
Loop time of 2.55191 on 104 procs for 222 steps with 288751 atoms

99.9% CPU use with 104 MPI tasks x 1 OpenMP threads

Minimization stats:
  Stopping criterion = energy tolerance
  Energy initial, next-to-last, final = 
     -1152449.33088981  -1152449.33230176  -1152449.33230176
  Force two-norm initial, final = 0.16873538 3.1301364e-05
  Force max component initial, final = 0.074416149 3.3365344e-06
  Final line search alpha, max atom move = 1.0000000 3.3365344e-06
  Iterations, force evaluations = 222 444

MPI task timing breakdown:
Section |  min time  |  avg time  |  max time  |%varavg| %total
---------------------------------------------------------------
Pair    | 0.67858    | 1.8674     | 2.417      |  36.7 | 73.18
Neigh   | 0          | 0          | 0          |   0.0 |  0.00
Comm    | 0.041387   | 0.41406    | 1.2598     |  54.8 | 16.23
Output  | 0.0001021  | 0.00010592 | 0.00020534 |   0.0 |  0.00
Modify  | 2.5386e-05 | 0.0036589  | 0.0079404  |   2.9 |  0.14
Other   |            | 0.2667     |            |       | 10.45

Nlocal:        2776.45 ave        3943 max           0 min
Histogram: 8 4 4 0 4 12 8 2 26 36
Nghost:        3879.01 ave        5424 max         232 min
Histogram: 8 0 8 0 16 0 8 8 16 40
Neighs:        79213.5 ave      114895 max           0 min
Histogram: 8 4 4 0 10 6 8 8 22 34

Total # of neighbors = 8238202
Ave neighs/atom = 28.530471
Neighbor list builds = 0
Dangerous builds = 0
The dot product: 9.66024651320159e-10
Setting atom values ...
  1 settings made for x
  1 settings made for y
  1 settings made for z
Setting up cg style minimization ...
  Unit style    : metal
  Current step  : 2181
Per MPI rank memory allocation (min/avg/max) = 5.441 | 5.816 | 6.074 Mbytes
Step PotEng KinEng TotEng v_fx v_fy v_fz 
    2181   -1152449.3            0   -1152449.3  0.013888406 -0.013888842 -0.0043800803 
    2414   -1152449.3            0   -1152449.3 3.0637088e-06 -8.5927951e-07 -1.0540724e-05 
Loop time of 2.681 on 104 procs for 233 steps with 288751 atoms

99.9% CPU use with 104 MPI tasks x 1 OpenMP threads

Minimization stats:
  Stopping criterion = energy tolerance
  Energy initial, next-to-last, final = 
     -1152449.31130109  -1152449.31286911  -1152449.31286911
  Force two-norm initial, final = 0.16865506 3.5945780e-05
  Force max component initial, final = 0.074309679 1.0540724e-05
  Final line search alpha, max atom move = 1.0000000 1.0540724e-05
  Iterations, force evaluations = 233 466

MPI task timing breakdown:
Section |  min time  |  avg time  |  max time  |%varavg| %total
---------------------------------------------------------------
Pair    | 0.72106    | 1.9547     | 2.5339     |  37.3 | 72.91
Neigh   | 0          | 0          | 0          |   0.0 |  0.00
Comm    | 0.052151   | 0.43352    | 1.3273     |  56.4 | 16.17
Output  | 0          | 0          | 0          |   0.0 |  0.00
Modify  | 2.7348e-05 | 0.0038381  | 0.0083121  |   2.9 |  0.14
Other   |            | 0.289      |            |       | 10.78

Nlocal:        2776.45 ave        3936 max           0 min
Histogram: 8 4 4 0 4 12 8 0 28 36
Nghost:        3879.05 ave        5424 max         232 min
Histogram: 8 0 8 0 16 0 8 8 16 40
Neighs:        79213.4 ave      114679 max           0 min
Histogram: 8 4 4 0 8 8 8 8 22 34

Total # of neighbors = 8238196
Ave neighs/atom = 28.530450
Neighbor list builds = 0
Dangerous builds = 0
The dot product: 6.87094605275233e-08
Setting atom values ...
  1 settings made for x
  1 settings made for y
  1 settings made for z
Setting up cg style minimization ...
  Unit style    : metal
  Current step  : 2414
Per MPI rank memory allocation (min/avg/max) = 5.441 | 5.816 | 6.074 Mbytes
Step PotEng KinEng TotEng v_fx v_fy v_fz 
    2414   -1152449.3            0   -1152449.3 -0.0018799371   0.01013702  -0.02764453 
    2594   -1152449.3            0   -1152449.3 8.7512986e-06 5.9116508e-06 -5.5230284e-05 
Loop time of 2.07522 on 104 procs for 180 steps with 288751 atoms

99.9% CPU use with 104 MPI tasks x 1 OpenMP threads

Minimization stats:
  Stopping criterion = energy tolerance
  Energy initial, next-to-last, final = 
     -1152449.29038921  -1152449.29271158  -1152449.29271158
  Force two-norm initial, final = 0.17086421 0.00023948554
  Force max component initial, final = 0.071996722 5.5230284e-05
  Final line search alpha, max atom move = 1.0000000 5.5230284e-05
  Iterations, force evaluations = 180 360

MPI task timing breakdown:
Section |  min time  |  avg time  |  max time  |%varavg| %total
---------------------------------------------------------------
Pair    | 0.55132    | 1.5163     | 1.9525     |  33.0 | 73.06
Neigh   | 0          | 0          | 0          |   0.0 |  0.00
Comm    | 0.034489   | 0.33677    | 1.0252     |  49.4 | 16.23
Output  | 0          | 0          | 0          |   0.0 |  0.00
Modify  | 2.213e-05  | 0.0029768  | 0.0064495  |   2.6 |  0.14
Other   |            | 0.2192     |            |       | 10.56

Nlocal:        2776.45 ave        3930 max           0 min
Histogram: 8 4 4 0 4 12 8 0 26 38
Nghost:        3879.05 ave        5424 max         232 min
Histogram: 8 0 8 0 16 0 8 8 16 40
Neighs:        79213.5 ave      114454 max           0 min
Histogram: 8 4 4 0 8 8 8 8 20 36

Total # of neighbors = 8238199
Ave neighs/atom = 28.530461
Neighbor list builds = 0
Dangerous builds = 0
The dot product: 9.36333589297153e-07
Setting atom values ...
  1 settings made for x
  1 settings made for y
  1 settings made for z
Setting up cg style minimization ...
  Unit style    : metal
  Current step  : 2594
Per MPI rank memory allocation (min/avg/max) = 5.441 | 5.816 | 6.074 Mbytes
Step PotEng KinEng TotEng v_fx v_fy v_fz 
    2594   -1152449.3            0   -1152449.3 -0.025322624  0.058432944 -0.059046161 
    2793   -1152449.3            0   -1152449.3 -1.2006674e-05 -2.5837718e-07 3.8991985e-05 
Loop time of 2.31502 on 104 procs for 199 steps with 288751 atoms

99.9% CPU use with 104 MPI tasks x 1 OpenMP threads

Minimization stats:
  Stopping criterion = energy tolerance
  Energy initial, next-to-last, final = 
     -1152449.26908532  -1152449.27260386  -1152449.27260386
  Force two-norm initial, final = 0.1907223 0.00017919872
  Force max component initial, final = 0.078952414 3.8991985e-05
  Final line search alpha, max atom move = 1.0000000 3.8991985e-05
  Iterations, force evaluations = 199 398

MPI task timing breakdown:
Section |  min time  |  avg time  |  max time  |%varavg| %total
---------------------------------------------------------------
Pair    | 0.6111     | 1.6672     | 2.1594     |  34.6 | 72.02
Neigh   | 0          | 0          | 0          |   0.0 |  0.00
Comm    | 0.039731   | 0.37056    | 1.1277     |  51.8 | 16.01
Output  | 0          | 0          | 0          |   0.0 |  0.00
Modify  | 2.2818e-05 | 0.003285   | 0.0070872  |   2.7 |  0.14
Other   |            | 0.2739     |            |       | 11.83

Nlocal:        2776.45 ave        3930 max           0 min
Histogram: 8 4 4 0 4 12 8 0 26 38
Nghost:        3879.09 ave        5425 max         232 min
Histogram: 8 0 8 0 16 0 8 8 16 40
Neighs:        79213.4 ave      114454 max           0 min
Histogram: 8 4 4 0 8 8 8 8 20 36

Total # of neighbors = 8238195
Ave neighs/atom = 28.530447
Neighbor list builds = 0
Dangerous builds = 0
The dot product: -5.95854329436217e-07
Setting atom values ...
  1 settings made for x
  1 settings made for y
  1 settings made for z
Setting up cg style minimization ...
  Unit style    : metal
  Current step  : 2793
Per MPI rank memory allocation (min/avg/max) = 5.441 | 5.816 | 6.074 Mbytes
Step PotEng KinEng TotEng v_fx v_fy v_fz 
    2793   -1152449.2            0   -1152449.2 -0.031739111  0.091172597  -0.06439352 
    2997   -1152449.3            0   -1152449.3 8.9630503e-06 -7.2942781e-06 -1.2145863e-05 
Loop time of 2.35335 on 104 procs for 204 steps with 288751 atoms

99.9% CPU use with 104 MPI tasks x 1 OpenMP threads

Minimization stats:
  Stopping criterion = energy tolerance
  Energy initial, next-to-last, final = 
     -1152449.24798949  -1152449.25211458  -1152449.25211458
  Force two-norm initial, final = 0.20676503 0.00017276769
  Force max component initial, final = 0.091172597 2.2179891e-05
  Final line search alpha, max atom move = 1.0000000 2.2179891e-05
  Iterations, force evaluations = 204 408

MPI task timing breakdown:
Section |  min time  |  avg time  |  max time  |%varavg| %total
---------------------------------------------------------------
Pair    | 0.62422    | 1.7209     | 2.2276     |  35.2 | 73.13
Neigh   | 0          | 0          | 0          |   0.0 |  0.00
Comm    | 0.037848   | 0.38247    | 1.1559     |  53.0 | 16.25
Output  | 0          | 0          | 0          |   0.0 |  0.00
Modify  | 2.3629e-05 | 0.0033696  | 0.0072248  |   2.7 |  0.14
Other   |            | 0.2466     |            |       | 10.48

Nlocal:        2776.45 ave        3936 max           0 min
Histogram: 8 4 4 0 4 12 8 0 28 36
Nghost:        3879.12 ave        5425 max         232 min
Histogram: 8 0 8 0 16 0 8 8 16 40
Neighs:        79213.4 ave      114662 max           0 min
Histogram: 8 4 4 0 8 8 8 8 22 34

Total # of neighbors = 8238198
Ave neighs/atom = 28.530457
Neighbor list builds = 0
Dangerous builds = 0
The dot product: -8.86879444996861e-08
Setting atom values ...
  1 settings made for x
  1 settings made for y
  1 settings made for z
Setting up cg style minimization ...
  Unit style    : metal
  Current step  : 2997
Per MPI rank memory allocation (min/avg/max) = 5.441 | 5.816 | 6.074 Mbytes
Step PotEng KinEng TotEng v_fx v_fy v_fz 
    2997   -1152449.2            0   -1152449.2 -0.025480348   0.10292924 -0.056985085 
    3000   -1152449.2            0   -1152449.2 -0.0083148033  0.010043586 0.0082185601 
    3191   -1152449.2            0   -1152449.2 6.599094e-06 -2.4029462e-06 -1.2864155e-05 
Loop time of 2.24454 on 104 procs for 194 steps with 288751 atoms

99.9% CPU use with 104 MPI tasks x 1 OpenMP threads

Minimization stats:
  Stopping criterion = energy tolerance
  Energy initial, next-to-last, final = 
     -1152449.22678063  -1152449.23080274  -1152449.23080274
  Force two-norm initial, final = 0.20959904 0.00020632975
  Force max component initial, final = 0.10292924 2.2010556e-05
  Final line search alpha, max atom move = 1.0000000 2.2010556e-05
  Iterations, force evaluations = 194 388

MPI task timing breakdown:
Section |  min time  |  avg time  |  max time  |%varavg| %total
---------------------------------------------------------------
Pair    | 0.59271    | 1.6284     | 2.1188     |  34.4 | 72.55
Neigh   | 0          | 0          | 0          |   0.0 |  0.00
Comm    | 0.035986   | 0.3631     | 1.1074     |  51.2 | 16.18
Output  | 8.489e-05  | 9.4595e-05 | 0.00015369 |   0.0 |  0.00
Modify  | 2.2525e-05 | 0.0031981  | 0.0069244  |   2.7 |  0.14
Other   |            | 0.2497     |            |       | 11.13

Nlocal:        2776.45 ave        3945 max           0 min
Histogram: 8 4 4 0 4 12 8 2 26 36
Nghost:        3879.05 ave        5425 max         232 min
Histogram: 8 0 8 0 16 0 8 8 16 40
Neighs:        79213.5 ave      114927 max           0 min
Histogram: 8 4 4 0 10 6 8 8 22 34

Total # of neighbors = 8238203
Ave neighs/atom = 28.530474
Neighbor list builds = 0
Dangerous builds = 0
The dot product: 9.38029758165725e-08
Setting atom values ...
  1 settings made for x
  1 settings made for y
  1 settings made for z
Setting up cg style minimization ...
  Unit style    : metal
  Current step  : 3191
Per MPI rank memory allocation (min/avg/max) = 5.441 | 5.816 | 6.074 Mbytes
Step PotEng KinEng TotEng v_fx v_fy v_fz 
    3191   -1152449.2            0   -1152449.2 -0.015394931  0.094003028 -0.043223451 
    3470   -1152449.2            0   -1152449.2 -5.8009775e-07 2.7083505e-07 1.0251291e-06 
Loop time of 3.22229 on 104 procs for 279 steps with 288751 atoms

99.9% CPU use with 104 MPI tasks x 1 OpenMP threads

Minimization stats:
  Stopping criterion = energy tolerance
  Energy initial, next-to-last, final = 
     -1152449.20476045  -1152449.20820544  -1152449.20820544
  Force two-norm initial, final = 0.20085423 8.5186768e-06
  Force max component initial, final = 0.1100899 1.9138236e-06
  Final line search alpha, max atom move = 1.0000000 1.9138236e-06
  Iterations, force evaluations = 279 558

MPI task timing breakdown:
Section |  min time  |  avg time  |  max time  |%varavg| %total
---------------------------------------------------------------
Pair    | 0.8487     | 2.3516     | 3.0502     |  41.1 | 72.98
Neigh   | 0          | 0          | 0          |   0.0 |  0.00
Comm    | 0.051349   | 0.5251     | 1.5898     |  61.9 | 16.30
Output  | 0          | 0          | 0          |   0.0 |  0.00
Modify  | 3.2299e-05 | 0.0046019  | 0.0099604  |   3.2 |  0.14
Other   |            | 0.341      |            |       | 10.58

Nlocal:        2776.45 ave        3951 max           0 min
Histogram: 8 4 4 0 4 12 8 2 28 34
Nghost:        3879.03 ave        5425 max         232 min
Histogram: 8 0 8 0 16 0 8 8 16 40
Neighs:        79213.5 ave      115118 max           0 min
Histogram: 8 4 4 0 10 6 8 8 24 32

Total # of neighbors = 8238206
Ave neighs/atom = 28.530485
Neighbor list builds = 0
Dangerous builds = 0
The dot product: -6.34385665878276e-09
Setting atom values ...
  1 settings made for x
  1 settings made for y
  1 settings made for z
Setting up cg style minimization ...
  Unit style    : metal
  Current step  : 3470
Per MPI rank memory allocation (min/avg/max) = 5.441 | 5.816 | 6.074 Mbytes
Step PotEng KinEng TotEng v_fx v_fy v_fz 
    3470   -1152449.2            0   -1152449.2 -0.005951205   0.07763073 -0.034135656 
    3657   -1152449.2            0   -1152449.2 -8.0485277e-06 -3.5417603e-06 1.8009363e-05 
Loop time of 2.15867 on 104 procs for 187 steps with 288751 atoms

99.9% CPU use with 104 MPI tasks x 1 OpenMP threads

Minimization stats:
  Stopping criterion = energy tolerance
  Energy initial, next-to-last, final = 
     -1152449.18155788  -1152449.18464805  -1152449.18464805
  Force two-norm initial, final = 0.19071268 0.00019393639
  Force max component initial, final = 0.11590925 3.6973563e-05
  Final line search alpha, max atom move = 1.0000000 3.6973563e-05
  Iterations, force evaluations = 187 374

MPI task timing breakdown:
Section |  min time  |  avg time  |  max time  |%varavg| %total
---------------------------------------------------------------
Pair    | 0.57141    | 1.5728     | 2.0462     |  33.8 | 72.86
Neigh   | 0          | 0          | 0          |   0.0 |  0.00
Comm    | 0.044344   | 0.3514     | 1.0713     |  50.8 | 16.28
Output  | 0          | 0          | 0          |   0.0 |  0.00
Modify  | 2.1714e-05 | 0.0030834  | 0.0066073  |   2.6 |  0.14
Other   |            | 0.2314     |            |       | 10.72

Nlocal:        2776.45 ave        3955 max           0 min
Histogram: 8 4 4 0 4 12 8 2 28 34
Nghost:        3879.01 ave        5426 max         232 min
Histogram: 8 0 8 0 16 0 8 8 16 40
Neighs:        79213.5 ave      115256 max           0 min
Histogram: 8 4 4 0 10 6 8 8 24 32

Total # of neighbors = 8238206
Ave neighs/atom = 28.530485
Neighbor list builds = 0
Dangerous builds = 0
The dot product: -3.34278477839135e-07
Setting atom values ...
  1 settings made for x
  1 settings made for y
  1 settings made for z
Setting up cg style minimization ...
  Unit style    : metal
  Current step  : 3657
Per MPI rank memory allocation (min/avg/max) = 5.441 | 5.816 | 6.074 Mbytes
Step PotEng KinEng TotEng v_fx v_fy v_fz 
    3657   -1152449.2            0   -1152449.2 0.0025139862  0.063865358 -0.032415541 
    3841   -1152449.2            0   -1152449.2 1.1056065e-05 -6.3231031e-06 -1.7433196e-05 
Loop time of 2.11847 on 104 procs for 184 steps with 288751 atoms

99.9% CPU use with 104 MPI tasks x 1 OpenMP threads

Minimization stats:
  Stopping criterion = energy tolerance
  Energy initial, next-to-last, final = 
     -1152449.15753705  -1152449.16027164  -1152449.16027164
  Force two-norm initial, final = 0.18402585 0.00019409138
  Force max component initial, final = 0.1200103 3.5423851e-05
  Final line search alpha, max atom move = 1.0000000 3.5423851e-05
  Iterations, force evaluations = 184 368

MPI task timing breakdown:
Section |  min time  |  avg time  |  max time  |%varavg| %total
---------------------------------------------------------------
Pair    | 0.56324    | 1.5461     | 2.0085     |  33.3 | 72.98
Neigh   | 0          | 0          | 0          |   0.0 |  0.00
Comm    | 0.03332    | 0.34172    | 1.0368     |  50.0 | 16.13
Output  | 0          | 0          | 0          |   0.0 |  0.00
Modify  | 2.2358e-05 | 0.00304    | 0.0066573  |   2.6 |  0.14
Other   |            | 0.2276     |            |       | 10.74

Nlocal:        2776.45 ave        3956 max           0 min
Histogram: 8 4 4 0 4 12 8 2 28 34
Nghost:        3878.97 ave        5425 max         232 min
Histogram: 8 0 8 0 16 0 8 8 16 40
Neighs:        79213.6 ave      115295 max           0 min
Histogram: 8 4 4 0 10 6 8 8 24 32

Total # of neighbors = 8238211
Ave neighs/atom = 28.530502
Neighbor list builds = 0
Dangerous builds = 0
The dot product: 1.66606654349831e-07
Setting atom values ...
  1 settings made for x
  1 settings made for y
  1 settings made for z
Setting up cg style minimization ...
  Unit style    : metal
  Current step  : 3841
Per MPI rank memory allocation (min/avg/max) = 5.441 | 5.816 | 6.074 Mbytes
Step PotEng KinEng TotEng v_fx v_fy v_fz 
    3841   -1152449.1            0   -1152449.1 0.0087485343  0.056009845 -0.032694191 
    4000   -1152449.1            0   -1152449.1 -5.0456081e-05 -1.986223e-06 8.584696e-05 
    4006   -1152449.1            0   -1152449.1 -4.206295e-05 -1.845893e-06 7.1627533e-05 
Loop time of 1.90912 on 104 procs for 165 steps with 288751 atoms

99.9% CPU use with 104 MPI tasks x 1 OpenMP threads

Minimization stats:
  Stopping criterion = energy tolerance
  Energy initial, next-to-last, final = 
     -1152449.13244019  -1152449.13490829  -1152449.13490829
  Force two-norm initial, final = 0.18138307 0.00033175861
  Force max component initial, final = 0.12418424 0.00010238153
  Final line search alpha, max atom move = 1.0000000 0.00010238153
  Iterations, force evaluations = 165 330

MPI task timing breakdown:
Section |  min time  |  avg time  |  max time  |%varavg| %total
---------------------------------------------------------------
Pair    | 0.51303    | 1.3864     | 1.8044     |  31.4 | 72.62
Neigh   | 0          | 0          | 0          |   0.0 |  0.00
Comm    | 0.037128   | 0.30883    | 0.94305    |  47.0 | 16.18
Output  | 0.00010377 | 0.0001066  | 0.00024104 |   0.0 |  0.01
Modify  | 1.9665e-05 | 0.0027169  | 0.0058578  |   2.5 |  0.14
Other   |            | 0.211      |            |       | 11.05

Nlocal:        2776.45 ave        3957 max           0 min
Histogram: 8 4 4 0 4 12 8 2 28 34
Nghost:        3878.97 ave        5425 max         232 min
Histogram: 8 0 8 0 16 0 8 8 16 40
Neighs:        79213.6 ave      115343 max           0 min
Histogram: 8 4 4 0 10 6 8 8 24 32

Total # of neighbors = 8238214
Ave neighs/atom = 28.530512
Neighbor list builds = 0
Dangerous builds = 0
The dot product: -1.16994502009796e-06
Setting atom values ...
  1 settings made for x
  1 settings made for y
  1 settings made for z
Setting up cg style minimization ...
  Unit style    : metal
  Current step  : 4006
Per MPI rank memory allocation (min/avg/max) = 5.441 | 5.816 | 6.074 Mbytes
Step PotEng KinEng TotEng v_fx v_fy v_fz 
    4006   -1152449.1            0   -1152449.1  0.011332572  0.046549285 -0.028847927 
    4194   -1152449.1            0   -1152449.1 -1.8944487e-05 1.7020308e-06 2.9423991e-05 
Loop time of 2.18747 on 104 procs for 188 steps with 288751 atoms

99.9% CPU use with 104 MPI tasks x 1 OpenMP threads

Minimization stats:
  Stopping criterion = energy tolerance
  Energy initial, next-to-last, final = 
     -1152449.10615592  -1152449.10829365  -1152449.10829365
  Force two-norm initial, final = 0.17855136 0.0001346736
  Force max component initial, final = 0.12816203 2.9423991e-05
  Final line search alpha, max atom move = 1.0000000 2.9423991e-05
  Iterations, force evaluations = 188 376

MPI task timing breakdown:
Section |  min time  |  avg time  |  max time  |%varavg| %total
---------------------------------------------------------------
Pair    | 0.57264    | 1.5872     | 2.0689     |  33.8 | 72.56
Neigh   | 0          | 0          | 0          |   0.0 |  0.00
Comm    | 0.042151   | 0.35553    | 1.0713     |  50.6 | 16.25
Output  | 0          | 0          | 0          |   0.0 |  0.00
Modify  | 2.1783e-05 | 0.003103   | 0.0066518  |   2.6 |  0.14
Other   |            | 0.2416     |            |       | 11.04

Nlocal:        2776.45 ave        3958 max           0 min
Histogram: 8 4 4 0 4 12 8 2 28 34
Nghost:        3878.95 ave        5425 max         232 min
Histogram: 8 0 8 0 16 0 8 8 16 40
Neighs:        79213.6 ave      115365 max           0 min
Histogram: 8 4 4 0 10 6 8 8 24 32

Total # of neighbors = 8238213
Ave neighs/atom = 28.530509
Neighbor list builds = 0
Dangerous builds = 0
The dot product: -4.04082079303627e-07
Setting atom values ...
  1 settings made for x
  1 settings made for y
  1 settings made for z
Setting up cg style minimization ...
  Unit style    : metal
  Current step  : 4194
Per MPI rank memory allocation (min/avg/max) = 5.441 | 5.816 | 6.074 Mbytes
Step PotEng KinEng TotEng v_fx v_fy v_fz 
    4194   -1152449.1            0   -1152449.1  0.010844475   0.03596517 -0.022568898 
    4369   -1152449.1            0   -1152449.1 9.7474988e-06 -6.5105118e-06 -1.3320814e-05 
Loop time of 2.02768 on 104 procs for 175 steps with 288751 atoms

99.9% CPU use with 104 MPI tasks x 1 OpenMP threads

Minimization stats:
  Stopping criterion = energy tolerance
  Energy initial, next-to-last, final = 
     -1152449.07842376  -1152449.08032502  -1152449.08032502
  Force two-norm initial, final = 0.17611213 0.0001961461
  Force max component initial, final = 0.13179948 3.7272370e-05
  Final line search alpha, max atom move = 1.0000000 3.7272370e-05
  Iterations, force evaluations = 175 350

MPI task timing breakdown:
Section |  min time  |  avg time  |  max time  |%varavg| %total
---------------------------------------------------------------
Pair    | 0.5371     | 1.469      | 1.9166     |  32.5 | 72.44
Neigh   | 0          | 0          | 0          |   0.0 |  0.00
Comm    | 0.035739   | 0.32792    | 0.99432    |  48.4 | 16.17
Output  | 0          | 0          | 0          |   0.0 |  0.00
Modify  | 2e-05      | 0.0028848  | 0.006184   |   2.5 |  0.14
Other   |            | 0.2279     |            |       | 11.24

Nlocal:        2776.45 ave        3959 max           0 min
Histogram: 8 4 4 0 4 12 8 2 28 34
Nghost:        3878.95 ave        5425 max         232 min
Histogram: 8 0 8 0 16 0 8 8 16 40
Neighs:        79213.6 ave      115391 max           0 min
Histogram: 8 4 4 0 10 6 8 8 24 32

Total # of neighbors = 8238212
Ave neighs/atom = 28.530506
Neighbor list builds = 0
Dangerous builds = 0
The dot product: 1.10790612794989e-07
Setting atom values ...
  1 settings made for x
  1 settings made for y
  1 settings made for z
Setting up cg style minimization ...
  Unit style    : metal
  Current step  : 4369
Per MPI rank memory allocation (min/avg/max) = 5.441 | 5.816 | 6.074 Mbytes
Step PotEng KinEng TotEng v_fx v_fy v_fz 
    4369     -1152449            0     -1152449 0.0089334999  0.026432091 -0.016413326 
    4548   -1152449.1            0   -1152449.1 1.9404793e-05 -1.1548589e-06 -2.7388947e-05 
Loop time of 2.08652 on 104 procs for 179 steps with 288751 atoms

99.9% CPU use with 104 MPI tasks x 1 OpenMP threads

Minimization stats:
  Stopping criterion = energy tolerance
  Energy initial, next-to-last, final = 
     -1152449.04926458  -1152449.05102009  -1152449.05102009
  Force two-norm initial, final = 0.17480992 0.00016594447
  Force max component initial, final = 0.13492333 3.7329871e-05
  Final line search alpha, max atom move = 1.0000000 3.7329871e-05
  Iterations, force evaluations = 179 358

MPI task timing breakdown:
Section |  min time  |  avg time  |  max time  |%varavg| %total
---------------------------------------------------------------
Pair    | 0.54884    | 1.5154     | 1.9641     |  33.1 | 72.63
Neigh   | 0          | 0          | 0          |   0.0 |  0.00
Comm    | 0.036251   | 0.33855    | 1.0229     |  49.4 | 16.23
Output  | 0          | 0          | 0          |   0.0 |  0.00
Modify  | 2.2107e-05 | 0.0029533  | 0.0063797  |   2.6 |  0.14
Other   |            | 0.2296     |            |       | 11.00

Nlocal:        2776.45 ave        3959 max           0 min
Histogram: 8 4 4 0 4 12 8 2 28 34
Nghost:        3878.97 ave        5425 max         232 min
Histogram: 8 0 8 0 16 0 8 8 16 40
Neighs:        79213.6 ave      115391 max           0 min
Histogram: 8 4 4 0 10 6 8 8 24 32

Total # of neighbors = 8238215
Ave neighs/atom = 28.530516
Neighbor list builds = 0
Dangerous builds = 0
The dot product: 2.84759735351954e-07
Setting atom values ...
  1 settings made for x
  1 settings made for y
  1 settings made for z
Setting up cg style minimization ...
  Unit style    : metal
  Current step  : 4548
Per MPI rank memory allocation (min/avg/max) = 5.441 | 5.816 | 6.074 Mbytes
Step PotEng KinEng TotEng v_fx v_fy v_fz 
    4548     -1152449            0     -1152449 0.0066821347  0.018734467 -0.011312893 
    4776     -1152449            0     -1152449 -2.2879492e-06 7.983709e-07 3.0394553e-06 
Loop time of 2.65209 on 104 procs for 228 steps with 288751 atoms

99.9% CPU use with 104 MPI tasks x 1 OpenMP threads

Minimization stats:
  Stopping criterion = energy tolerance
  Energy initial, next-to-last, final = 
      -1152449.0187661  -1152449.02048504  -1152449.02048504
  Force two-norm initial, final = 0.17461591 3.7365162e-05
  Force max component initial, final = 0.13772424 4.3650041e-06
  Final line search alpha, max atom move = 1.0000000 4.3650041e-06
  Iterations, force evaluations = 228 456

MPI task timing breakdown:
Section |  min time  |  avg time  |  max time  |%varavg| %total
---------------------------------------------------------------
Pair    | 0.69739    | 1.9119     | 2.4997     |  37.2 | 72.09
Neigh   | 0          | 0          | 0          |   0.0 |  0.00
Comm    | 0.044751   | 0.42962    | 1.296      |  55.1 | 16.20
Output  | 0          | 0          | 0          |   0.0 |  0.00
Modify  | 2.7255e-05 | 0.0037524  | 0.0080861  |   2.9 |  0.14
Other   |            | 0.3068     |            |       | 11.57

Nlocal:        2776.45 ave        3960 max           0 min
Histogram: 8 4 4 0 4 12 8 2 28 34
Nghost:        3878.97 ave        5425 max         232 min
Histogram: 8 0 8 0 16 0 8 8 16 40
Neighs:        79213.6 ave      115419 max           0 min
Histogram: 8 4 4 0 10 6 8 8 24 32

Total # of neighbors = 8238218
Ave neighs/atom = 28.530526
Neighbor list builds = 0
Dangerous builds = 0
The dot product: -2.55210498081311e-08
Setting atom values ...
  1 settings made for x
  1 settings made for y
  1 settings made for z
Setting up cg style minimization ...
  Unit style    : metal
  Current step  : 4776
Per MPI rank memory allocation (min/avg/max) = 5.441 | 5.816 | 6.074 Mbytes
Step PotEng KinEng TotEng v_fx v_fy v_fz 
    4776     -1152449            0     -1152449 0.0048266913  0.012961932 -0.0076855371 
    4973     -1152449            0     -1152449 1.1107751e-05 -4.2946382e-06 -1.4320955e-05 
Loop time of 2.29025 on 104 procs for 197 steps with 288751 atoms

99.9% CPU use with 104 MPI tasks x 1 OpenMP threads

Minimization stats:
  Stopping criterion = energy tolerance
  Energy initial, next-to-last, final = 
      -1152448.9871478   -1152448.9888309   -1152448.9888309
  Force two-norm initial, final = 0.17495066 0.00010737245
  Force max component initial, final = 0.14002793 2.4537950e-05
  Final line search alpha, max atom move = 1.0000000 2.4537950e-05
  Iterations, force evaluations = 197 394

MPI task timing breakdown:
Section |  min time  |  avg time  |  max time  |%varavg| %total
---------------------------------------------------------------
Pair    | 0.6078     | 1.6646     | 2.1659     |  34.5 | 72.68
Neigh   | 0          | 0          | 0          |   0.0 |  0.00
Comm    | 0.035186   | 0.37354    | 1.1215     |  51.5 | 16.31
Output  | 0          | 0          | 0          |   0.0 |  0.00
Modify  | 2.2873e-05 | 0.0032547  | 0.0070099  |   2.7 |  0.14
Other   |            | 0.2489     |            |       | 10.87

Nlocal:        2776.45 ave        3960 max           0 min
Histogram: 8 4 4 0 4 12 8 2 28 34
Nghost:        3878.97 ave        5425 max         232 min
Histogram: 8 0 8 0 16 0 8 8 16 40
Neighs:        79213.6 ave      115425 max           0 min
Histogram: 8 4 4 0 10 6 8 8 24 32

Total # of neighbors = 8238215
Ave neighs/atom = 28.530516
Neighbor list builds = 0
Dangerous builds = 0
The dot product: 1.0852568499818e-07
Setting atom values ...
  1 settings made for x
  1 settings made for y
  1 settings made for z
Setting up cg style minimization ...
  Unit style    : metal
  Current step  : 4973
Per MPI rank memory allocation (min/avg/max) = 5.441 | 5.816 | 6.074 Mbytes
Step PotEng KinEng TotEng v_fx v_fy v_fz 
    4973     -1152449            0     -1152449 0.0027910966 0.0087686836 -0.0043774261 
    5000     -1152449            0     -1152449 0.00076027179 -4.8907552e-05 -0.00097925186 
    5185     -1152449            0     -1152449 -7.4870828e-06 2.2872525e-06 9.4856982e-06 
Loop time of 2.46071 on 104 procs for 212 steps with 288751 atoms

99.9% CPU use with 104 MPI tasks x 1 OpenMP threads

Minimization stats:
  Stopping criterion = energy tolerance
  Energy initial, next-to-last, final = 
     -1152448.95444547  -1152448.95615302  -1152448.95615302
  Force two-norm initial, final = 0.17563965 8.7080742e-05
  Force max component initial, final = 0.14207973 1.5665596e-05
  Final line search alpha, max atom move = 1.0000000 1.5665596e-05
  Iterations, force evaluations = 212 424

MPI task timing breakdown:
Section |  min time  |  avg time  |  max time  |%varavg| %total
---------------------------------------------------------------
Pair    | 0.6474     | 1.7818     | 2.3249     |  35.9 | 72.41
Neigh   | 0          | 0          | 0          |   0.0 |  0.00
Comm    | 0.046775   | 0.39734    | 1.2096     |  53.6 | 16.15
Output  | 9.4118e-05 | 9.9296e-05 | 0.00019183 |   0.0 |  0.00
Modify  | 2.4927e-05 | 0.0034936  | 0.0075391  |   2.8 |  0.14
Other   |            | 0.278      |            |       | 11.30

Nlocal:        2776.45 ave        3960 max           0 min
Histogram: 8 4 4 0 4 12 8 2 28 34
Nghost:        3878.93 ave        5425 max         232 min
Histogram: 8 0 8 0 16 0 8 8 16 40
Neighs:        79213.6 ave      115416 max           0 min
Histogram: 8 4 4 0 10 6 8 8 24 32

Total # of neighbors = 8238219
Ave neighs/atom = 28.530530
Neighbor list builds = 0
Dangerous builds = 0
The dot product: -7.00320635047335e-08
Setting atom values ...
  1 settings made for x
  1 settings made for y
  1 settings made for z
Setting up cg style minimization ...
  Unit style    : metal
  Current step  : 5185
Per MPI rank memory allocation (min/avg/max) = 5.441 | 5.816 | 6.074 Mbytes
Step PotEng KinEng TotEng v_fx v_fy v_fz 
    5185   -1152448.9            0   -1152448.9 0.0011831136  0.005927055 -0.0019705345 
    5368   -1152448.9            0   -1152448.9 1.4642609e-05 -2.0253704e-06 -1.8355012e-05 
Loop time of 2.12789 on 104 procs for 183 steps with 288751 atoms

99.9% CPU use with 104 MPI tasks x 1 OpenMP threads

Minimization stats:
  Stopping criterion = energy tolerance
  Energy initial, next-to-last, final = 
     -1152448.92085889  -1152448.92256926  -1152448.92256926
  Force two-norm initial, final = 0.17635749 0.00019280778
  Force max component initial, final = 0.14380534 1.8355012e-05
  Final line search alpha, max atom move = 1.0000000 1.8355012e-05
  Iterations, force evaluations = 183 366

MPI task timing breakdown:
Section |  min time  |  avg time  |  max time  |%varavg| %total
---------------------------------------------------------------
Pair    | 0.55932    | 1.5423     | 2.0177     |  33.4 | 72.48
Neigh   | 0          | 0          | 0          |   0.0 |  0.00
Comm    | 0.041814   | 0.34507    | 1.036      |  49.9 | 16.22
Output  | 0          | 0          | 0          |   0.0 |  0.00
Modify  | 2.1231e-05 | 0.0030203  | 0.0064998  |   2.6 |  0.14
Other   |            | 0.2375     |            |       | 11.16

Nlocal:        2776.45 ave        3960 max           0 min
Histogram: 8 4 4 0 4 12 8 2 28 34
Nghost:        3878.97 ave        5426 max         232 min
Histogram: 8 0 8 0 16 0 8 8 16 40
Neighs:        79213.6 ave      115420 max           0 min
Histogram: 8 4 4 0 10 6 8 8 24 32

Total # of neighbors = 8238214
Ave neighs/atom = 28.530512
Neighbor list builds = 0
Dangerous builds = 0
The dot product: 1.26702646756281e-07
Setting atom values ...
  1 settings made for x
  1 settings made for y
  1 settings made for z
Setting up cg style minimization ...
  Unit style    : metal
  Current step  : 5368
Per MPI rank memory allocation (min/avg/max) = 5.441 | 5.816 | 6.074 Mbytes
Step PotEng KinEng TotEng v_fx v_fy v_fz 
    5368   -1152448.9            0   -1152448.9 -0.00085059877 0.0039439019 0.00075791074 
    5563   -1152448.9            0   -1152448.9 1.2204963e-06 -2.4689125e-06 -1.3278086e-06 
Loop time of 2.26005 on 104 procs for 195 steps with 288751 atoms

99.9% CPU use with 104 MPI tasks x 1 OpenMP threads

Minimization stats:
  Stopping criterion = energy tolerance
  Energy initial, next-to-last, final = 
      -1152448.8863607  -1152448.88798294  -1152448.88798294
  Force two-norm initial, final = 0.17721386 0.00010218766
  Force max component initial, final = 0.14538851 1.6241322e-05
  Final line search alpha, max atom move = 1.0000000 1.6241322e-05
  Iterations, force evaluations = 195 390

MPI task timing breakdown:
Section |  min time  |  avg time  |  max time  |%varavg| %total
---------------------------------------------------------------
Pair    | 0.59568    | 1.6381     | 2.1393     |  34.5 | 72.48
Neigh   | 0          | 0          | 0          |   0.0 |  0.00
Comm    | 0.044232   | 0.36719    | 1.1146     |  51.4 | 16.25
Output  | 0          | 0          | 0          |   0.0 |  0.00
Modify  | 2.3042e-05 | 0.0032196  | 0.0069128  |   2.7 |  0.14
Other   |            | 0.2516     |            |       | 11.13

Nlocal:        2776.45 ave        3960 max           0 min
Histogram: 8 4 4 0 4 12 8 2 28 34
Nghost:        3878.96 ave        5426 max         232 min
Histogram: 8 0 8 0 16 0 8 8 16 40
Neighs:        79213.6 ave      115422 max           0 min
Histogram: 8 4 4 0 10 6 8 8 24 32

Total # of neighbors = 8238216
Ave neighs/atom = 28.530519
Neighbor list builds = 0
Dangerous builds = 0
The dot product: 6.12917732055337e-09
Setting atom values ...
  1 settings made for x
  1 settings made for y
  1 settings made for z
Setting up cg style minimization ...
  Unit style    : metal
  Current step  : 5563
Per MPI rank memory allocation (min/avg/max) = 5.441 | 5.816 | 6.074 Mbytes
Step PotEng KinEng TotEng v_fx v_fy v_fz 
    5563   -1152448.9            0   -1152448.9 -0.0036923271 0.0026133066 0.0043210545 
    5739   -1152448.9            0   -1152448.9 4.881537e-05 -8.9887978e-06 -5.8983828e-05 
Loop time of 2.0465 on 104 procs for 176 steps with 288751 atoms

99.9% CPU use with 104 MPI tasks x 1 OpenMP threads

Minimization stats:
  Stopping criterion = energy tolerance
  Energy initial, next-to-last, final = 
     -1152448.85072206  -1152448.85234667  -1152448.85234667
  Force two-norm initial, final = 0.17854681 0.00021780142
  Force max component initial, final = 0.14716159 5.8983828e-05
  Final line search alpha, max atom move = 1.0000000 5.8983828e-05
  Iterations, force evaluations = 176 352

MPI task timing breakdown:
Section |  min time  |  avg time  |  max time  |%varavg| %total
---------------------------------------------------------------
Pair    | 0.54509    | 1.4871     | 1.9406     |  32.6 | 72.67
Neigh   | 0          | 0          | 0          |   0.0 |  0.00
Comm    | 0.034485   | 0.33009    | 1.0007     |  49.0 | 16.13
Output  | 0          | 0          | 0          |   0.0 |  0.00
Modify  | 2.0448e-05 | 0.0029074  | 0.0062665  |   2.5 |  0.14
Other   |            | 0.2264     |            |       | 11.06

Nlocal:        2776.45 ave        3960 max           0 min
Histogram: 8 4 4 0 4 12 8 2 28 34
Nghost:        3878.97 ave        5426 max         232 min
Histogram: 8 0 8 0 16 0 8 8 16 40
Neighs:        79213.6 ave      115426 max           0 min
Histogram: 8 4 4 0 10 6 8 8 24 32

Total # of neighbors = 8238215
Ave neighs/atom = 28.530516
Neighbor list builds = 0
Dangerous builds = 0
The dot product: 2.74874526519633e-07
Setting atom values ...
  1 settings made for x
  1 settings made for y
  1 settings made for z
Setting up cg style minimization ...
  Unit style    : metal
  Current step  : 5739
Per MPI rank memory allocation (min/avg/max) = 5.441 | 5.816 | 6.074 Mbytes
Step PotEng KinEng TotEng v_fx v_fy v_fz 
    5739   -1152448.8            0   -1152448.8 -0.0062389506 0.0019304651 0.0073944756 
    5965   -1152448.8            0   -1152448.8 4.1403149e-06 -8.0759676e-07 -4.9408837e-06 
Loop time of 2.6113 on 104 procs for 226 steps with 288751 atoms

99.9% CPU use with 104 MPI tasks x 1 OpenMP threads

Minimization stats:
  Stopping criterion = energy tolerance
  Energy initial, next-to-last, final = 
     -1152448.81408097  -1152448.81584055  -1152448.81584055
  Force two-norm initial, final = 0.1797336 5.2154822e-05
  Force max component initial, final = 0.14868739 4.9408837e-06
  Final line search alpha, max atom move = 1.0000000 4.9408837e-06
  Iterations, force evaluations = 226 452

MPI task timing breakdown:
Section |  min time  |  avg time  |  max time  |%varavg| %total
---------------------------------------------------------------
Pair    | 0.69799    | 1.8941     | 2.4712     |  36.8 | 72.53
Neigh   | 0          | 0          | 0          |   0.0 |  0.00
Comm    | 0.046827   | 0.42243    | 1.2789     |  55.0 | 16.18
Output  | 0          | 0          | 0          |   0.0 |  0.00
Modify  | 2.6931e-05 | 0.0037181  | 0.0079769  |   2.9 |  0.14
Other   |            | 0.2911     |            |       | 11.15

Nlocal:        2776.45 ave        3960 max           0 min
Histogram: 8 4 4 0 4 12 8 2 28 34
Nghost:        3878.97 ave        5426 max         232 min
Histogram: 8 0 8 0 16 0 8 8 16 40
Neighs:        79213.6 ave      115426 max           0 min
Histogram: 8 4 4 0 10 6 8 8 24 32

Total # of neighbors = 8238213
Ave neighs/atom = 28.530509
Neighbor list builds = 0
Dangerous builds = 0
The dot product: 2.03207956589126e-08
Setting atom values ...
  1 settings made for x
  1 settings made for y
  1 settings made for z
Setting up cg style minimization ...
  Unit style    : metal
  Current step  : 5965
Per MPI rank memory allocation (min/avg/max) = 5.441 | 5.816 | 6.074 Mbytes
Step PotEng KinEng TotEng v_fx v_fy v_fz 
    5965   -1152448.8            0   -1152448.8 -0.0083603872 0.0017408587 0.0098697083 
    6000   -1152448.8            0   -1152448.8 0.00039429663 -0.0001599346 -0.00045996888 
    6150   -1152448.8            0   -1152448.8 -2.0808435e-05 -6.9101456e-07 2.4920764e-05 
Loop time of 2.15264 on 104 procs for 185 steps with 288751 atoms

99.9% CPU use with 104 MPI tasks x 1 OpenMP threads

Minimization stats:
  Stopping criterion = energy tolerance
  Energy initial, next-to-last, final = 
     -1152448.77673831  -1152448.77835564  -1152448.77835564
  Force two-norm initial, final = 0.1803749 0.00015763123
  Force max component initial, final = 0.14980413 4.0733381e-05
  Final line search alpha, max atom move = 1.0000000 4.0733381e-05
  Iterations, force evaluations = 185 370

MPI task timing breakdown:
Section |  min time  |  avg time  |  max time  |%varavg| %total
---------------------------------------------------------------
Pair    | 0.56573    | 1.5641     | 2.0416     |  33.7 | 72.66
Neigh   | 0          | 0          | 0          |   0.0 |  0.00
Comm    | 0.035975   | 0.35145    | 1.046      |  50.1 | 16.33
Output  | 9.3017e-05 | 9.7589e-05 | 0.00019021 |   0.0 |  0.00
Modify  | 2.2687e-05 | 0.0030516  | 0.0066346  |   2.6 |  0.14
Other   |            | 0.234      |            |       | 10.87

Nlocal:        2776.45 ave        3960 max           0 min
Histogram: 8 4 4 0 4 12 8 2 28 34
Nghost:        3878.94 ave        5426 max         232 min
Histogram: 8 0 8 0 16 0 8 8 16 40
Neighs:        79213.6 ave      115438 max           0 min
Histogram: 8 4 4 0 10 6 8 8 24 32

Total # of neighbors = 8238215
Ave neighs/atom = 28.530516
Neighbor list builds = 0
Dangerous builds = 0
The dot product: -6.65062380065002e-08
Setting atom values ...
  1 settings made for x
  1 settings made for y
  1 settings made for z
Setting up cg style minimization ...
  Unit style    : metal
  Current step  : 6150
Per MPI rank memory allocation (min/avg/max) = 5.441 | 5.816 | 6.074 Mbytes
Step PotEng KinEng TotEng v_fx v_fy v_fz 
    6150   -1152448.7            0   -1152448.7 -0.011556766 0.0020558221  0.013580889 
    6378   -1152448.7            0   -1152448.7 6.5830857e-06 -6.3179316e-07 -7.7743993e-06 
Loop time of 2.68245 on 104 procs for 228 steps with 288751 atoms

99.9% CPU use with 104 MPI tasks x 1 OpenMP threads

Minimization stats:
  Stopping criterion = energy tolerance
  Energy initial, next-to-last, final = 
     -1152448.73824418  -1152448.73989065  -1152448.73989065
  Force two-norm initial, final = 0.18131899 4.9622307e-05
  Force max component initial, final = 0.15113041 7.7743993e-06
  Final line search alpha, max atom move = 1.0000000 7.7743993e-06
  Iterations, force evaluations = 228 456

MPI task timing breakdown:
Section |  min time  |  avg time  |  max time  |%varavg| %total
---------------------------------------------------------------
Pair    | 0.70004    | 1.9169     | 2.504      |  37.2 | 71.46
Neigh   | 0          | 0          | 0          |   0.0 |  0.00
Comm    | 0.052099   | 0.4342     | 1.2979     |  54.7 | 16.19
Output  | 0          | 0          | 0          |   0.0 |  0.00
Modify  | 2.7091e-05 | 0.0037548  | 0.0080636  |   2.9 |  0.14
Other   |            | 0.3276     |            |       | 12.21

Nlocal:        2776.45 ave        3960 max           0 min
Histogram: 8 4 4 0 4 12 8 2 28 34
Nghost:        3878.89 ave        5425 max         232 min
Histogram: 8 0 8 0 16 0 8 8 16 40
Neighs:        79213.6 ave      115438 max           0 min
Histogram: 8 4 4 0 10 6 8 8 24 32

Total # of neighbors = 8238213
Ave neighs/atom = 28.530509
Neighbor list builds = 0
Dangerous builds = 0
The dot product: 1.2099525070212e-08
Setting atom values ...
  1 settings made for x
  1 settings made for y
  1 settings made for z
Setting up cg style minimization ...
  Unit style    : metal
  Current step  : 6378
Per MPI rank memory allocation (min/avg/max) = 5.441 | 5.816 | 6.074 Mbytes
Step PotEng KinEng TotEng v_fx v_fy v_fz 
    6378   -1152448.7            0   -1152448.7 -0.014249137 0.0027496063  0.016669055 
    6542   -1152448.7            0   -1152448.7 -7.7853362e-06 2.8336751e-06 9.0118857e-06 
Loop time of 1.92532 on 104 procs for 164 steps with 288751 atoms

99.9% CPU use with 104 MPI tasks x 1 OpenMP threads

Minimization stats:
  Stopping criterion = energy tolerance
  Energy initial, next-to-last, final = 
     -1152448.69891955  -1152448.70080516  -1152448.70080516
  Force two-norm initial, final = 0.18151573 0.00012720954
  Force max component initial, final = 0.15207247 1.2050391e-05
  Final line search alpha, max atom move = 1.0000000 1.2050391e-05
  Iterations, force evaluations = 164 328

MPI task timing breakdown:
Section |  min time  |  avg time  |  max time  |%varavg| %total
---------------------------------------------------------------
Pair    | 0.5015     | 1.3878     | 1.8062     |  31.6 | 72.08
Neigh   | 0          | 0          | 0          |   0.0 |  0.00
Comm    | 0.037051   | 0.31298    | 0.93714    |  47.1 | 16.26
Output  | 0          | 0          | 0          |   0.0 |  0.00
Modify  | 1.9844e-05 | 0.0027086  | 0.0058668  |   2.5 |  0.14
Other   |            | 0.2219     |            |       | 11.52

Nlocal:        2776.45 ave        3959 max           0 min
Histogram: 8 4 4 0 4 12 8 2 28 34
Nghost:        3878.93 ave        5426 max         232 min
Histogram: 8 0 8 0 16 0 8 8 16 40
Neighs:        79213.6 ave      115395 max           0 min
Histogram: 8 4 4 0 10 6 8 8 24 32

Total # of neighbors = 8238215
Ave neighs/atom = 28.530516
Neighbor list builds = 0
Dangerous builds = 0
The dot product: -8.87703427152694e-09
Setting atom values ...
  1 settings made for x
  1 settings made for y
  1 settings made for z
Setting up cg style minimization ...
  Unit style    : metal
  Current step  : 6542
Per MPI rank memory allocation (min/avg/max) = 5.441 | 5.816 | 6.074 Mbytes
Step PotEng KinEng TotEng v_fx v_fy v_fz 
    6542   -1152448.7            0   -1152448.7 -0.016341598 0.0032981482  0.019069895 
    6688   -1152448.7            0   -1152448.7 2.4051499e-05 -1.1439337e-06 -2.8339724e-05 
Loop time of 1.70563 on 104 procs for 146 steps with 288751 atoms

99.9% CPU use with 104 MPI tasks x 1 OpenMP threads

Minimization stats:
  Stopping criterion = energy tolerance
  Energy initial, next-to-last, final = 
     -1152448.65946188  -1152448.66125287  -1152448.66125287
  Force two-norm initial, final = 0.18021275 0.00012711897
  Force max component initial, final = 0.15191075 2.8339724e-05
  Final line search alpha, max atom move = 1.0000000 2.8339724e-05
  Iterations, force evaluations = 146 292

MPI task timing breakdown:
Section |  min time  |  avg time  |  max time  |%varavg| %total
---------------------------------------------------------------
Pair    | 0.44583    | 1.2272     | 1.6012     |  29.8 | 71.95
Neigh   | 0          | 0          | 0          |   0.0 |  0.00
Comm    | 0.032142   | 0.27641    | 0.82899    |  44.1 | 16.21
Output  | 0          | 0          | 0          |   0.0 |  0.00
Modify  | 1.7072e-05 | 0.0024051  | 0.0051775  |   2.3 |  0.14
Other   |            | 0.1996     |            |       | 11.70

Nlocal:        2776.45 ave        3959 max           0 min
Histogram: 8 4 4 0 4 12 8 2 28 34
Nghost:        3878.92 ave        5426 max         232 min
Histogram: 8 0 8 0 16 0 8 8 16 40
Neighs:        79213.5 ave      115399 max           0 min
Histogram: 8 4 4 0 10 6 8 8 24 32

Total # of neighbors = 8238200
Ave neighs/atom = 28.530464
Neighbor list builds = 0
Dangerous builds = 0
The dot product: -2.1327877061605e-08
Setting atom values ...
  1 settings made for x
  1 settings made for y
  1 settings made for z
Setting up cg style minimization ...
  Unit style    : metal
  Current step  : 6688
Per MPI rank memory allocation (min/avg/max) = 5.441 | 5.816 | 6.074 Mbytes
Step PotEng KinEng TotEng v_fx v_fy v_fz 
    6688   -1152448.6            0   -1152448.6 -0.019193426 0.0037395411  0.022436962 
    6891   -1152448.6            0   -1152448.6 3.2479663e-05 -5.6152092e-06 -3.8022699e-05 
Loop time of 2.34704 on 104 procs for 203 steps with 288751 atoms

99.9% CPU use with 104 MPI tasks x 1 OpenMP threads

Minimization stats:
  Stopping criterion = energy tolerance
  Energy initial, next-to-last, final = 
     -1152448.61982698  -1152448.62197696  -1152448.62197696
  Force two-norm initial, final = 0.17910869 0.00016953063
  Force max component initial, final = 0.15119666 4.2021448e-05
  Final line search alpha, max atom move = 1.0000000 4.2021448e-05
  Iterations, force evaluations = 203 406

MPI task timing breakdown:
Section |  min time  |  avg time  |  max time  |%varavg| %total
---------------------------------------------------------------
Pair    | 0.62339    | 1.7085     | 2.2194     |  35.0 | 72.79
Neigh   | 0          | 0          | 0          |   0.0 |  0.00
Comm    | 0.036922   | 0.37804    | 1.151      |  52.6 | 16.11
Output  | 0          | 0          | 0          |   0.0 |  0.00
Modify  | 2.3937e-05 | 0.0033465  | 0.0072017  |   2.7 |  0.14
Other   |            | 0.2572     |            |       | 10.96

Nlocal:        2776.45 ave        3958 max           0 min
Histogram: 8 4 4 0 4 12 8 2 28 34
Nghost:        3878.90 ave        5426 max         232 min
Histogram: 8 0 8 0 16 0 8 8 16 40
Neighs:        79213.5 ave      115377 max           0 min
Histogram: 8 4 4 0 10 6 8 8 24 32

Total # of neighbors = 8238201
Ave neighs/atom = 28.530467
Neighbor list builds = 0
Dangerous builds = 0
The dot product: -2.50523635830781e-08
Setting atom values ...
  1 settings made for x
  1 settings made for y
  1 settings made for z
Setting up cg style minimization ...
  Unit style    : metal
  Current step  : 6891
Per MPI rank memory allocation (min/avg/max) = 5.441 | 5.816 | 6.074 Mbytes
Step PotEng KinEng TotEng v_fx v_fy v_fz 
    6891   -1152448.6            0   -1152448.6 -0.021491207 0.00085620741  0.025420476 
    7000   -1152448.6            0   -1152448.6 -0.00074680316 -8.1348944e-05 0.00089215967 
    7142   -1152448.6            0   -1152448.6 -1.9026255e-05 2.0374413e-06 2.2403314e-05 
Loop time of 2.90328 on 104 procs for 251 steps with 288751 atoms

99.9% CPU use with 104 MPI tasks x 1 OpenMP threads

Minimization stats:
  Stopping criterion = energy tolerance
  Energy initial, next-to-last, final = 
     -1152448.58158676  -1152448.58609568  -1152448.58609568
  Force two-norm initial, final = 0.17840827 0.00013589481
  Force max component initial, final = 0.14826512 2.6419209e-05
  Final line search alpha, max atom move = 1.0000000 2.6419209e-05
  Iterations, force evaluations = 251 502

MPI task timing breakdown:
Section |  min time  |  avg time  |  max time  |%varavg| %total
---------------------------------------------------------------
Pair    | 0.77014    | 2.1073     | 2.7477     |  39.0 | 72.58
Neigh   | 1.0771e-05 | 0.0029548  | 0.0042703  |   2.2 |  0.10
Comm    | 0.052555   | 0.47031    | 1.4319     |  58.5 | 16.20
Output  | 9.7044e-05 | 0.00010537 | 0.00023717 |   0.0 |  0.00
Modify  | 2.9604e-05 | 0.0041325  | 0.0088746  |   3.0 |  0.14
Other   |            | 0.3185     |            |       | 10.97

Nlocal:        2776.45 ave        3955 max           0 min
Histogram: 8 4 4 0 4 12 8 0 30 34
Nghost:        3878.97 ave        5425 max         232 min
Histogram: 8 0 8 0 16 0 8 8 16 40
Neighs:        79213.4 ave      115304 max           0 min
Histogram: 8 4 4 0 10 6 8 8 24 32

Total # of neighbors = 8238196
Ave neighs/atom = 28.530450
Neighbor list builds = 1
Dangerous builds = 0
The dot product: -3.6804736421678e-07
Setting atom values ...
  1 settings made for x
  1 settings made for y
  1 settings made for z
Setting up cg style minimization ...
  Unit style    : metal
  Current step  : 7142
Per MPI rank memory allocation (min/avg/max) = 5.441 | 5.816 | 6.074 Mbytes
Step PotEng KinEng TotEng v_fx v_fy v_fz 
    7142   -1152448.6            0   -1152448.6  -0.01171137 -0.0012436484  0.013548194 
    7388   -1152448.6            0   -1152448.6 -3.871845e-06 4.9170293e-07  4.40308e-06 
Loop time of 2.86892 on 104 procs for 246 steps with 288751 atoms

99.9% CPU use with 104 MPI tasks x 1 OpenMP threads

Minimization stats:
  Stopping criterion = energy tolerance
  Energy initial, next-to-last, final = 
     -1152448.55848165  -1152448.56157972  -1152448.56157972
  Force two-norm initial, final = 0.18442216 2.0687337e-05
  Force max component initial, final = 0.14848718 5.5748592e-06
  Final line search alpha, max atom move = 1.0000000 5.5748592e-06
  Iterations, force evaluations = 246 492

MPI task timing breakdown:
Section |  min time  |  avg time  |  max time  |%varavg| %total
---------------------------------------------------------------
Pair    | 0.75247    | 2.0747     | 2.715      |  38.7 | 72.32
Neigh   | 0          | 0          | 0          |   0.0 |  0.00
Comm    | 0.053314   | 0.46466    | 1.3924     |  57.9 | 16.20
Output  | 0          | 0          | 0          |   0.0 |  0.00
Modify  | 3.0234e-05 | 0.0040555  | 0.0087704  |   3.0 |  0.14
Other   |            | 0.3255     |            |       | 11.35

Nlocal:        2776.45 ave        3957 max           0 min
Histogram: 8 4 4 0 4 12 8 2 28 34
Nghost:        3879.03 ave        5426 max         232 min
Histogram: 8 0 8 0 16 0 8 8 16 40
Neighs:        79213.5 ave      115352 max           0 min
Histogram: 8 4 4 0 10 6 8 8 24 32

Total # of neighbors = 8238199
Ave neighs/atom = 28.530461
Neighbor list builds = 0
Dangerous builds = 0
The dot product: -3.5935738160233e-08
Setting atom values ...
  1 settings made for x
  1 settings made for y
  1 settings made for z
Setting up cg style minimization ...
  Unit style    : metal
  Current step  : 7388
Per MPI rank memory allocation (min/avg/max) = 5.441 | 5.816 | 6.074 Mbytes
Step PotEng KinEng TotEng v_fx v_fy v_fz 
    7388   -1152448.5            0   -1152448.5 -0.024693183 0.0041726291  0.027550309 
    7597   -1152448.5            0   -1152448.5 -1.3441537e-05 2.6405137e-06 1.4965115e-05 
[...]
Histogram: 8 0 8 0 16 0 8 8 16 40
Neighs:        79213.2 ave      115491 max           0 min
Histogram: 8 4 4 0 10 6 8 8 24 32

Total # of neighbors = 8238174
Ave neighs/atom = 28.530374
Neighbor list builds = 0
Dangerous builds = 0
The dot product: 1.79290115448198e-09
Setting atom values ...
  1 settings made for x
  1 settings made for y
  1 settings made for z
Setting up cg style minimization ...
  Unit style    : metal
  Current step  : 27494
Per MPI rank memory allocation (min/avg/max) = 5.441 | 5.816 | 6.074 Mbytes
Step PotEng KinEng TotEng v_fx v_fy v_fz 
   27494   -1152449.1            0   -1152449.1 0.00076787856 0.0083310587 -0.010869995 
   27648   -1152449.1            0   -1152449.1 2.0797958e-05 -5.4631349e-06 -8.1701389e-06 
Loop time of 1.78161 on 104 procs for 154 steps with 288751 atoms

99.9% CPU use with 104 MPI tasks x 1 OpenMP threads

Minimization stats:
  Stopping criterion = energy tolerance
  Energy initial, next-to-last, final = 
     -1152449.12556409  -1152449.12691219  -1152449.12691219
  Force two-norm initial, final = 0.16244306 0.0002158157
  Force max component initial, final = 0.093635376 5.4198418e-05
  Final line search alpha, max atom move = 1.0000000 5.4198418e-05
  Iterations, force evaluations = 154 308

MPI task timing breakdown:
Section |  min time  |  avg time  |  max time  |%varavg| %total
---------------------------------------------------------------
Pair    | 0.46862    | 1.2948     | 1.6838     |  30.7 | 72.68
Neigh   | 0          | 0          | 0          |   0.0 |  0.00
Comm    | 0.025688   | 0.29186    | 0.89175    |  45.3 | 16.38
Output  | 0          | 0          | 0          |   0.0 |  0.00
Modify  | 1.904e-05  | 0.0025383  | 0.0054626  |   2.4 |  0.14
Other   |            | 0.1924     |            |       | 10.80

Nlocal:        2776.45 ave        3961 max           0 min
Histogram: 8 4 4 0 6 10 8 4 26 34
Nghost:        3879.09 ave        5424 max         232 min
Histogram: 8 0 8 0 16 0 8 8 16 40
Neighs:        79213.2 ave      115490 max           0 min
Histogram: 8 4 4 0 10 6 8 8 24 32

Total # of neighbors = 8238174
Ave neighs/atom = 28.530374
Neighbor list builds = 0
Dangerous builds = 0
The dot product: -2.18058304776517e-08
Setting atom values ...
  1 settings made for x
  1 settings made for y
  1 settings made for z
Setting up cg style minimization ...
  Unit style    : metal
  Current step  : 27648
Per MPI rank memory allocation (min/avg/max) = 5.441 | 5.816 | 6.074 Mbytes
Step PotEng KinEng TotEng v_fx v_fy v_fz 
   27648   -1152449.1            0   -1152449.1 0.00093909461 0.0072736381 -0.0096956204 
   27795   -1152449.1            0   -1152449.1 2.3853425e-05 -1.6129437e-05 2.8772052e-06 
Loop time of 1.71479 on 104 procs for 147 steps with 288751 atoms

99.9% CPU use with 104 MPI tasks x 1 OpenMP threads

Minimization stats:
  Stopping criterion = energy tolerance
  Energy initial, next-to-last, final = 
     -1152449.10682564  -1152449.10818477  -1152449.10818477
  Force two-norm initial, final = 0.16200703 0.00024329862
  Force max component initial, final = 0.094490195 3.4819730e-05
  Final line search alpha, max atom move = 1.0000000 3.4819730e-05
  Iterations, force evaluations = 147 294

MPI task timing breakdown:
Section |  min time  |  avg time  |  max time  |%varavg| %total
---------------------------------------------------------------
Pair    | 0.44848    | 1.2387     | 1.6138     |  30.0 | 72.24
Neigh   | 0          | 0          | 0          |   0.0 |  0.00
Comm    | 0.02533    | 0.28015    | 0.84181    |  43.9 | 16.34
Output  | 0          | 0          | 0          |   0.0 |  0.00
Modify  | 1.823e-05  | 0.0024238  | 0.0052172  |   2.3 |  0.14
Other   |            | 0.1935     |            |       | 11.29

Nlocal:        2776.45 ave        3961 max           0 min
Histogram: 8 4 4 0 6 10 8 4 26 34
Nghost:        3879.09 ave        5424 max         232 min
Histogram: 8 0 8 0 16 0 8 8 16 40
Neighs:        79213.2 ave      115482 max           0 min
Histogram: 8 4 4 0 10 6 8 8 24 32

Total # of neighbors = 8238172
Ave neighs/atom = 28.530367
Neighbor list builds = 0
Dangerous builds = 0
The dot product: -5.42529492152835e-08
Setting atom values ...
  1 settings made for x
  1 settings made for y
  1 settings made for z
Setting up cg style minimization ...
  Unit style    : metal
  Current step  : 27795
Per MPI rank memory allocation (min/avg/max) = 5.441 | 5.816 | 6.074 Mbytes
Step PotEng KinEng TotEng v_fx v_fy v_fz 
   27795   -1152449.1            0   -1152449.1 0.0010895637 0.0061205574 -0.008382549 
   27979   -1152449.1            0   -1152449.1 1.6486641e-05 2.7773651e-06 -1.5283122e-05 
Loop time of 2.12513 on 104 procs for 184 steps with 288751 atoms

99.9% CPU use with 104 MPI tasks x 1 OpenMP threads

Minimization stats:
  Stopping criterion = energy tolerance
  Energy initial, next-to-last, final = 
     -1152449.08703443  -1152449.08843102  -1152449.08843102
  Force two-norm initial, final = 0.16180367 8.4119981e-05
  Force max component initial, final = 0.0953894 2.2325653e-05
  Final line search alpha, max atom move = 1.0000000 2.2325653e-05
  Iterations, force evaluations = 184 368

MPI task timing breakdown:
Section |  min time  |  avg time  |  max time  |%varavg| %total
---------------------------------------------------------------
Pair    | 0.56083    | 1.5469     | 2.0149     |  33.7 | 72.79
Neigh   | 0          | 0          | 0          |   0.0 |  0.00
Comm    | 0.03171    | 0.34859    | 1.064      |  49.9 | 16.40
Output  | 0          | 0          | 0          |   0.0 |  0.00
Modify  | 2.263e-05  | 0.0030295  | 0.006501   |   2.6 |  0.14
Other   |            | 0.2266     |            |       | 10.66

Nlocal:        2776.45 ave        3961 max           0 min
Histogram: 8 4 4 0 6 10 8 4 26 34
Nghost:        3879.12 ave        5425 max         232 min
Histogram: 8 0 8 0 16 0 8 8 16 40
Neighs:        79213.2 ave      115479 max           0 min
Histogram: 8 4 4 0 10 6 8 8 24 32

Total # of neighbors = 8238172
Ave neighs/atom = 28.530367
Neighbor list builds = 0
Dangerous builds = 0
The dot product: -2.61768126302137e-09
Setting atom values ...
  1 settings made for x
  1 settings made for y
  1 settings made for z
Setting up cg style minimization ...
  Unit style    : metal
  Current step  : 27979
Per MPI rank memory allocation (min/avg/max) = 5.441 | 5.816 | 6.074 Mbytes
Step PotEng KinEng TotEng v_fx v_fy v_fz 
   27979   -1152449.1            0   -1152449.1 0.0012000664 0.0051944885 -0.0073193603 
   28000   -1152449.1            0   -1152449.1 -0.00015625906 -0.00026445522 0.0004409098 
   28172   -1152449.1            0   -1152449.1 -1.2200652e-05 -2.0243424e-06 1.1270402e-05 
Loop time of 2.23744 on 104 procs for 193 steps with 288751 atoms

99.9% CPU use with 104 MPI tasks x 1 OpenMP threads

Minimization stats:
  Stopping criterion = energy tolerance
  Energy initial, next-to-last, final = 
     -1152449.06623632  -1152449.06762243  -1152449.06762243
  Force two-norm initial, final = 0.16182186 7.5539189e-05
  Force max component initial, final = 0.096114157 1.4127794e-05
  Final line search alpha, max atom move = 1.0000000 1.4127794e-05
  Iterations, force evaluations = 193 386

MPI task timing breakdown:
Section |  min time  |  avg time  |  max time  |%varavg| %total
---------------------------------------------------------------
Pair    | 0.58969    | 1.6189     | 2.1187     |  34.3 | 72.36
Neigh   | 0          | 0          | 0          |   0.0 |  0.00
Comm    | 0.03583    | 0.3669     | 1.1077     |  50.5 | 16.40
Output  | 9.1148e-05 | 9.7354e-05 | 0.00020046 |   0.0 |  0.00
Modify  | 2.3785e-05 | 0.0031759  | 0.0068486  |   2.7 |  0.14
Other   |            | 0.2484     |            |       | 11.10

Nlocal:        2776.45 ave        3961 max           0 min
Histogram: 8 4 4 0 6 10 8 4 26 34
Nghost:        3879.16 ave        5425 max         232 min
Histogram: 8 0 8 0 16 0 8 8 16 40
Neighs:        79213.2 ave      115476 max           0 min
Histogram: 8 4 4 0 10 6 8 8 24 32

Total # of neighbors = 8238171
Ave neighs/atom = 28.530364
Neighbor list builds = 0
Dangerous builds = 0
The dot product: 1.80206172508931e-09
Setting atom values ...
  1 settings made for x
  1 settings made for y
  1 settings made for z
Setting up cg style minimization ...
  Unit style    : metal
  Current step  : 28172
Per MPI rank memory allocation (min/avg/max) = 5.441 | 5.816 | 6.074 Mbytes
Step PotEng KinEng TotEng v_fx v_fy v_fz 
   28172     -1152449            0     -1152449  0.001149577 0.0043005981 -0.0061772075 
   28341     -1152449            0     -1152449 -3.6206116e-05 2.3528842e-06 2.3036979e-05 
Loop time of 1.95558 on 104 procs for 169 steps with 288751 atoms

99.9% CPU use with 104 MPI tasks x 1 OpenMP threads

Minimization stats:
  Stopping criterion = energy tolerance
  Energy initial, next-to-last, final = 
      -1152449.0442779  -1152449.04563094  -1152449.04563094
  Force two-norm initial, final = 0.16193662 0.00020121801
  Force max component initial, final = 0.096815513 5.0106095e-05
  Final line search alpha, max atom move = 1.0000000 5.0106095e-05
  Iterations, force evaluations = 169 338

MPI task timing breakdown:
Section |  min time  |  avg time  |  max time  |%varavg| %total
---------------------------------------------------------------
Pair    | 0.51586    | 1.4207     | 1.8483     |  32.2 | 72.65
Neigh   | 0          | 0          | 0          |   0.0 |  0.00
Comm    | 0.029229   | 0.31992    | 0.97915    |  47.8 | 16.36
Output  | 0          | 0          | 0          |   0.0 |  0.00
Modify  | 2.0807e-05 | 0.0028554  | 0.011784   |   2.9 |  0.15
Other   |            | 0.2121     |            |       | 10.85

Nlocal:        2776.45 ave        3960 max           0 min
Histogram: 8 4 4 0 4 12 8 4 26 34
Nghost:        3879.16 ave        5425 max         232 min
Histogram: 8 0 8 0 16 0 8 8 16 40
Neighs:        79213.2 ave      115447 max           0 min
Histogram: 8 4 4 0 10 6 8 8 24 32

Total # of neighbors = 8238170
Ave neighs/atom = 28.530360
Neighbor list builds = 0
Dangerous builds = 0
The dot product: 2.30881161953871e-08
Setting atom values ...
  1 settings made for x
  1 settings made for y
  1 settings made for z
Setting up cg style minimization ...
  Unit style    : metal
  Current step  : 28341
Per MPI rank memory allocation (min/avg/max) = 5.441 | 5.816 | 6.074 Mbytes
Step PotEng KinEng TotEng v_fx v_fy v_fz 
   28341     -1152449            0     -1152449 0.00081243852 0.0035275642 -0.0049769727 
   28520     -1152449            0     -1152449 -2.256928e-05 -4.8828983e-06 2.2262539e-05 
Loop time of 2.07841 on 104 procs for 179 steps with 288751 atoms

99.9% CPU use with 104 MPI tasks x 1 OpenMP threads

Minimization stats:
  Stopping criterion = energy tolerance
  Energy initial, next-to-last, final = 
      -1152449.0210162   -1152449.0223489   -1152449.0223489
  Force two-norm initial, final = 0.16220039 0.0001351744
  Force max component initial, final = 0.097497447 2.9764791e-05
  Final line search alpha, max atom move = 1.0000000 2.9764791e-05
  Iterations, force evaluations = 179 358

MPI task timing breakdown:
Section |  min time  |  avg time  |  max time  |%varavg| %total
---------------------------------------------------------------
Pair    | 0.54628    | 1.5007     | 1.964      |  33.1 | 72.20
Neigh   | 0          | 0          | 0          |   0.0 |  0.00
Comm    | 0.030998   | 0.3399     | 1.0267     |  48.5 | 16.35
Output  | 0          | 0          | 0          |   0.0 |  0.00
Modify  | 2.2347e-05 | 0.0029447  | 0.0063168  |   2.6 |  0.14
Other   |            | 0.2349     |            |       | 11.30

Nlocal:        2776.45 ave        3960 max           0 min
Histogram: 8 4 4 0 4 12 8 4 26 34
Nghost:        3879.16 ave        5425 max         232 min
Histogram: 8 0 8 0 16 0 8 8 16 40
Neighs:        79213.2 ave      115448 max           0 min
Histogram: 8 4 4 0 10 6 8 8 24 32

Total # of neighbors = 8238171
Ave neighs/atom = 28.530364
Neighbor list builds = 0
Dangerous builds = 0
The dot product: 4.91257589353011e-09
Setting atom values ...
  1 settings made for x
  1 settings made for y
  1 settings made for z
Setting up cg style minimization ...
  Unit style    : metal
  Current step  : 28520
Per MPI rank memory allocation (min/avg/max) = 5.441 | 5.816 | 6.074 Mbytes
Step PotEng KinEng TotEng v_fx v_fy v_fz 
   28520     -1152449            0     -1152449 0.00021671247 0.0028426074 -0.0036991163 
   28752     -1152449            0     -1152449 5.5329424e-07 1.9225939e-06 -2.7933365e-06 
Loop time of 2.68164 on 104 procs for 232 steps with 288751 atoms

99.9% CPU use with 104 MPI tasks x 1 OpenMP threads

Minimization stats:
  Stopping criterion = energy tolerance
  Energy initial, next-to-last, final = 
     -1152448.99636304  -1152448.99767744  -1152448.99767744
  Force two-norm initial, final = 0.16261111 1.9713863e-05
  Force max component initial, final = 0.09807978 4.9053575e-06
  Final line search alpha, max atom move = 1.0000000 4.9053575e-06
  Iterations, force evaluations = 232 464

MPI task timing breakdown:
Section |  min time  |  avg time  |  max time  |%varavg| %total
---------------------------------------------------------------
Pair    | 0.70534    | 1.95       | 2.5387     |  37.8 | 72.72
Neigh   | 0          | 0          | 0          |   0.0 |  0.00
Comm    | 0.039062   | 0.44282    | 1.3438     |  55.5 | 16.51
Output  | 0          | 0          | 0          |   0.0 |  0.00
Modify  | 2.8068e-05 | 0.00383    | 0.0083061  |   2.9 |  0.14
Other   |            | 0.285      |            |       | 10.63

Nlocal:        2776.45 ave        3960 max           0 min
Histogram: 8 4 4 0 4 12 8 4 26 34
Nghost:        3879.16 ave        5425 max         232 min
Histogram: 8 0 8 0 16 0 8 8 16 40
Neighs:        79213.2 ave      115450 max           0 min
Histogram: 8 4 4 0 10 6 8 8 24 32

Total # of neighbors = 8238173
Ave neighs/atom = 28.530370
Neighbor list builds = 0
Dangerous builds = 0
The dot product: 1.89540715496542e-09
Setting atom values ...
  1 settings made for x
  1 settings made for y
  1 settings made for z
Setting up cg style minimization ...
  Unit style    : metal
  Current step  : 28752
Per MPI rank memory allocation (min/avg/max) = 5.441 | 5.816 | 6.074 Mbytes
Step PotEng KinEng TotEng v_fx v_fy v_fz 
   28752     -1152449            0     -1152449 -0.00057271301 0.0022528115 -0.0023998711 
   28937     -1152449            0     -1152449 -3.1676637e-05 -1.9764805e-06 2.5150191e-05 
Loop time of 2.15813 on 104 procs for 185 steps with 288751 atoms

99.9% CPU use with 104 MPI tasks x 1 OpenMP threads

Minimization stats:
  Stopping criterion = energy tolerance
  Energy initial, next-to-last, final = 
     -1152448.97021709  -1152448.97151703  -1152448.97151703
  Force two-norm initial, final = 0.16327999 0.00011833508
  Force max component initial, final = 0.098684995 3.1676637e-05
  Final line search alpha, max atom move = 1.0000000 3.1676637e-05
  Iterations, force evaluations = 185 370

MPI task timing breakdown:
Section |  min time  |  avg time  |  max time  |%varavg| %total
---------------------------------------------------------------
Pair    | 0.56249    | 1.551      | 2.047      |  33.7 | 71.87
Neigh   | 0          | 0          | 0          |   0.0 |  0.00
Comm    | 0.031361   | 0.35275    | 1.0598     |  49.0 | 16.35
Output  | 0          | 0          | 0          |   0.0 |  0.00
Modify  | 2.2755e-05 | 0.0030399  | 0.0065269  |   2.6 |  0.14
Other   |            | 0.2513     |            |       | 11.65

Nlocal:        2776.45 ave        3960 max           0 min
Histogram: 8 4 4 0 4 12 8 4 26 34
Nghost:        3879.12 ave        5425 max         232 min
Histogram: 8 0 8 0 16 0 8 8 16 40
Neighs:        79213.2 ave      115448 max           0 min
Histogram: 8 4 4 0 10 6 8 8 24 32

Total # of neighbors = 8238171
Ave neighs/atom = 28.530364
Neighbor list builds = 0
Dangerous builds = 0
The dot product: 3.16037921988427e-08
Setting atom values ...
  1 settings made for x
  1 settings made for y
  1 settings made for z
Setting up cg style minimization ...
  Unit style    : metal
  Current step  : 28937
Per MPI rank memory allocation (min/avg/max) = 5.441 | 5.816 | 6.074 Mbytes
Step PotEng KinEng TotEng v_fx v_fy v_fz 
   28937   -1152448.9            0   -1152448.9 -0.0014502556 0.0017382288 -0.001131111 
   29000   -1152448.9            0   -1152448.9 0.00032769673 3.6494155e-05 -0.00028002864 
   29204   -1152448.9            0   -1152448.9 8.5976923e-07 7.1489463e-08 -7.0443409e-07 
Loop time of 3.07884 on 104 procs for 267 steps with 288751 atoms

99.9% CPU use with 104 MPI tasks x 1 OpenMP threads

Minimization stats:
  Stopping criterion = energy tolerance
  Energy initial, next-to-last, final = 
     -1152448.94248769  -1152448.94378172  -1152448.94378172
  Force two-norm initial, final = 0.16414199 3.9535115e-06
  Force max component initial, final = 0.099233498 1.0732039e-06
  Final line search alpha, max atom move = 1.0000000 1.0732039e-06
  Iterations, force evaluations = 267 534

MPI task timing breakdown:
Section |  min time  |  avg time  |  max time  |%varavg| %total
---------------------------------------------------------------
Pair    | 0.81178    | 2.2405     | 2.913      |  40.5 | 72.77
Neigh   | 0          | 0          | 0          |   0.0 |  0.00
Comm    | 0.044868   | 0.5109     | 1.5444     |  59.6 | 16.59
Output  | 0.00010364 | 0.00010674 | 0.0002447  |   0.0 |  0.00
Modify  | 3.2283e-05 | 0.0043969  | 0.009521   |   3.1 |  0.14
Other   |            | 0.3229     |            |       | 10.49

Nlocal:        2776.45 ave        3960 max           0 min
Histogram: 8 4 4 0 4 12 8 4 26 34
Nghost:        3879.09 ave        5425 max         232 min
Histogram: 8 0 8 0 16 0 8 8 16 40
Neighs:        79213.2 ave      115445 max           0 min
Histogram: 8 4 4 0 10 6 8 8 24 32

Total # of neighbors = 8238172
Ave neighs/atom = 28.530367
Neighbor list builds = 0
Dangerous builds = 0
The dot product: -1.0765327783304e-09
Setting atom values ...
  1 settings made for x
  1 settings made for y
  1 settings made for z
Setting up cg style minimization ...
  Unit style    : metal
  Current step  : 29204
Per MPI rank memory allocation (min/avg/max) = 5.441 | 5.816 | 6.074 Mbytes
Step PotEng KinEng TotEng v_fx v_fy v_fz 
   29204   -1152448.9            0   -1152448.9 -0.0020843252 0.0012913662 -0.00012151073 
   29383   -1152448.9            0   -1152448.9 1.8202088e-05 -7.0743318e-06 -4.1840445e-06 
Loop time of 2.08068 on 104 procs for 179 steps with 288751 atoms

99.9% CPU use with 104 MPI tasks x 1 OpenMP threads

Minimization stats:
  Stopping criterion = energy tolerance
  Energy initial, next-to-last, final = 
     -1152448.91310483  -1152448.91439854  -1152448.91439854
  Force two-norm initial, final = 0.16520721 0.00016647071
  Force max component initial, final = 0.099770128 3.9633402e-05
  Final line search alpha, max atom move = 1.0000000 3.9633402e-05
  Iterations, force evaluations = 179 358

MPI task timing breakdown:
Section |  min time  |  avg time  |  max time  |%varavg| %total
---------------------------------------------------------------
Pair    | 0.54775    | 1.5024     | 1.9703     |  33.1 | 72.21
Neigh   | 0          | 0          | 0          |   0.0 |  0.00
Comm    | 0.030773   | 0.3405     | 1.0282     |  48.6 | 16.36
Output  | 0          | 0          | 0          |   0.0 |  0.00
Modify  | 2.1604e-05 | 0.0029449  | 0.0063242  |   2.6 |  0.14
Other   |            | 0.2348     |            |       | 11.29

Nlocal:        2776.45 ave        3960 max           0 min
Histogram: 8 4 4 0 4 12 8 4 26 34
Nghost:        3879.08 ave        5425 max         232 min
Histogram: 8 0 8 0 16 0 8 8 16 40
Neighs:        79213.2 ave      115447 max           0 min
Histogram: 8 4 4 0 10 6 8 8 24 32

Total # of neighbors = 8238170
Ave neighs/atom = 28.530360
Neighbor list builds = 0
Dangerous builds = 0
The dot product: -2.7191913271309e-08
