LAMMPS (29 Oct 2020)
OMP_NUM_THREADS environment is not set. Defaulting to 1 thread. (../comm.cpp:94)
  using 1 OpenMP thread(s) per MPI task
Reading data file ...
  orthogonal box = (-122.39241 -121.13707 -37.090501) to (122.39241 121.13707 37.090501)
  13 by 4 by 1 MPI processor grid
  reading atoms ...
  288751 atoms
  read_data CPU = 0.439 seconds
199981 atoms in group inner
88770 atoms in group outer
1 atoms in group carbon
Neighbor list info ...
  update every 1 steps, delay 0 steps, check yes
  max neighbors/atom: 2000, page size: 100000
  master list distance cutoff = 5.6
  ghost atom cutoff = 5.6
  binsize = 2.8, bins = 88 87 27
  1 neighbor lists, perpetual/occasional/extra = 1 0 0
  (1) pair eam/alloy, perpetual
      attributes: half, newton on
      pair build: half/bin/atomonly/newton
      stencil: half/bin/3d/newton
      bin: standard
Setting up cg style minimization ...
  Unit style    : metal
  Current step  : 0
Per MPI rank memory allocation (min/avg/max) = 5.465 | 6.344 | 6.728 Mbytes
Step v_fx v_fy v_fz PotEng KinEng TotEng 
       0    0.2157241    1.8373749    2.4642231   -1152447.8            0   -1152447.8 
     146 2.1338348e-06 6.5377161e-06 -0.0001076543   -1152449.5            0   -1152449.5 
Loop time of 3.21548 on 52 procs for 146 steps with 288751 atoms

99.8% CPU use with 52 MPI tasks x 1 OpenMP threads

Minimization stats:
  Stopping criterion = energy tolerance
  Energy initial, next-to-last, final = 
     -1152447.78945077  -1152449.45035254  -1152449.45035254
  Force two-norm initial, final = 10.103154 0.0003061698
  Force max component initial, final = 6.1646686 0.0001076543
  Final line search alpha, max atom move = 1.0000000 0.0001076543
  Iterations, force evaluations = 146 291

MPI task timing breakdown:
Section |  min time  |  avg time  |  max time  |%varavg| %total
---------------------------------------------------------------
Pair    | 0.8603     | 2.3454     | 3.0443     |  41.2 | 72.94
Neigh   | 8.0944e-05 | 0.019292   | 0.028002   |   5.9 |  0.60
Comm    | 0.042106   | 0.50711    | 1.6255     |  64.5 | 15.77
Output  | 0          | 0          | 0          |   0.0 |  0.00
Modify  | 5.2654e-05 | 0.0032176  | 0.0082143  |   3.5 |  0.10
Other   |            | 0.3405     |            |       | 10.59

Nlocal:        5552.90 ave        7912 max           0 min
Histogram: 4 2 2 0 2 6 4 0 15 17
Nghost:        6213.54 ave        8769 max         412 min
Histogram: 4 0 4 0 8 0 4 5 7 20
Neighs:       158427.0 ave      230624 max           0 min
Histogram: 4 2 2 0 5 3 4 4 12 16

Total # of neighbors = 8238203
Ave neighs/atom = 28.530474
Neighbor list builds = 3
Dangerous builds = 0
2.64 1.2 23.13 2.91402255420527 1.02288026532892 23.3177315965564
Total wall time: 0:00:03
