LAMMPS (29 Oct 2020)
OMP_NUM_THREADS environment is not set. Defaulting to 1 thread. (../comm.cpp:94)
  using 1 OpenMP thread(s) per MPI task
OMP_NUM_THREADS environment is not set. Defaulting to 1 thread. (../comm.cpp:94)
  using 1 OpenMP thread(s) per MPI task
Reading data file ...
  orthogonal box = (-122.39241 -121.13707 -37.090501) to (122.39241 121.13707 37.090501)
  13 by 4 by 2 MPI processor grid
  reading atoms ...
  288751 atoms
  read_data CPU = 0.383 seconds
199981 atoms in group inner
88770 atoms in group outer
1 atoms in group carbon
Neighbor list info ...
  update every 1 steps, delay 0 steps, check yes
  max neighbors/atom: 2000, page size: 100000
  master list distance cutoff = 5.6
  ghost atom cutoff = 5.6
  binsize = 2.8, bins = 88 87 27
  1 neighbor lists, perpetual/occasional/extra = 1 0 0
  (1) pair eam/alloy, perpetual
      attributes: half, newton on
      pair build: half/bin/atomonly/newton
      stencil: half/bin/3d/newton
      bin: standard
Setting up cg style minimization ...
  Unit style    : metal
  Current step  : 0
Per MPI rank memory allocation (min/avg/max) = 5.441 | 5.816 | 6.074 Mbytes
Step v_fx v_fy v_fz PotEng KinEng TotEng 
       0    26.057434    14.727161    49.814761   -1152433.5            0   -1152433.5 
     182 -2.6876787e-06 1.4230733e-06 -3.8040609e-06   -1152449.5            0   -1152449.5 
Loop time of 2.14316 on 104 procs for 182 steps with 288751 atoms

99.8% CPU use with 104 MPI tasks x 1 OpenMP threads

Minimization stats:
  Stopping criterion = energy tolerance
  Energy initial, next-to-last, final = 
     -1152433.49618271  -1152449.45035286  -1152449.45035286
  Force two-norm initial, final = 87.113655 7.8927866e-05
  Force max component initial, final = 56.914973 1.9671545e-05
  Final line search alpha, max atom move = 1.0000000 1.9671545e-05
  Iterations, force evaluations = 182 356

MPI task timing breakdown:
Section |  min time  |  avg time  |  max time  |%varavg| %total
---------------------------------------------------------------
Pair    | 0.56409    | 1.5061     | 1.9619     |  32.6 | 70.28
Neigh   | 5.1428e-05 | 0.014671   | 0.021161   |   5.0 |  0.68
Comm    | 0.034376   | 0.34807    | 1.0268     |  47.6 | 16.24
Output  | 0          | 0          | 0          |   0.0 |  0.00
Modify  | 2.0363e-05 | 0.0019352  | 0.004967   |   2.7 |  0.09
Other   |            | 0.2724     |            |       | 12.71

Nlocal:        2776.45 ave        3958 max           0 min
Histogram: 8 4 4 0 4 12 8 2 28 34
Nghost:        3879.03 ave        5424 max         232 min
Histogram: 8 0 8 0 16 0 8 8 16 40
Neighs:        79213.6 ave      115388 max           0 min
Histogram: 8 4 4 0 10 6 8 8 24 32

Total # of neighbors = 8238212
Ave neighs/atom = 28.530506
Neighbor list builds = 5
Dangerous builds = 0
Setting atom values ...
  1 settings made for x
  1 settings made for y
  1 settings made for z
Setting up cg style minimization ...
  Unit style    : metal
  Current step  : 182
Per MPI rank memory allocation (min/avg/max) = 5.441 | 5.816 | 6.074 Mbytes
Step PotEng KinEng TotEng v_fx v_fy v_fz 
     182   -1152449.4            0   -1152449.4 0.0014032298 -0.013344748 -0.013624014 
     343   -1152449.5            0   -1152449.5 1.3972682e-05 3.9441519e-06 -1.8614221e-05 
Loop time of 1.91941 on 104 procs for 161 steps with 288751 atoms

99.9% CPU use with 104 MPI tasks x 1 OpenMP threads

Minimization stats:
  Stopping criterion = energy tolerance
  Energy initial, next-to-last, final = 
     -1152449.44962145  -1152449.45010687  -1152449.45010687
  Force two-norm initial, final = 0.10163763 0.00015454768
  Force max component initial, final = 0.051249546 4.3985265e-05
  Final line search alpha, max atom move = 1.0000000 4.3985265e-05
  Iterations, force evaluations = 161 322

MPI task timing breakdown:
Section |  min time  |  avg time  |  max time  |%varavg| %total
---------------------------------------------------------------
Pair    | 0.48543    | 1.3621     | 1.7822     |  31.7 | 70.96
Neigh   | 0          | 0          | 0          |   0.0 |  0.00
Comm    | 0.027944   | 0.31509    | 0.93698    |  45.7 | 16.42
Output  | 0          | 0          | 0          |   0.0 |  0.00
Modify  | 2.0435e-05 | 0.002679   | 0.0057197  |   2.4 |  0.14
Other   |            | 0.2396     |            |       | 12.48

Nlocal:        2776.45 ave        3961 max           0 min
Histogram: 8 4 4 0 6 10 8 2 28 34
Nghost:        3879.03 ave        5424 max         232 min
Histogram: 8 0 8 0 16 0 8 8 16 40
Neighs:        79213.4 ave      115458 max           0 min
Histogram: 8 4 4 0 10 6 8 8 24 32

Total # of neighbors = 8238198
Ave neighs/atom = 28.530457
Neighbor list builds = 0
Dangerous builds = 0
Setting atom values ...
  1 settings made for x
  1 settings made for y
  1 settings made for z
Setting up cg style minimization ...
  Unit style    : metal
  Current step  : 343
Per MPI rank memory allocation (min/avg/max) = 5.441 | 5.816 | 6.074 Mbytes
Step PotEng KinEng TotEng v_fx v_fy v_fz 
     343   -1152449.4            0   -1152449.4 -0.0057815273 -0.026915434 -0.022437778 
     510   -1152449.4            0   -1152449.4 7.6073268e-06 8.839682e-07 -1.6051342e-05 
Loop time of 1.98064 on 104 procs for 167 steps with 288751 atoms

99.9% CPU use with 104 MPI tasks x 1 OpenMP threads

Minimization stats:
  Stopping criterion = energy tolerance
  Energy initial, next-to-last, final = 
     -1152449.44694862  -1152449.44851504  -1152449.44851504
  Force two-norm initial, final = 0.18290702 0.00017473176
  Force max component initial, final = 0.083687065 2.6600624e-05
  Final line search alpha, max atom move = 1.0000000 2.6600624e-05
  Iterations, force evaluations = 167 334

MPI task timing breakdown:
Section |  min time  |  avg time  |  max time  |%varavg| %total
---------------------------------------------------------------
Pair    | 0.50406    | 1.4052     | 1.8399     |  32.1 | 70.95
Neigh   | 0          | 0          | 0          |   0.0 |  0.00
Comm    | 0.032115   | 0.32315    | 0.96358    |  46.7 | 16.32
Output  | 0          | 0          | 0          |   0.0 |  0.00
Modify  | 2.0087e-05 | 0.0027721  | 0.0062106  |   2.5 |  0.14
Other   |            | 0.2495     |            |       | 12.60

Nlocal:        2776.45 ave        3961 max           0 min
Histogram: 8 4 4 0 6 10 8 2 28 34
Nghost:        3879.03 ave        5424 max         232 min
Histogram: 8 0 8 0 16 0 8 8 16 40
Neighs:        79213.5 ave      115457 max           0 min
Histogram: 8 4 4 0 10 6 8 8 24 32

Total # of neighbors = 8238201
Ave neighs/atom = 28.530467
Neighbor list builds = 0
Dangerous builds = 0
The dot product: 5.70710318856389e-08
Setting atom values ...
  1 settings made for x
  1 settings made for y
  1 settings made for z
Setting up cg style minimization ...
  Unit style    : metal
  Current step  : 510
Per MPI rank memory allocation (min/avg/max) = 5.441 | 5.816 | 6.074 Mbytes
Step PotEng KinEng TotEng v_fx v_fy v_fz 
     510   -1152449.4            0   -1152449.4  -0.01307213 -0.029857785 -0.019455273 
     641   -1152449.4            0   -1152449.4 1.3798267e-06 4.3420733e-06 4.5631066e-06 
Loop time of 1.57396 on 104 procs for 131 steps with 288751 atoms

99.9% CPU use with 104 MPI tasks x 1 OpenMP threads

Minimization stats:
  Stopping criterion = energy tolerance
  Energy initial, next-to-last, final = 
      -1152449.4439226  -1152449.44547775  -1152449.44547775
  Force two-norm initial, final = 0.18205977 8.6567978e-05
  Force max component initial, final = 0.075130932 8.4111972e-06
  Final line search alpha, max atom move = 1.0000000 8.4111972e-06
  Iterations, force evaluations = 131 262

MPI task timing breakdown:
Section |  min time  |  avg time  |  max time  |%varavg| %total
---------------------------------------------------------------
Pair    | 0.39642    | 1.1112     | 1.4527     |  28.5 | 70.60
Neigh   | 0          | 0          | 0          |   0.0 |  0.00
Comm    | 0.025619   | 0.2606     | 0.77045    |  41.0 | 16.56
Output  | 0          | 0          | 0          |   0.0 |  0.00
Modify  | 1.6446e-05 | 0.0021736  | 0.0045949  |   2.2 |  0.14
Other   |            | 0.2        |            |       | 12.71

Nlocal:        2776.45 ave        3960 max           0 min
Histogram: 8 4 4 0 4 12 8 2 28 34
Nghost:        3879.03 ave        5424 max         232 min
Histogram: 8 0 8 0 16 0 8 8 16 40
Neighs:        79213.5 ave      115425 max           0 min
Histogram: 8 4 4 0 10 6 8 8 24 32

Total # of neighbors = 8238201
Ave neighs/atom = 28.530467
Neighbor list builds = 0
Dangerous builds = 0
The dot product: -2.76232263556408e-08
Setting atom values ...
  1 settings made for x
  1 settings made for y
  1 settings made for z
Setting up cg style minimization ...
  Unit style    : metal
  Current step  : 641
Per MPI rank memory allocation (min/avg/max) = 5.441 | 5.816 | 6.074 Mbytes
Step PotEng KinEng TotEng v_fx v_fy v_fz 
     641   -1152449.4            0   -1152449.4 -0.018994741 -0.031742547 -0.013254821 
     801   -1152449.4            0   -1152449.4 -5.3211389e-07 4.446215e-07 4.1012245e-06 
Loop time of 1.8918 on 104 procs for 160 steps with 288751 atoms

99.9% CPU use with 104 MPI tasks x 1 OpenMP threads

Minimization stats:
  Stopping criterion = energy tolerance
  Energy initial, next-to-last, final = 
     -1152449.43942327  -1152449.44096308  -1152449.44096308
  Force two-norm initial, final = 0.18129368 1.6526934e-05
  Force max component initial, final = 0.068959593 4.3804310e-06
  Final line search alpha, max atom move = 1.0000000 4.3804310e-06
  Iterations, force evaluations = 160 320

MPI task timing breakdown:
Section |  min time  |  avg time  |  max time  |%varavg| %total
---------------------------------------------------------------
Pair    | 0.48548    | 1.343      | 1.7548     |  31.4 | 70.99
Neigh   | 0          | 0          | 0          |   0.0 |  0.00
Comm    | 0.03001    | 0.30744    | 0.91492    |  45.6 | 16.25
Output  | 0          | 0          | 0          |   0.0 |  0.00
Modify  | 1.8896e-05 | 0.0026523  | 0.0056814  |   2.4 |  0.14
Other   |            | 0.2387     |            |       | 12.62

Nlocal:        2776.45 ave        3961 max           0 min
Histogram: 8 4 4 0 6 10 8 2 28 34
Nghost:        3879.03 ave        5425 max         232 min
Histogram: 8 0 8 0 16 0 8 8 16 40
Neighs:        79213.5 ave      115453 max           0 min
Histogram: 8 4 4 0 10 6 8 8 24 32

Total # of neighbors = 8238201
Ave neighs/atom = 28.530467
Neighbor list builds = 0
Dangerous builds = 0
The dot product: -1.66934973544155e-08
Setting atom values ...
  1 settings made for x
  1 settings made for y
  1 settings made for z
Setting up cg style minimization ...
  Unit style    : metal
  Current step  : 801
Per MPI rank memory allocation (min/avg/max) = 5.441 | 5.816 | 6.074 Mbytes
Step PotEng KinEng TotEng v_fx v_fy v_fz 
     801   -1152449.4            0   -1152449.4 -0.023460547 -0.033238343 -0.0060895998 
    1000   -1152449.4            0   -1152449.4 -5.746871e-07 -6.2709147e-07 8.4026727e-07 
    1037   -1152449.4            0   -1152449.4 -1.1444114e-06 -9.3125385e-07 3.3522773e-06 
Loop time of 2.78785 on 104 procs for 236 steps with 288751 atoms

99.9% CPU use with 104 MPI tasks x 1 OpenMP threads

Minimization stats:
  Stopping criterion = energy tolerance
  Energy initial, next-to-last, final = 
     -1152449.43340947  -1152449.43493094  -1152449.43493094
  Force two-norm initial, final = 0.18064694 1.4389194e-05
  Force max component initial, final = 0.063888637 4.0409569e-06
  Final line search alpha, max atom move = 1.0000000 4.0409569e-06
  Iterations, force evaluations = 236 472

MPI task timing breakdown:
Section |  min time  |  avg time  |  max time  |%varavg| %total
---------------------------------------------------------------
Pair    | 0.70819    | 1.9877     | 2.6047     |  38.3 | 71.30
Neigh   | 0          | 0          | 0          |   0.0 |  0.00
Comm    | 0.041987   | 0.45635    | 1.3564     |  55.4 | 16.37
Output  | 0.00050351 | 0.00050707 | 0.00066058 |   0.0 |  0.02
Modify  | 2.7786e-05 | 0.0039057  | 0.0083191  |   2.9 |  0.14
Other   |            | 0.3393     |            |       | 12.17

Nlocal:        2776.45 ave        3960 max           0 min
Histogram: 8 4 4 0 4 12 8 2 28 34
Nghost:        3879.03 ave        5425 max         232 min
Histogram: 8 0 8 0 16 0 8 8 16 40
Neighs:        79213.5 ave      115422 max           0 min
Histogram: 8 4 4 0 10 6 8 8 24 32

Total # of neighbors = 8238202
Ave neighs/atom = 28.530471
Neighbor list builds = 0
Dangerous builds = 0
The dot product: -7.6217784786693e-09
Setting atom values ...
  1 settings made for x
  1 settings made for y
  1 settings made for z
Setting up cg style minimization ...
  Unit style    : metal
  Current step  : 1037
Per MPI rank memory allocation (min/avg/max) = 5.441 | 5.816 | 6.074 Mbytes
Step PotEng KinEng TotEng v_fx v_fy v_fz 
    1037   -1152449.4            0   -1152449.4 -0.027088295 -0.034748826 0.0010041005 
    1172   -1152449.4            0   -1152449.4 4.8182287e-06 2.2519199e-06 -3.259844e-05 
Loop time of 1.57409 on 104 procs for 135 steps with 288751 atoms

99.9% CPU use with 104 MPI tasks x 1 OpenMP threads

Minimization stats:
  Stopping criterion = energy tolerance
  Energy initial, next-to-last, final = 
     -1152449.42584656  -1152449.42735015  -1152449.42735015
  Force two-norm initial, final = 0.18014015 9.9978250e-05
  Force max component initial, final = 0.062744247 3.2598440e-05
  Final line search alpha, max atom move = 1.0000000 3.2598440e-05
  Iterations, force evaluations = 135 270

MPI task timing breakdown:
Section |  min time  |  avg time  |  max time  |%varavg| %total
---------------------------------------------------------------
Pair    | 0.40934    | 1.1327     | 1.4775     |  28.8 | 71.96
Neigh   | 0          | 0          | 0          |   0.0 |  0.00
Comm    | 0.023696   | 0.25833    | 0.77753    |  42.2 | 16.41
Output  | 0          | 0          | 0          |   0.0 |  0.00
Modify  | 1.7558e-05 | 0.0022406  | 0.0048175  |   2.2 |  0.14
Other   |            | 0.1809     |            |       | 11.49

Nlocal:        2776.45 ave        3960 max           0 min
Histogram: 8 4 4 0 4 12 8 2 28 34
Nghost:        3879.03 ave        5424 max         232 min
Histogram: 8 0 8 0 16 0 8 8 16 40
Neighs:        79213.5 ave      115422 max           0 min
Histogram: 8 4 4 0 10 6 8 8 24 32

Total # of neighbors = 8238204
Ave neighs/atom = 28.530478
Neighbor list builds = 0
Dangerous builds = 0
The dot product: 7.1214037432364e-08
Setting atom values ...
  1 settings made for x
  1 settings made for y
  1 settings made for z
Setting up cg style minimization ...
  Unit style    : metal
  Current step  : 1172
Per MPI rank memory allocation (min/avg/max) = 5.441 | 5.816 | 6.074 Mbytes
Step PotEng KinEng TotEng v_fx v_fy v_fz 
    1172   -1152449.4            0   -1152449.4 -0.030503736 -0.036487064 0.0078758827 
    1288   -1152449.4            0   -1152449.4 -1.0333846e-05 -1.0497725e-05 2.5962898e-05 
Loop time of 1.40341 on 104 procs for 116 steps with 288751 atoms

99.8% CPU use with 104 MPI tasks x 1 OpenMP threads

Minimization stats:
  Stopping criterion = energy tolerance
  Energy initial, next-to-last, final = 
     -1152449.41671296  -1152449.41820121  -1152449.41820121
  Force two-norm initial, final = 0.17978168 0.00020968765
  Force max component initial, final = 0.063087185 3.6796993e-05
  Final line search alpha, max atom move = 1.0000000 3.6796993e-05
  Iterations, force evaluations = 116 232

MPI task timing breakdown:
Section |  min time  |  avg time  |  max time  |%varavg| %total
---------------------------------------------------------------
Pair    | 0.35094    | 0.97965    | 1.281      |  26.6 | 69.81
Neigh   | 0          | 0          | 0          |   0.0 |  0.00
Comm    | 0.024474   | 0.22951    | 0.67425    |  38.3 | 16.35
Output  | 0          | 0          | 0          |   0.0 |  0.00
Modify  | 1.4493e-05 | 0.0019254  | 0.0041254  |   2.1 |  0.14
Other   |            | 0.1923     |            |       | 13.70

Nlocal:        2776.45 ave        3959 max           0 min
Histogram: 8 4 4 0 4 12 8 2 28 34
Nghost:        3879.03 ave        5424 max         232 min
Histogram: 8 0 8 0 16 0 8 8 16 40
Neighs:        79213.5 ave      115388 max           0 min
Histogram: 8 4 4 0 10 6 8 8 24 32

Total # of neighbors = 8238204
Ave neighs/atom = 28.530478
Neighbor list builds = 0
Dangerous builds = 0
The dot product: 5.62692982701063e-09
Setting atom values ...
  1 settings made for x
  1 settings made for y
  1 settings made for z
Setting up cg style minimization ...
  Unit style    : metal
  Current step  : 1288
Per MPI rank memory allocation (min/avg/max) = 5.441 | 5.816 | 6.074 Mbytes
Step PotEng KinEng TotEng v_fx v_fy v_fz 
    1288   -1152449.4            0   -1152449.4 -0.034228177 -0.038595336    0.0146859 
    1441   -1152449.4            0   -1152449.4 -3.9496441e-06 -5.5078291e-06 -1.6914008e-05 
Loop time of 1.78334 on 104 procs for 153 steps with 288751 atoms

99.9% CPU use with 104 MPI tasks x 1 OpenMP threads

Minimization stats:
  Stopping criterion = energy tolerance
  Energy initial, next-to-last, final = 
     -1152449.40600313  -1152449.40748055  -1152449.40748055
  Force two-norm initial, final = 0.17970478 8.2384833e-05
  Force max component initial, final = 0.062557707 1.7731153e-05
  Final line search alpha, max atom move = 1.0000000 1.7731153e-05
  Iterations, force evaluations = 153 306

MPI task timing breakdown:
Section |  min time  |  avg time  |  max time  |%varavg| %total
---------------------------------------------------------------
Pair    | 0.45963    | 1.2835     | 1.6742     |  30.7 | 71.97
Neigh   | 0          | 0          | 0          |   0.0 |  0.00
Comm    | 0.026436   | 0.29145    | 0.8726     |  45.0 | 16.34
Output  | 0          | 0          | 0          |   0.0 |  0.00
Modify  | 1.8551e-05 | 0.0025323  | 0.0054012  |   2.4 |  0.14
Other   |            | 0.2059     |            |       | 11.54

Nlocal:        2776.45 ave        3958 max           0 min
Histogram: 8 4 4 0 4 12 8 2 28 34
Nghost:        3879.03 ave        5424 max         232 min
Histogram: 8 0 8 0 16 0 8 8 16 40
Neighs:        79213.5 ave      115352 max           0 min
Histogram: 8 4 4 0 10 6 8 8 24 32

Total # of neighbors = 8238201
Ave neighs/atom = 28.530467
Neighbor list builds = 0
Dangerous builds = 0
The dot product: 4.35021982243442e-08
Setting atom values ...
  1 settings made for x
  1 settings made for y
  1 settings made for z
Setting up cg style minimization ...
  Unit style    : metal
  Current step  : 1441
Per MPI rank memory allocation (min/avg/max) = 5.441 | 5.816 | 6.074 Mbytes
Step PotEng KinEng TotEng v_fx v_fy v_fz 
    1441   -1152449.4            0   -1152449.4 -0.038787298 -0.041223422  0.021639598 
    1586   -1152449.4            0   -1152449.4 -4.552732e-07 -1.0571315e-06 -1.2103239e-05 
Loop time of 1.71787 on 104 procs for 145 steps with 288751 atoms

99.9% CPU use with 104 MPI tasks x 1 OpenMP threads

Minimization stats:
  Stopping criterion = energy tolerance
  Energy initial, next-to-last, final = 
     -1152449.39372978  -1152449.39520698  -1152449.39520698
  Force two-norm initial, final = 0.17999584 5.0891809e-05
  Force max component initial, final = 0.063453231 1.2103239e-05
  Final line search alpha, max atom move = 1.0000000 1.2103239e-05
  Iterations, force evaluations = 145 290

MPI task timing breakdown:
Section |  min time  |  avg time  |  max time  |%varavg| %total
---------------------------------------------------------------
Pair    | 0.43965    | 1.226      | 1.6118     |  30.0 | 71.37
Neigh   | 0          | 0          | 0          |   0.0 |  0.00
Comm    | 0.026662   | 0.28314    | 0.85122    |  43.4 | 16.48
Output  | 0          | 0          | 0          |   0.0 |  0.00
Modify  | 1.7364e-05 | 0.0023968  | 0.0050972  |   2.3 |  0.14
Other   |            | 0.2063     |            |       | 12.01

Nlocal:        2776.45 ave        3957 max           0 min
Histogram: 8 4 4 0 4 12 8 3 27 34
Nghost:        3879.03 ave        5424 max         232 min
Histogram: 8 0 8 0 16 0 8 8 16 40
Neighs:        79213.4 ave      115312 max           0 min
Histogram: 8 4 4 0 10 6 8 8 24 32

Total # of neighbors = 8238197
Ave neighs/atom = 28.530454
Neighbor list builds = 0
Dangerous builds = 0
The dot product: 2.73963139243471e-09
Setting atom values ...
  1 settings made for x
  1 settings made for y
  1 settings made for z
Setting up cg style minimization ...
  Unit style    : metal
  Current step  : 1586
Per MPI rank memory allocation (min/avg/max) = 5.441 | 5.816 | 6.074 Mbytes
Step PotEng KinEng TotEng v_fx v_fy v_fz 
    1586   -1152449.4            0   -1152449.4 -0.045762806 -0.045372221  0.030829661 
    1721   -1152449.4            0   -1152449.4 -2.8858616e-06 -3.5613294e-06 -1.2959483e-05 
Loop time of 1.59322 on 104 procs for 135 steps with 288751 atoms

99.9% CPU use with 104 MPI tasks x 1 OpenMP threads

Minimization stats:
  Stopping criterion = energy tolerance
  Energy initial, next-to-last, final = 
     -1152449.37994356  -1152449.38145983  -1152449.38145983
  Force two-norm initial, final = 0.18171218 7.4724586e-05
  Force max component initial, final = 0.066681747 1.3385183e-05
  Final line search alpha, max atom move = 1.0000000 1.3385183e-05
  Iterations, force evaluations = 135 270

MPI task timing breakdown:
Section |  min time  |  avg time  |  max time  |%varavg| %total
---------------------------------------------------------------
Pair    | 0.4091     | 1.1378     | 1.4835     |  29.0 | 71.41
Neigh   | 0          | 0          | 0          |   0.0 |  0.00
Comm    | 0.025852   | 0.26146    | 0.78506    |  42.1 | 16.41
Output  | 0          | 0          | 0          |   0.0 |  0.00
Modify  | 1.5949e-05 | 0.0022411  | 0.0048414  |   2.2 |  0.14
Other   |            | 0.1918     |            |       | 12.04

Nlocal:        2776.45 ave        3955 max           0 min
Histogram: 8 4 4 0 4 12 8 0 30 34
Nghost:        3879.03 ave        5424 max         232 min
Histogram: 8 0 8 0 16 0 8 8 16 40
Neighs:        79213.4 ave      115226 max           0 min
Histogram: 8 4 4 0 10 6 8 8 24 32

Total # of neighbors = 8238198
Ave neighs/atom = 28.530457
Neighbor list builds = 0
Dangerous builds = 0
The dot product: 4.18701319703447e-09
Setting atom values ...
  1 settings made for x
  1 settings made for y
  1 settings made for z
Setting up cg style minimization ...
  Unit style    : metal
  Current step  : 1721
Per MPI rank memory allocation (min/avg/max) = 5.441 | 5.816 | 6.074 Mbytes
Step PotEng KinEng TotEng v_fx v_fy v_fz 
    1721   -1152449.4            0   -1152449.4 -0.059434112 -0.053203396  0.046825418 
    1846   -1152449.4            0   -1152449.4 -1.6817677e-05 -1.5269278e-05 9.8005759e-06 
Loop time of 1.45679 on 104 procs for 125 steps with 288751 atoms

99.9% CPU use with 104 MPI tasks x 1 OpenMP threads

Minimization stats:
  Stopping criterion = energy tolerance
  Energy initial, next-to-last, final = 
     -1152449.36485037  -1152449.36681687  -1152449.36681687
  Force two-norm initial, final = 0.18850161 0.0001548458
  Force max component initial, final = 0.070172567 1.8474096e-05
  Final line search alpha, max atom move = 1.0000000 1.8474096e-05
  Iterations, force evaluations = 125 250

MPI task timing breakdown:
Section |  min time  |  avg time  |  max time  |%varavg| %total
---------------------------------------------------------------
Pair    | 0.37639    | 1.054      | 1.3719     |  27.8 | 72.35
Neigh   | 0          | 0          | 0          |   0.0 |  0.00
Comm    | 0.021792   | 0.24058    | 0.72193    |  40.8 | 16.51
Output  | 0          | 0          | 0          |   0.0 |  0.00
Modify  | 1.6084e-05 | 0.0020723  | 0.0044546  |   2.1 |  0.14
Other   |            | 0.1601     |            |       | 10.99

Nlocal:        2776.45 ave        3947 max           0 min
Histogram: 8 4 4 0 4 12 8 0 28 36
Nghost:        3879.03 ave        5424 max         232 min
Histogram: 8 0 8 0 16 0 8 8 16 40
Neighs:        79213.4 ave      114994 max           0 min
Histogram: 8 4 4 0 10 6 8 8 24 32

Total # of neighbors = 8238195
Ave neighs/atom = 28.530447
Neighbor list builds = 0
Dangerous builds = 0
The dot product: 6.46835008726688e-07
Setting atom values ...
  1 settings made for x
  1 settings made for y
  1 settings made for z
Setting up cg style minimization ...
  Unit style    : metal
  Current step  : 1846
Per MPI rank memory allocation (min/avg/max) = 5.441 | 5.816 | 6.074 Mbytes
Step PotEng KinEng TotEng v_fx v_fy v_fz 
    1846   -1152449.4            0   -1152449.4  -0.11481249 -0.073375081  0.098621999 
    2000   -1152449.4            0   -1152449.4 -4.6030533e-05 -4.2360216e-05 -4.8028319e-05 
    2039   -1152449.4            0   -1152449.4 -1.980206e-06 -6.5864261e-06 -3.429913e-05 
Loop time of 2.2521 on 104 procs for 193 steps with 288751 atoms

99.9% CPU use with 104 MPI tasks x 1 OpenMP threads

Minimization stats:
  Stopping criterion = energy tolerance
  Energy initial, next-to-last, final = 
     -1152449.35034158  -1152449.35743771  -1152449.35743771
  Force two-norm initial, final = 0.23097988 0.00014602395
  Force max component initial, final = 0.11481249 3.4299130e-05
  Final line search alpha, max atom move = 1.0000000 3.4299130e-05
  Iterations, force evaluations = 193 386

MPI task timing breakdown:
Section |  min time  |  avg time  |  max time  |%varavg| %total
---------------------------------------------------------------
Pair    | 0.58696    | 1.6182     | 2.1127     |  34.3 | 71.85
Neigh   | 1.0301e-05 | 0.0029413  | 0.0042529  |   2.2 |  0.13
Comm    | 0.033022   | 0.36843    | 1.1114     |  50.5 | 16.36
Output  | 0.00026099 | 0.00027157 | 0.00042721 |   0.0 |  0.01
Modify  | 2.6441e-05 | 0.0031948  | 0.00683    |   2.7 |  0.14
Other   |            | 0.2591     |            |       | 11.51

Nlocal:        2776.45 ave        3947 max           0 min
Histogram: 8 4 4 0 4 12 8 0 28 36
Nghost:        3879.01 ave        5424 max         232 min
Histogram: 8 0 8 0 16 0 8 8 16 40
Neighs:        79213.4 ave      114993 max           0 min
Histogram: 8 4 4 0 10 6 8 8 24 32

Total # of neighbors = 8238192
Ave neighs/atom = 28.530436
Neighbor list builds = 1
Dangerous builds = 0
The dot product: -1.03866592133314e-06
Setting atom values ...
  1 settings made for x
  1 settings made for y
  1 settings made for z
Setting up cg style minimization ...
  Unit style    : metal
  Current step  : 2039
Per MPI rank memory allocation (min/avg/max) = 5.441 | 5.816 | 6.074 Mbytes
Step PotEng KinEng TotEng v_fx v_fy v_fz 
    2039   -1152449.3            0   -1152449.3  -0.19362194 -0.048571542   0.10909219 
    2250   -1152449.4            0   -1152449.4 -3.1050948e-05 -9.1278362e-06 1.3140788e-05 
Loop time of 2.48114 on 104 procs for 211 steps with 288751 atoms

99.9% CPU use with 104 MPI tasks x 1 OpenMP threads

Minimization stats:
  Stopping criterion = energy tolerance
  Energy initial, next-to-last, final = 
     -1152449.34424316   -1152449.3511367   -1152449.3511367
  Force two-norm initial, final = 0.26766137 0.00012084893
  Force max component initial, final = 0.19362194 3.1050948e-05
  Final line search alpha, max atom move = 1.0000000 3.1050948e-05
  Iterations, force evaluations = 211 422

MPI task timing breakdown:
Section |  min time  |  avg time  |  max time  |%varavg| %total
---------------------------------------------------------------
Pair    | 0.63905    | 1.777      | 2.3189     |  36.0 | 71.62
Neigh   | 1.0143e-05 | 0.0029466  | 0.0042473  |   2.2 |  0.12
Comm    | 0.038917   | 0.40818    | 1.2183     |  52.7 | 16.45
Output  | 0          | 0          | 0          |   0.0 |  0.00
Modify  | 2.4986e-05 | 0.0034931  | 0.0074484  |   2.8 |  0.14
Other   |            | 0.2896     |            |       | 11.67

Nlocal:        2776.45 ave        3948 max           0 min
Histogram: 8 4 4 0 4 12 8 0 28 36
Nghost:        3879.01 ave        5425 max         232 min
Histogram: 8 0 8 0 16 0 8 8 16 40
Neighs:        79213.5 ave      115021 max           0 min
Histogram: 8 4 4 0 10 6 8 8 24 32

Total # of neighbors = 8238199
Ave neighs/atom = 28.530461
Neighbor list builds = 1
Dangerous builds = 0
The dot product: 1.91213846421066e-06
Setting atom values ...
  1 settings made for x
  1 settings made for y
  1 settings made for z
Setting up cg style minimization ...
  Unit style    : metal
  Current step  : 2250
Per MPI rank memory allocation (min/avg/max) = 5.441 | 5.816 | 6.074 Mbytes
Step PotEng KinEng TotEng v_fx v_fy v_fz 
    2250   -1152449.3            0   -1152449.3  -0.12810097 -0.0061579577  0.053043175 
    2375   -1152449.3            0   -1152449.3 -4.0230943e-05 -1.1844765e-05 -8.6839344e-06 
Loop time of 1.45246 on 104 procs for 125 steps with 288751 atoms

99.9% CPU use with 104 MPI tasks x 1 OpenMP threads

Minimization stats:
  Stopping criterion = energy tolerance
  Energy initial, next-to-last, final = 
     -1152449.33941778  -1152449.34314351  -1152449.34314351
  Force two-norm initial, final = 0.19523361 0.00023489913
  Force max component initial, final = 0.12810097 4.0230943e-05
  Final line search alpha, max atom move = 1.0000000 4.0230943e-05
  Iterations, force evaluations = 125 250

MPI task timing breakdown:
Section |  min time  |  avg time  |  max time  |%varavg| %total
---------------------------------------------------------------
Pair    | 0.37609    | 1.0486     | 1.3671     |  27.7 | 72.20
Neigh   | 0          | 0          | 0          |   0.0 |  0.00
Comm    | 0.022679   | 0.23736    | 0.71259    |  40.8 | 16.34
Output  | 0          | 0          | 0          |   0.0 |  0.00
Modify  | 1.4961e-05 | 0.0020705  | 0.0043962  |   2.1 |  0.14
Other   |            | 0.1644     |            |       | 11.32

Nlocal:        2776.45 ave        3948 max           0 min
Histogram: 8 4 4 0 4 12 8 1 27 36
Nghost:        3879.11 ave        5427 max         232 min
Histogram: 8 0 8 0 16 0 8 8 16 40
Neighs:        79213.5 ave      115022 max           0 min
Histogram: 8 4 4 0 10 6 8 8 24 32

Total # of neighbors = 8238202
Ave neighs/atom = 28.530471
Neighbor list builds = 0
Dangerous builds = 0
The dot product: 1.05287012299686e-06
Setting atom values ...
  1 settings made for x
  1 settings made for y
  1 settings made for z
Setting up cg style minimization ...
  Unit style    : metal
  Current step  : 2375
Per MPI rank memory allocation (min/avg/max) = 5.441 | 5.816 | 6.074 Mbytes
Step PotEng KinEng TotEng v_fx v_fy v_fz 
    2375   -1152449.3            0   -1152449.3 -0.057021531  0.010465031  0.034844926 
    2684   -1152449.3            0   -1152449.3 2.7031042e-06 -1.1509246e-06 -3.0804597e-06 
Loop time of 3.6063 on 104 procs for 309 steps with 288751 atoms

99.9% CPU use with 104 MPI tasks x 1 OpenMP threads

Minimization stats:
  Stopping criterion = energy tolerance
  Energy initial, next-to-last, final = 
     -1152449.33417266  -1152449.34575666  -1152449.34575666
  Force two-norm initial, final = 0.16094775 1.2204109e-05
  Force max component initial, final = 0.07267851 3.2963068e-06
  Final line search alpha, max atom move = 1.0000000 3.2963068e-06
  Iterations, force evaluations = 309 618

MPI task timing breakdown:
Section |  min time  |  avg time  |  max time  |%varavg| %total
---------------------------------------------------------------
Pair    | 0.93233    | 2.5963     | 3.3872     |  43.6 | 71.99
Neigh   | 1.0311e-05 | 0.0029299  | 0.0042601  |   2.3 |  0.08
Comm    | 0.054245   | 0.59362    | 1.7852     |  64.2 | 16.46
Output  | 0          | 0          | 0          |   0.0 |  0.00
Modify  | 3.649e-05  | 0.0051112  | 0.010951   |   3.4 |  0.14
Other   |            | 0.4084     |            |       | 11.32

Nlocal:        2776.45 ave        3955 max           0 min
Histogram: 8 4 4 0 4 12 8 1 29 34
Nghost:        3879.07 ave        5427 max         232 min
Histogram: 8 0 8 0 16 0 8 8 16 40
Neighs:        79213.5 ave      115262 max           0 min
Histogram: 8 4 4 0 10 6 8 8 24 32

Total # of neighbors = 8238202
Ave neighs/atom = 28.530471
Neighbor list builds = 1
Dangerous builds = 0
The dot product: -1.55950222718293e-07
Setting atom values ...
  1 settings made for x
  1 settings made for y
  1 settings made for z
Setting up cg style minimization ...
  Unit style    : metal
  Current step  : 2684
Per MPI rank memory allocation (min/avg/max) = 5.441 | 5.816 | 6.074 Mbytes
Step PotEng KinEng TotEng v_fx v_fy v_fz 
    2684   -1152449.3            0   -1152449.3 0.0084100013 -0.021259354 -0.035889868 
    2814   -1152449.3            0   -1152449.3 -3.6928381e-06 -3.0466685e-06 -4.7575599e-06 
Loop time of 1.51928 on 104 procs for 130 steps with 288751 atoms

99.9% CPU use with 104 MPI tasks x 1 OpenMP threads

Minimization stats:
  Stopping criterion = energy tolerance
  Energy initial, next-to-last, final = 
     -1152449.34783921  -1152449.34881959  -1152449.34881959
  Force two-norm initial, final = 0.13119262 6.2759157e-05
  Force max component initial, final = 0.052417341 8.2718127e-06
  Final line search alpha, max atom move = 1.0000000 8.2718127e-06
  Iterations, force evaluations = 130 260

MPI task timing breakdown:
Section |  min time  |  avg time  |  max time  |%varavg| %total
---------------------------------------------------------------
Pair    | 0.39244    | 1.092      | 1.4263     |  28.3 | 71.88
Neigh   | 0          | 0          | 0          |   0.0 |  0.00
Comm    | 0.023255   | 0.24874    | 0.74652    |  41.3 | 16.37
Output  | 0          | 0          | 0          |   0.0 |  0.00
Modify  | 1.5391e-05 | 0.0021551  | 0.0046149  |   2.2 |  0.14
Other   |            | 0.1764     |            |       | 11.61

Nlocal:        2776.45 ave        3960 max           0 min
Histogram: 8 4 4 0 4 12 8 3 27 34
Nghost:        3879.01 ave        5424 max         232 min
Histogram: 8 0 8 0 16 0 8 8 16 40
Neighs:        79213.4 ave      115434 max           0 min
Histogram: 8 4 4 0 10 6 8 8 24 32

Total # of neighbors = 8238191
Ave neighs/atom = 28.530433
Neighbor list builds = 0
Dangerous builds = 0
The dot product: 1.46301131154483e-08
Setting atom values ...
  1 settings made for x
  1 settings made for y
  1 settings made for z
Setting up cg style minimization ...
  Unit style    : metal
  Current step  : 2814
Per MPI rank memory allocation (min/avg/max) = 5.441 | 5.816 | 6.074 Mbytes
Step PotEng KinEng TotEng v_fx v_fy v_fz 
    2814   -1152449.3            0   -1152449.3 -0.0010978836 -0.011181804 -0.018889535 
    2954   -1152449.4            0   -1152449.4 -1.7368842e-05 2.4177694e-05 4.2605971e-05 
Loop time of 1.65587 on 104 procs for 140 steps with 288751 atoms

99.9% CPU use with 104 MPI tasks x 1 OpenMP threads

Minimization stats:
  Stopping criterion = energy tolerance
  Energy initial, next-to-last, final = 
     -1152449.34991386  -1152449.35081768  -1152449.35081768
  Force two-norm initial, final = 0.12515058 0.00031181823
  Force max component initial, final = 0.052908809 5.9545681e-05
  Final line search alpha, max atom move = 1.0000000 5.9545681e-05
  Iterations, force evaluations = 140 280

MPI task timing breakdown:
Section |  min time  |  avg time  |  max time  |%varavg| %total
---------------------------------------------------------------
Pair    | 0.42147    | 1.1825     | 1.5547     |  29.6 | 71.41
Neigh   | 0          | 0          | 0          |   0.0 |  0.00
Comm    | 0.023538   | 0.27263    | 0.81876    |  42.7 | 16.46
Output  | 0          | 0          | 0          |   0.0 |  0.00
Modify  | 1.7531e-05 | 0.0023176  | 0.004919   |   2.3 |  0.14
Other   |            | 0.1984     |            |       | 11.98

Nlocal:        2776.45 ave        3960 max           0 min
Histogram: 8 4 4 0 4 12 8 2 28 34
Nghost:        3879.01 ave        5424 max         232 min
Histogram: 8 0 8 0 16 0 8 8 16 40
Neighs:        79213.4 ave      115433 max           0 min
Histogram: 8 4 4 0 10 6 8 8 24 32

Total # of neighbors = 8238193
Ave neighs/atom = 28.530440
Neighbor list builds = 0
Dangerous builds = 0
The dot product: -6.92180859598192e-09
Setting atom values ...
  1 settings made for x
  1 settings made for y
  1 settings made for z
Setting up cg style minimization ...
  Unit style    : metal
  Current step  : 2954
Per MPI rank memory allocation (min/avg/max) = 5.441 | 5.816 | 6.074 Mbytes
Step PotEng KinEng TotEng v_fx v_fy v_fz 
    2954   -1152449.4            0   -1152449.4 -0.00064255477 -0.011903221 -0.020184264 
    3000   -1152449.4            0   -1152449.4 -7.6034506e-05 0.00012909792 0.00022622935 
    3128   -1152449.4            0   -1152449.4 1.8768439e-05 -2.3542239e-05 -4.1687359e-05 
Loop time of 2.05062 on 104 procs for 174 steps with 288751 atoms

99.9% CPU use with 104 MPI tasks x 1 OpenMP threads

Minimization stats:
  Stopping criterion = energy tolerance
  Energy initial, next-to-last, final = 
     -1152449.35066867  -1152449.35156999  -1152449.35156999
  Force two-norm initial, final = 0.12550286 0.00017813302
  Force max component initial, final = 0.052641819 4.5441403e-05
  Final line search alpha, max atom move = 1.0000000 4.5441403e-05
  Iterations, force evaluations = 174 348

MPI task timing breakdown:
Section |  min time  |  avg time  |  max time  |%varavg| %total
---------------------------------------------------------------
Pair    | 0.52316    | 1.4625     | 1.9233     |  32.9 | 71.32
Neigh   | 0          | 0          | 0          |   0.0 |  0.00
Comm    | 0.029089   | 0.3369     | 1.0099     |  47.8 | 16.43
Output  | 0.00016114 | 0.0001641  | 0.00025936 |   0.0 |  0.01
Modify  | 2.0692e-05 | 0.0028858  | 0.0061363  |   2.5 |  0.14
Other   |            | 0.2481     |            |       | 12.10

Nlocal:        2776.45 ave        3960 max           0 min
Histogram: 8 4 4 0 4 12 8 2 28 34
Nghost:        3879.01 ave        5424 max         232 min
Histogram: 8 0 8 0 16 0 8 8 16 40
Neighs:        79213.4 ave      115433 max           0 min
Histogram: 8 4 4 0 10 6 8 8 24 32

Total # of neighbors = 8238189
Ave neighs/atom = 28.530426
Neighbor list builds = 0
Dangerous builds = 0
The dot product: 2.04970120639339e-08
Setting atom values ...
  1 settings made for x
  1 settings made for y
  1 settings made for z
Setting up cg style minimization ...
  Unit style    : metal
  Current step  : 3128
Per MPI rank memory allocation (min/avg/max) = 5.441 | 5.816 | 6.074 Mbytes
Step PotEng KinEng TotEng v_fx v_fy v_fz 
    3128   -1152449.4            0   -1152449.4 -0.0010169338  -0.01134171 -0.019256207 
    3362   -1152449.4            0   -1152449.4 1.711532e-06 -1.7425158e-07 -4.4682482e-07 
Loop time of 2.78017 on 104 procs for 234 steps with 288751 atoms

99.9% CPU use with 104 MPI tasks x 1 OpenMP threads

Minimization stats:
  Stopping criterion = energy tolerance
  Energy initial, next-to-last, final = 
     -1152449.35010231  -1152449.35099535  -1152449.35099535
  Force two-norm initial, final = 0.12500588 1.8559653e-05
  Force max component initial, final = 0.052372714 2.9584478e-06
  Final line search alpha, max atom move = 1.0000000 2.9584478e-06
  Iterations, force evaluations = 234 468

MPI task timing breakdown:
Section |  min time  |  avg time  |  max time  |%varavg| %total
---------------------------------------------------------------
Pair    | 0.7063     | 1.98       | 2.6048     |  38.1 | 71.22
Neigh   | 0          | 0          | 0          |   0.0 |  0.00
Comm    | 0.042128   | 0.46097    | 1.3697     |  55.0 | 16.58
Output  | 0          | 0          | 0          |   0.0 |  0.00
Modify  | 2.9768e-05 | 0.0038639  | 0.0082059  |   2.9 |  0.14
Other   |            | 0.3354     |            |       | 12.06

Nlocal:        2776.45 ave        3961 max           0 min
Histogram: 8 4 4 0 6 10 8 2 28 34
Nghost:        3879.01 ave        5424 max         232 min
Histogram: 8 0 8 0 16 0 8 8 16 40
Neighs:        79213.4 ave      115457 max           0 min
Histogram: 8 4 4 0 10 6 8 8 24 32

Total # of neighbors = 8238191
Ave neighs/atom = 28.530433
Neighbor list builds = 0
Dangerous builds = 0
The dot product: -1.68913913441345e-10
Setting atom values ...
  1 settings made for x
  1 settings made for y
  1 settings made for z
Setting up cg style minimization ...
  Unit style    : metal
  Current step  : 3362
Per MPI rank memory allocation (min/avg/max) = 5.441 | 5.816 | 6.074 Mbytes
Step PotEng KinEng TotEng v_fx v_fy v_fz 
    3362   -1152449.3            0   -1152449.3 -0.0013670044 -0.010420313   -0.0177079 
    3589   -1152449.3            0   -1152449.3 -4.3625172e-06 2.502704e-06 4.6583126e-06 
Loop time of 2.68874 on 104 procs for 227 steps with 288751 atoms

99.9% CPU use with 104 MPI tasks x 1 OpenMP threads

Minimization stats:
  Stopping criterion = energy tolerance
  Energy initial, next-to-last, final = 
     -1152449.34818881  -1152449.34906899  -1152449.34906899
  Force two-norm initial, final = 0.12402253 2.4756488e-05
  Force max component initial, final = 0.052286489 4.6583126e-06
  Final line search alpha, max atom move = 1.0000000 4.6583126e-06
  Iterations, force evaluations = 227 454

MPI task timing breakdown:
Section |  min time  |  avg time  |  max time  |%varavg| %total
---------------------------------------------------------------
Pair    | 0.68727    | 1.9132     | 2.4949     |  37.4 | 71.15
Neigh   | 0          | 0          | 0          |   0.0 |  0.00
Comm    | 0.042307   | 0.43975    | 1.31       |  54.7 | 16.36
Output  | 0          | 0          | 0          |   0.0 |  0.00
Modify  | 2.6914e-05 | 0.0037604  | 0.00805    |   2.9 |  0.14
Other   |            | 0.3321     |            |       | 12.35

Nlocal:        2776.45 ave        3961 max           0 min
Histogram: 8 4 4 0 6 10 8 2 28 34
Nghost:        3879.01 ave        5424 max         232 min
Histogram: 8 0 8 0 16 0 8 8 16 40
Neighs:        79213.4 ave      115458 max           0 min
Histogram: 8 4 4 0 10 6 8 8 24 32

Total # of neighbors = 8238191
Ave neighs/atom = 28.530433
Neighbor list builds = 0
Dangerous builds = 0
The dot product: -1.31361480979922e-09
Setting atom values ...
  1 settings made for x
  1 settings made for y
  1 settings made for z
Setting up cg style minimization ...
  Unit style    : metal
  Current step  : 3589
Per MPI rank memory allocation (min/avg/max) = 5.441 | 5.816 | 6.074 Mbytes
Step PotEng KinEng TotEng v_fx v_fy v_fz 
    3589   -1152449.3            0   -1152449.3 -0.0014733981 -0.0093912694 -0.015982183 
    3728   -1152449.3            0   -1152449.3 8.2002705e-05 -1.1491447e-05 -2.6702447e-05 
Loop time of 1.62045 on 104 procs for 139 steps with 288751 atoms

99.9% CPU use with 104 MPI tasks x 1 OpenMP threads

Minimization stats:
  Stopping criterion = energy tolerance
  Energy initial, next-to-last, final = 
     -1152449.34491897  -1152449.34578474  -1152449.34578474
  Force two-norm initial, final = 0.1230404 0.00035297078
  Force max component initial, final = 0.052174485 0.00010795241
  Final line search alpha, max atom move = 1.0000000 0.00010795241
  Iterations, force evaluations = 139 278

MPI task timing breakdown:
Section |  min time  |  avg time  |  max time  |%varavg| %total
---------------------------------------------------------------
Pair    | 0.4189     | 1.168      | 1.5284     |  29.2 | 72.08
Neigh   | 0          | 0          | 0          |   0.0 |  0.00
Comm    | 0.023677   | 0.26502    | 0.79718    |  42.8 | 16.35
Output  | 0          | 0          | 0          |   0.0 |  0.00
Modify  | 1.6594e-05 | 0.0022998  | 0.0049258  |   2.3 |  0.14
Other   |            | 0.1851     |            |       | 11.43

Nlocal:        2776.45 ave        3960 max           0 min
Histogram: 8 4 4 0 4 12 8 2 28 34
Nghost:        3879.03 ave        5424 max         232 min
Histogram: 8 0 8 0 16 0 8 8 16 40
Neighs:        79213.4 ave      115415 max           0 min
Histogram: 8 4 4 0 10 6 8 8 24 32

Total # of neighbors = 8238190
Ave neighs/atom = 28.530429
Neighbor list builds = 0
Dangerous builds = 0
The dot product: -8.63067415351064e-09
Setting atom values ...
  1 settings made for x
  1 settings made for y
  1 settings made for z
Setting up cg style minimization ...
  Unit style    : metal
  Current step  : 3728
Per MPI rank memory allocation (min/avg/max) = 5.441 | 5.816 | 6.074 Mbytes
Step PotEng KinEng TotEng v_fx v_fy v_fz 
    3728   -1152449.3            0   -1152449.3 -0.0011620084 -0.0083759803 -0.014303427 
    3910   -1152449.3            0   -1152449.3 -1.30473e-05 1.4320212e-05 2.5720161e-05 
Loop time of 2.14289 on 104 procs for 182 steps with 288751 atoms

99.9% CPU use with 104 MPI tasks x 1 OpenMP threads

Minimization stats:
  Stopping criterion = energy tolerance
  Energy initial, next-to-last, final = 
     -1152449.34028219  -1152449.34113701  -1152449.34113701
  Force two-norm initial, final = 0.1222941 0.00012601144
  Force max component initial, final = 0.052100331 3.3928205e-05
  Final line search alpha, max atom move = 1.0000000 3.3928205e-05
  Iterations, force evaluations = 182 364

MPI task timing breakdown:
Section |  min time  |  avg time  |  max time  |%varavg| %total
---------------------------------------------------------------
Pair    | 0.54915    | 1.5298     | 1.9951     |  33.4 | 71.39
Neigh   | 0          | 0          | 0          |   0.0 |  0.00
Comm    | 0.034269   | 0.35126    | 1.0482     |  48.7 | 16.39
Output  | 0          | 0          | 0          |   0.0 |  0.00
Modify  | 2.223e-05  | 0.0030115  | 0.0064307  |   2.6 |  0.14
Other   |            | 0.2588     |            |       | 12.08

Nlocal:        2776.45 ave        3959 max           0 min
Histogram: 8 4 4 0 4 12 8 2 28 34
Nghost:        3879.03 ave        5424 max         232 min
Histogram: 8 0 8 0 16 0 8 8 16 40
Neighs:        79213.4 ave      115392 max           0 min
Histogram: 8 4 4 0 10 6 8 8 24 32

Total # of neighbors = 8238190
Ave neighs/atom = 28.530429
Neighbor list builds = 0
Dangerous builds = 0
The dot product: -7.19349115270046e-09
Setting atom values ...
  1 settings made for x
  1 settings made for y
  1 settings made for z
Setting up cg style minimization ...
  Unit style    : metal
  Current step  : 3910
Per MPI rank memory allocation (min/avg/max) = 5.441 | 5.816 | 6.074 Mbytes
Step PotEng KinEng TotEng v_fx v_fy v_fz 
    3910   -1152449.3            0   -1152449.3 -0.00064976142 -0.0073495548 -0.012604368 
    4000   -1152449.3            0   -1152449.3 -6.8673098e-05 7.8217864e-05 0.00014044138 
    4072   -1152449.3            0   -1152449.3 -3.0400312e-05 2.1478526e-05 3.9526917e-05 
Loop time of 1.89053 on 104 procs for 162 steps with 288751 atoms

99.9% CPU use with 104 MPI tasks x 1 OpenMP threads

Minimization stats:
  Stopping criterion = energy tolerance
  Energy initial, next-to-last, final = 
     -1152449.33426526  -1152449.33511294  -1152449.33511294
  Force two-norm initial, final = 0.12189572 0.00024887151
  Force max component initial, final = 0.051900753 4.9927528e-05
  Final line search alpha, max atom move = 1.0000000 4.9927528e-05
  Iterations, force evaluations = 162 324

MPI task timing breakdown:
Section |  min time  |  avg time  |  max time  |%varavg| %total
---------------------------------------------------------------
Pair    | 0.486      | 1.3631     | 1.7839     |  31.7 | 72.10
Neigh   | 0          | 0          | 0          |   0.0 |  0.00
Comm    | 0.027875   | 0.30903    | 0.93112    |  46.6 | 16.35
Output  | 0.00022543 | 0.00023043 | 0.00035546 |   0.0 |  0.01
Modify  | 1.9549e-05 | 0.0026815  | 0.0057295  |   2.4 |  0.14
Other   |            | 0.2155     |            |       | 11.40

Nlocal:        2776.45 ave        3957 max           0 min
Histogram: 8 4 4 0 4 12 8 2 28 34
Nghost:        3879.03 ave        5427 max         232 min
Histogram: 8 0 8 0 16 0 8 8 16 40
Neighs:        79213.4 ave      115335 max           0 min
Histogram: 8 4 4 0 10 6 8 8 24 32

Total # of neighbors = 8238192
Ave neighs/atom = 28.530436
Neighbor list builds = 0
Dangerous builds = 0
The dot product: -1.03056442671689e-08
Setting atom values ...
  1 settings made for x
  1 settings made for y
  1 settings made for z
Setting up cg style minimization ...
  Unit style    : metal
  Current step  : 4072
Per MPI rank memory allocation (min/avg/max) = 5.441 | 5.816 | 6.074 Mbytes
Step PotEng KinEng TotEng v_fx v_fy v_fz 
    4072   -1152449.3            0   -1152449.3 0.00033042978 -0.0064341012 -0.011127187 
    4245   -1152449.3            0   -1152449.3 -2.2277254e-05 8.8166925e-06 1.705421e-05 
Loop time of 2.01495 on 104 procs for 173 steps with 288751 atoms

99.9% CPU use with 104 MPI tasks x 1 OpenMP threads

Minimization stats:
  Stopping criterion = energy tolerance
  Energy initial, next-to-last, final = 
     -1152449.32684502  -1152449.32769169  -1152449.32769169
  Force two-norm initial, final = 0.12187802 0.00017442464
  Force max component initial, final = 0.051802805 4.2048387e-05
  Final line search alpha, max atom move = 1.0000000 4.2048387e-05
  Iterations, force evaluations = 173 346

MPI task timing breakdown:
Section |  min time  |  avg time  |  max time  |%varavg| %total
---------------------------------------------------------------
Pair    | 0.51863    | 1.4492     | 1.8925     |  32.7 | 71.92
Neigh   | 0          | 0          | 0          |   0.0 |  0.00
Comm    | 0.029831   | 0.32927    | 0.98466    |  47.7 | 16.34
Output  | 0          | 0          | 0          |   0.0 |  0.00
Modify  | 2.0419e-05 | 0.0028608  | 0.0061146  |   2.5 |  0.14
Other   |            | 0.2336     |            |       | 11.59

Nlocal:        2776.45 ave        3954 max           0 min
Histogram: 8 4 4 0 4 12 8 1 29 34
Nghost:        3879.03 ave        5426 max         232 min
Histogram: 8 0 8 0 16 0 8 8 16 40
Neighs:        79213.4 ave      115235 max           0 min
Histogram: 8 4 4 0 10 6 8 8 24 32

Total # of neighbors = 8238190
Ave neighs/atom = 28.530429
Neighbor list builds = 0
Dangerous builds = 0
The dot product: -3.84427379329702e-09
Setting atom values ...
  1 settings made for x
  1 settings made for y
  1 settings made for z
Setting up cg style minimization ...
  Unit style    : metal
  Current step  : 4245
Per MPI rank memory allocation (min/avg/max) = 5.441 | 5.816 | 6.074 Mbytes
Step PotEng KinEng TotEng v_fx v_fy v_fz 
    4245   -1152449.3            0   -1152449.3 0.0017234492 -0.0056328117 -0.0098724792 
    4565   -1152449.3            0   -1152449.3 -1.288215e-07 -2.5169929e-08 -3.2840144e-08 
Loop time of 3.76966 on 104 procs for 320 steps with 288751 atoms

99.9% CPU use with 104 MPI tasks x 1 OpenMP threads

Minimization stats:
  Stopping criterion = energy tolerance
  Energy initial, next-to-last, final = 
     -1152449.31799162  -1152449.31884293  -1152449.31884293
  Force two-norm initial, final = 0.12223159 4.7739013e-07
  Force max component initial, final = 0.051581057 1.2882150e-07
  Final line search alpha, max atom move = 1.0000000 1.2882150e-07
  Iterations, force evaluations = 320 640

MPI task timing breakdown:
Section |  min time  |  avg time  |  max time  |%varavg| %total
---------------------------------------------------------------
Pair    | 0.97421    | 2.7057     | 3.5282     |  44.4 | 71.78
Neigh   | 0          | 0          | 0          |   0.0 |  0.00
Comm    | 0.061212   | 0.62401    | 1.8869     |  65.1 | 16.55
Output  | 0          | 0          | 0          |   0.0 |  0.00
Modify  | 3.9136e-05 | 0.0052867  | 0.011192   |   3.4 |  0.14
Other   |            | 0.4346     |            |       | 11.53

Nlocal:        2776.45 ave        3950 max           0 min
Histogram: 8 4 4 0 4 12 8 1 27 36
Nghost:        3879.09 ave        5425 max         232 min
Histogram: 8 0 8 0 16 0 8 8 16 40
Neighs:        79213.3 ave      115086 max           0 min
Histogram: 8 4 4 0 10 6 8 8 24 32

Total # of neighbors = 8238188
Ave neighs/atom = 28.530422
Neighbor list builds = 0
Dangerous builds = 0
The dot product: 4.05280067615384e-12
Setting up cg style minimization ...
  Unit style    : metal
  Current step  : 4565
Per MPI rank memory allocation (min/avg/max) = 5.441 | 5.816 | 6.074 Mbytes
Step PotEng KinEng TotEng v_fx v_fy v_fz 
    4565   -1152449.3            0   -1152449.3 -0.019789782   0.41394158    -0.239632 
    4871   -1152449.4            0   -1152449.4 1.588633e-06 -1.9570022e-07 -9.1748679e-07 
Loop time of 3.57581 on 104 procs for 306 steps with 288751 atoms

99.9% CPU use with 104 MPI tasks x 1 OpenMP threads

Minimization stats:
  Stopping criterion = energy tolerance
  Energy initial, next-to-last, final = 
     -1152449.31884293  -1152449.35157348  -1152449.35157348
  Force two-norm initial, final = 0.47870948 5.8541026e-06
  Force max component initial, final = 0.41394158 1.5886330e-06
  Final line search alpha, max atom move = 1.0000000 1.5886330e-06
  Iterations, force evaluations = 306 612

MPI task timing breakdown:
Section |  min time  |  avg time  |  max time  |%varavg| %total
---------------------------------------------------------------
Pair    | 0.92424    | 2.5636     | 3.3489     |  43.3 | 71.69
Neigh   | 1.0247e-05 | 0.0029492  | 0.0042365  |   2.2 |  0.08
Comm    | 0.055407   | 0.58236    | 1.7475     |  63.5 | 16.29
Output  | 0          | 0          | 0          |   0.0 |  0.00
Modify  | 3.34e-05   | 0.0032996  | 0.0085183  |   3.6 |  0.09
Other   |            | 0.4236     |            |       | 11.85

Nlocal:        2776.45 ave        3948 max           0 min
Histogram: 8 4 4 0 4 12 8 2 26 36
Nghost:        3879.06 ave        5425 max         232 min
Histogram: 8 0 8 0 16 0 8 8 16 40
Neighs:        79213.4 ave      115026 max           0 min
Histogram: 8 4 4 0 10 6 8 8 24 32

Total # of neighbors = 8238192
Ave neighs/atom = 28.530436
Neighbor list builds = 1
Dangerous builds = 0
OMP_NUM_THREADS environment is not set. Defaulting to 1 thread. (../comm.cpp:94)
  using 1 OpenMP thread(s) per MPI task
Reading data file ...
  orthogonal box = (-122.39241 -121.13707 -37.090501) to (122.39241 121.13707 37.090501)
  13 by 4 by 2 MPI processor grid
  reading atoms ...
  288751 atoms
  read_data CPU = 0.349 seconds
199981 atoms in group inner
88770 atoms in group outer
1 atoms in group carbon
Neighbor list info ...
  update every 1 steps, delay 0 steps, check yes
  max neighbors/atom: 2000, page size: 100000
  master list distance cutoff = 5.6
  ghost atom cutoff = 5.6
  binsize = 2.8, bins = 88 87 27
  1 neighbor lists, perpetual/occasional/extra = 1 0 0
  (1) pair eam/alloy, perpetual
      attributes: half, newton on
      pair build: half/bin/atomonly/newton
      stencil: half/bin/3d/newton
      bin: standard
Setting up cg style minimization ...
  Unit style    : metal
  Current step  : 0
Per MPI rank memory allocation (min/avg/max) = 5.441 | 5.816 | 6.074 Mbytes
Step v_fx v_fy v_fz PotEng KinEng TotEng 
       0    26.057434    14.727161    49.814761   -1152433.5            0   -1152433.5 
     182 -2.6876787e-06 1.4230733e-06 -3.8040609e-06   -1152449.5            0   -1152449.5 
Loop time of 2.11802 on 104 procs for 182 steps with 288751 atoms

99.9% CPU use with 104 MPI tasks x 1 OpenMP threads

Minimization stats:
  Stopping criterion = energy tolerance
  Energy initial, next-to-last, final = 
     -1152433.49618271  -1152449.45035286  -1152449.45035286
  Force two-norm initial, final = 87.113655 7.8927866e-05
  Force max component initial, final = 56.914973 1.9671545e-05
  Final line search alpha, max atom move = 1.0000000 1.9671545e-05
  Iterations, force evaluations = 182 356

MPI task timing breakdown:
Section |  min time  |  avg time  |  max time  |%varavg| %total
---------------------------------------------------------------
Pair    | 0.55618    | 1.5074     | 1.9652     |  32.8 | 71.17
Neigh   | 5.0262e-05 | 0.014734   | 0.021226   |   5.0 |  0.70
Comm    | 0.038979   | 0.348      | 1.0214     |  47.8 | 16.43
Output  | 0          | 0          | 0          |   0.0 |  0.00
Modify  | 2.095e-05  | 0.0019271  | 0.0049717  |   2.8 |  0.09
Other   |            | 0.2459     |            |       | 11.61

Nlocal:        2776.45 ave        3958 max           0 min
Histogram: 8 4 4 0 4 12 8 2 28 34
Nghost:        3879.03 ave        5424 max         232 min
Histogram: 8 0 8 0 16 0 8 8 16 40
Neighs:        79213.6 ave      115388 max           0 min
Histogram: 8 4 4 0 10 6 8 8 24 32

Total # of neighbors = 8238212
Ave neighs/atom = 28.530506
Neighbor list builds = 5
Dangerous builds = 0
Setting atom values ...
  1 settings made for x
  1 settings made for y
  1 settings made for z
Setting up cg style minimization ...
  Unit style    : metal
  Current step  : 182
Per MPI rank memory allocation (min/avg/max) = 5.441 | 5.816 | 6.074 Mbytes
Step PotEng KinEng TotEng v_fx v_fy v_fz 
     182   -1152449.4            0   -1152449.4 0.0041925644  0.062939377 -0.051463348 
     405   -1152449.4            0   -1152449.4 -2.4055078e-06 6.428898e-07 -3.0955983e-06 
Loop time of 2.58378 on 104 procs for 223 steps with 288751 atoms

99.9% CPU use with 104 MPI tasks x 1 OpenMP threads

Minimization stats:
  Stopping criterion = energy tolerance
  Energy initial, next-to-last, final = 
     -1152449.44452006    -1152449.448482    -1152449.448482
  Force two-norm initial, final = 0.30155223 4.4254580e-05
  Force max component initial, final = 0.13869244 7.7473261e-06
  Final line search alpha, max atom move = 1.0000000 7.7473261e-06
  Iterations, force evaluations = 223 446

MPI task timing breakdown:
Section |  min time  |  avg time  |  max time  |%varavg| %total
---------------------------------------------------------------
Pair    | 0.66732    | 1.8655     | 2.4366     |  37.0 | 72.20
Neigh   | 0          | 0          | 0          |   0.0 |  0.00
Comm    | 0.038108   | 0.42242    | 1.2586     |  54.1 | 16.35
Output  | 0          | 0          | 0          |   0.0 |  0.00
Modify  | 2.8073e-05 | 0.0036826  | 0.0078267  |   2.9 |  0.14
Other   |            | 0.2922     |            |       | 11.31

Nlocal:        2776.45 ave        3961 max           0 min
Histogram: 8 4 4 0 6 10 8 2 28 34
Nghost:        3879.03 ave        5424 max         232 min
Histogram: 8 0 8 0 16 0 8 8 16 40
Neighs:        79213.4 ave      115458 max           0 min
Histogram: 8 4 4 0 10 6 8 8 24 32

Total # of neighbors = 8238197
Ave neighs/atom = 28.530454
Neighbor list builds = 0
Dangerous builds = 0
Setting atom values ...
  1 settings made for x
  1 settings made for y
  1 settings made for z
Setting up cg style minimization ...
  Unit style    : metal
  Current step  : 405
Per MPI rank memory allocation (min/avg/max) = 5.441 | 5.816 | 6.074 Mbytes
Step PotEng KinEng TotEng v_fx v_fy v_fz 
     405   -1152449.4            0   -1152449.4 0.0067547431  0.047138307 -0.045213643 
     626   -1152449.4            0   -1152449.4 6.1378619e-06 -2.0700101e-06 9.9733822e-06 
Loop time of 2.57664 on 104 procs for 221 steps with 288751 atoms

99.9% CPU use with 104 MPI tasks x 1 OpenMP threads

Minimization stats:
  Stopping criterion = energy tolerance
  Energy initial, next-to-last, final = 
     -1152449.44322405  -1152449.44502031  -1152449.44502031
  Force two-norm initial, final = 0.20375799 3.3943218e-05
  Force max component initial, final = 0.089329242 9.9733822e-06
  Final line search alpha, max atom move = 1.0000000 9.9733822e-06
  Iterations, force evaluations = 221 442

MPI task timing breakdown:
Section |  min time  |  avg time  |  max time  |%varavg| %total
---------------------------------------------------------------
Pair    | 0.6671     | 1.8626     | 2.4235     |  37.0 | 72.29
Neigh   | 0          | 0          | 0          |   0.0 |  0.00
Comm    | 0.040177   | 0.42668    | 1.2646     |  53.9 | 16.56
Output  | 0          | 0          | 0          |   0.0 |  0.00
Modify  | 2.8217e-05 | 0.0036623  | 0.0078267  |   2.9 |  0.14
Other   |            | 0.2836     |            |       | 11.01

Nlocal:        2776.45 ave        3960 max           0 min
Histogram: 8 4 4 0 4 12 8 2 28 34
Nghost:        3879.05 ave        5427 max         232 min
Histogram: 8 0 8 0 16 0 8 8 16 40
Neighs:        79213.4 ave      115427 max           0 min
Histogram: 8 4 4 0 10 6 8 8 24 32

Total # of neighbors = 8238194
Ave neighs/atom = 28.530443
Neighbor list builds = 0
Dangerous builds = 0
The dot product: -3.78481433295267e-08
Setting atom values ...
  1 settings made for x
  1 settings made for y
  1 settings made for z
Setting up cg style minimization ...
  Unit style    : metal
  Current step  : 626
Per MPI rank memory allocation (min/avg/max) = 5.441 | 5.816 | 6.074 Mbytes
Step PotEng KinEng TotEng v_fx v_fy v_fz 
     626   -1152449.4            0   -1152449.4 0.0084289499   0.04781595 -0.054749818 
     752   -1152449.4            0   -1152449.4 -8.0408264e-06 3.2537378e-05 -5.698279e-05 
Loop time of 1.46449 on 104 procs for 126 steps with 288751 atoms

99.9% CPU use with 104 MPI tasks x 1 OpenMP threads

Minimization stats:
  Stopping criterion = energy tolerance
  Energy initial, next-to-last, final = 
     -1152449.43818425  -1152449.43993313  -1152449.43993313
  Force two-norm initial, final = 0.20182757 0.00024232847
  Force max component initial, final = 0.084022825 5.6982790e-05
  Final line search alpha, max atom move = 1.0000000 5.6982790e-05
  Iterations, force evaluations = 126 252

MPI task timing breakdown:
Section |  min time  |  avg time  |  max time  |%varavg| %total
---------------------------------------------------------------
Pair    | 0.37805    | 1.0567     | 1.381      |  27.9 | 72.16
Neigh   | 0          | 0          | 0          |   0.0 |  0.00
Comm    | 0.021366   | 0.2395     | 0.71387    |  40.9 | 16.35
Output  | 0          | 0          | 0          |   0.0 |  0.00
Modify  | 1.5885e-05 | 0.0020881  | 0.0044426  |   2.2 |  0.14
Other   |            | 0.1662     |            |       | 11.35

Nlocal:        2776.45 ave        3960 max           0 min
Histogram: 8 4 4 0 4 12 8 2 28 34
Nghost:        3879.07 ave        5425 max         232 min
Histogram: 8 0 8 0 16 0 8 8 16 40
Neighs:        79213.5 ave      115428 max           0 min
Histogram: 8 4 4 0 10 6 8 8 24 32

Total # of neighbors = 8238201
Ave neighs/atom = 28.530467
Neighbor list builds = 0
Dangerous builds = 0
The dot product: 3.8572948467425e-07
Setting atom values ...
  1 settings made for x
  1 settings made for y
  1 settings made for z
Setting up cg style minimization ...
  Unit style    : metal
  Current step  : 752
Per MPI rank memory allocation (min/avg/max) = 5.441 | 5.816 | 6.074 Mbytes
Step PotEng KinEng TotEng v_fx v_fy v_fz 
     752   -1152449.4            0   -1152449.4 0.0093652944  0.045450558 -0.064376479 
     895   -1152449.4            0   -1152449.4 -3.7837827e-06 -5.481004e-07 -5.6270277e-06 
Loop time of 1.66891 on 104 procs for 143 steps with 288751 atoms

99.9% CPU use with 104 MPI tasks x 1 OpenMP threads

Minimization stats:
  Stopping criterion = energy tolerance
  Energy initial, next-to-last, final = 
     -1152449.43176695  -1152449.43351265  -1152449.43351265
  Force two-norm initial, final = 0.19994548 9.4702143e-05
  Force max component initial, final = 0.078719212 8.3679057e-06
  Final line search alpha, max atom move = 1.0000000 8.3679057e-06
  Iterations, force evaluations = 143 286

MPI task timing breakdown:
Section |  min time  |  avg time  |  max time  |%varavg| %total
---------------------------------------------------------------
Pair    | 0.4292     | 1.2054     | 1.5727     |  29.9 | 72.23
Neigh   | 0          | 0          | 0          |   0.0 |  0.00
Comm    | 0.026095   | 0.27525    | 0.815      |  43.6 | 16.49
Output  | 0          | 0          | 0          |   0.0 |  0.00
Modify  | 1.8996e-05 | 0.0023735  | 0.0050943  |   2.3 |  0.14
Other   |            | 0.1859     |            |       | 11.14

Nlocal:        2776.45 ave        3960 max           0 min
Histogram: 8 4 4 0 4 12 8 2 28 34
Nghost:        3879.07 ave        5425 max         232 min
Histogram: 8 0 8 0 16 0 8 8 16 40
Neighs:        79213.5 ave      115429 max           0 min
Histogram: 8 4 4 0 10 6 8 8 24 32

Total # of neighbors = 8238202
Ave neighs/atom = 28.530471
Neighbor list builds = 0
Dangerous builds = 0
The dot product: 4.43222051978812e-08
Setting atom values ...
  1 settings made for x
  1 settings made for y
  1 settings made for z
Setting up cg style minimization ...
  Unit style    : metal
  Current step  : 895
Per MPI rank memory allocation (min/avg/max) = 5.441 | 5.816 | 6.074 Mbytes
Step PotEng KinEng TotEng v_fx v_fy v_fz 
     895   -1152449.4            0   -1152449.4  0.012428269  0.040787144 -0.068685439 
    1000   -1152449.4            0   -1152449.4 2.3601656e-05 -1.048739e-05 7.873114e-05 
    1095   -1152449.4            0   -1152449.4 -1.8919601e-07 3.0877348e-06 -7.7751216e-06 
Loop time of 2.32276 on 104 procs for 200 steps with 288751 atoms

99.9% CPU use with 104 MPI tasks x 1 OpenMP threads

Minimization stats:
  Stopping criterion = energy tolerance
  Energy initial, next-to-last, final = 
     -1152449.42409952  -1152449.42582268  -1152449.42582268
  Force two-norm initial, final = 0.19606407 3.9873384e-05
  Force max component initial, final = 0.081270315 7.7751216e-06
  Final line search alpha, max atom move = 1.0000000 7.7751216e-06
  Iterations, force evaluations = 200 400

MPI task timing breakdown:
Section |  min time  |  avg time  |  max time  |%varavg| %total
---------------------------------------------------------------
Pair    | 0.59919    | 1.6752     | 2.1832     |  35.1 | 72.12
Neigh   | 0          | 0          | 0          |   0.0 |  0.00
Comm    | 0.035089   | 0.37867    | 1.132      |  51.5 | 16.30
Output  | 0.0002366  | 0.00025083 | 0.00038701 |   0.0 |  0.01
Modify  | 2.5013e-05 | 0.0033057  | 0.007082   |   2.7 |  0.14
Other   |            | 0.2653     |            |       | 11.42

Nlocal:        2776.45 ave        3960 max           0 min
Histogram: 8 4 4 0 4 12 8 2 28 34
Nghost:        3879.07 ave        5425 max         232 min
Histogram: 8 0 8 0 16 0 8 8 16 40
Neighs:        79213.5 ave      115429 max           0 min
Histogram: 8 4 4 0 10 6 8 8 24 32

Total # of neighbors = 8238201
Ave neighs/atom = 28.530467
Neighbor list builds = 0
Dangerous builds = 0
The dot product: 7.84697632775857e-08
Setting atom values ...
  1 settings made for x
  1 settings made for y
  1 settings made for z
Setting up cg style minimization ...
  Unit style    : metal
  Current step  : 1095
Per MPI rank memory allocation (min/avg/max) = 5.441 | 5.816 | 6.074 Mbytes
Step PotEng KinEng TotEng v_fx v_fy v_fz 
    1095   -1152449.4            0   -1152449.4  0.018059721  0.037585213 -0.070863838 
    1254   -1152449.4            0   -1152449.4 -2.5535711e-07 -9.4891169e-06 3.166987e-05 
Loop time of 1.86724 on 104 procs for 159 steps with 288751 atoms

99.9% CPU use with 104 MPI tasks x 1 OpenMP threads

Minimization stats:
  Stopping criterion = energy tolerance
  Energy initial, next-to-last, final = 
      -1152449.4151651  -1152449.41686715  -1152449.41686715
  Force two-norm initial, final = 0.19250622 0.00022074821
  Force max component initial, final = 0.084884924 3.1669870e-05
  Final line search alpha, max atom move = 1.0000000 3.1669870e-05
  Iterations, force evaluations = 159 318

MPI task timing breakdown:
Section |  min time  |  avg time  |  max time  |%varavg| %total
---------------------------------------------------------------
Pair    | 0.47618    | 1.3352     | 1.7627     |  31.4 | 71.51
Neigh   | 0          | 0          | 0          |   0.0 |  0.00
Comm    | 0.026925   | 0.30858    | 0.90265    |  45.1 | 16.53
Output  | 0          | 0          | 0          |   0.0 |  0.00
Modify  | 2.0158e-05 | 0.002628   | 0.0055912  |   2.4 |  0.14
Other   |            | 0.2208     |            |       | 11.83

Nlocal:        2776.45 ave        3960 max           0 min
Histogram: 8 4 4 0 4 12 8 2 28 34
Nghost:        3879.07 ave        5425 max         232 min
Histogram: 8 0 8 0 16 0 8 8 16 40
Neighs:        79213.5 ave      115432 max           0 min
Histogram: 8 4 4 0 10 6 8 8 24 32

Total # of neighbors = 8238201
Ave neighs/atom = 28.530467
Neighbor list builds = 0
Dangerous builds = 0
The dot product: -3.45770501498381e-07
Setting atom values ...
  1 settings made for x
  1 settings made for y
  1 settings made for z
Setting up cg style minimization ...
  Unit style    : metal
  Current step  : 1254
Per MPI rank memory allocation (min/avg/max) = 5.441 | 5.816 | 6.074 Mbytes
Step PotEng KinEng TotEng v_fx v_fy v_fz 
    1254   -1152449.4            0   -1152449.4  0.024607145  0.034550957 -0.068631667 
    1443   -1152449.4            0   -1152449.4 3.7401452e-06 -3.1183498e-06 3.6352631e-05 
Loop time of 2.21789 on 104 procs for 189 steps with 288751 atoms

99.9% CPU use with 104 MPI tasks x 1 OpenMP threads

Minimization stats:
  Stopping criterion = energy tolerance
  Energy initial, next-to-last, final = 
     -1152449.40494818  -1152449.40659307  -1152449.40659307
  Force two-norm initial, final = 0.18797807 9.6067209e-05
  Force max component initial, final = 0.088251841 3.6352631e-05
  Final line search alpha, max atom move = 1.0000000 3.6352631e-05
  Iterations, force evaluations = 189 378

MPI task timing breakdown:
Section |  min time  |  avg time  |  max time  |%varavg| %total
---------------------------------------------------------------
Pair    | 0.566      | 1.5855     | 2.0798     |  34.2 | 71.49
Neigh   | 0          | 0          | 0          |   0.0 |  0.00
Comm    | 0.034621   | 0.3621     | 1.0699     |  49.6 | 16.33
Output  | 0          | 0          | 0          |   0.0 |  0.00
Modify  | 2.4926e-05 | 0.0031297  | 0.0066944  |   2.6 |  0.14
Other   |            | 0.2672     |            |       | 12.05

Nlocal:        2776.45 ave        3960 max           0 min
Histogram: 8 4 4 0 4 12 8 2 28 34
Nghost:        3879.07 ave        5425 max         232 min
Histogram: 8 0 8 0 16 0 8 8 16 40
Neighs:        79213.5 ave      115466 max           0 min
Histogram: 8 4 4 0 10 6 8 8 24 32

Total # of neighbors = 8238199
Ave neighs/atom = 28.530461
Neighbor list builds = 0
Dangerous builds = 0
The dot product: -3.68834705181695e-07
Setting atom values ...
  1 settings made for x
  1 settings made for y
  1 settings made for z
Setting up cg style minimization ...
  Unit style    : metal
  Current step  : 1443
Per MPI rank memory allocation (min/avg/max) = 5.441 | 5.816 | 6.074 Mbytes
Step PotEng KinEng TotEng v_fx v_fy v_fz 
    1443   -1152449.4            0   -1152449.4  0.030264257  0.031816115 -0.062999428 
    1602   -1152449.4            0   -1152449.4 1.4937093e-06 6.896646e-07 7.091507e-06 
Loop time of 1.90491 on 104 procs for 159 steps with 288751 atoms

99.9% CPU use with 104 MPI tasks x 1 OpenMP threads

Minimization stats:
  Stopping criterion = energy tolerance
  Energy initial, next-to-last, final = 
     -1152449.39336267  -1152449.39493355  -1152449.39493355
  Force two-norm initial, final = 0.18302101 0.00028221198
  Force max component initial, final = 0.091321218 5.1053094e-05
  Final line search alpha, max atom move = 1.0000000 5.1053094e-05
  Iterations, force evaluations = 159 318

MPI task timing breakdown:
Section |  min time  |  avg time  |  max time  |%varavg| %total
---------------------------------------------------------------
Pair    | 0.47731    | 1.3421     | 1.7725     |  31.7 | 70.46
Neigh   | 0          | 0          | 0          |   0.0 |  0.00
Comm    | 0.027327   | 0.31396    | 0.90822    |  44.6 | 16.48
Output  | 0          | 0          | 0          |   0.0 |  0.00
Modify  | 1.9953e-05 | 0.0026349  | 0.0056189  |   2.4 |  0.14
Other   |            | 0.2462     |            |       | 12.92

Nlocal:        2776.45 ave        3960 max           0 min
Histogram: 8 4 4 0 4 12 8 2 28 34
Nghost:        3879.07 ave        5425 max         232 min
Histogram: 8 0 8 0 16 0 8 8 16 40
Neighs:        79213.5 ave      115467 max           0 min
Histogram: 8 4 4 0 10 6 8 8 24 32

Total # of neighbors = 8238200
Ave neighs/atom = 28.530464
Neighbor list builds = 0
Dangerous builds = 0
The dot product: -6.07802768326493e-08
Setting atom values ...
  1 settings made for x
  1 settings made for y
  1 settings made for z
Setting up cg style minimization ...
  Unit style    : metal
  Current step  : 1602
Per MPI rank memory allocation (min/avg/max) = 5.441 | 5.816 | 6.074 Mbytes
Step PotEng KinEng TotEng v_fx v_fy v_fz 
    1602   -1152449.4            0   -1152449.4  0.034812592  0.029859919 -0.055825597 
    1803   -1152449.4            0   -1152449.4 -4.7128796e-06 -3.9541468e-06 1.1162121e-06 
Loop time of 2.34662 on 104 procs for 201 steps with 288751 atoms

99.9% CPU use with 104 MPI tasks x 1 OpenMP threads

Minimization stats:
  Stopping criterion = energy tolerance
  Energy initial, next-to-last, final = 
      -1152449.3803457  -1152449.38184588  -1152449.38184588
  Force two-norm initial, final = 0.17846286 7.1410540e-05
  Force max component initial, final = 0.0942641 4.7128796e-06
  Final line search alpha, max atom move = 1.0000000 4.7128796e-06
  Iterations, force evaluations = 201 402

MPI task timing breakdown:
Section |  min time  |  avg time  |  max time  |%varavg| %total
---------------------------------------------------------------
Pair    | 0.60492    | 1.6849     | 2.2053     |  35.2 | 71.80
Neigh   | 0          | 0          | 0          |   0.0 |  0.00
Comm    | 0.035082   | 0.38451    | 1.1388     |  51.2 | 16.39
Output  | 0          | 0          | 0          |   0.0 |  0.00
Modify  | 2.5613e-05 | 0.0033211  | 0.0071221  |   2.7 |  0.14
Other   |            | 0.2738     |            |       | 11.67

Nlocal:        2776.45 ave        3961 max           0 min
Histogram: 8 4 4 0 6 10 8 3 27 34
Nghost:        3879.07 ave        5426 max         232 min
Histogram: 8 0 8 0 16 0 8 8 16 40
Neighs:        79213.5 ave      115510 max           0 min
Histogram: 8 4 4 0 10 6 8 8 24 32

Total # of neighbors = 8238201
Ave neighs/atom = 28.530467
Neighbor list builds = 0
Dangerous builds = 0
The dot product: -3.58668134326924e-08
Setting atom values ...
  1 settings made for x
  1 settings made for y
  1 settings made for z
Setting up cg style minimization ...
  Unit style    : metal
  Current step  : 1803
Per MPI rank memory allocation (min/avg/max) = 5.441 | 5.816 | 6.074 Mbytes
Step PotEng KinEng TotEng v_fx v_fy v_fz 
    1803   -1152449.4            0   -1152449.4  0.038460759  0.028644552 -0.048558751 
    1985   -1152449.4            0   -1152449.4 -4.4976819e-06 -2.652101e-06 2.2147113e-05 
Loop time of 2.12974 on 104 procs for 182 steps with 288751 atoms

99.9% CPU use with 104 MPI tasks x 1 OpenMP threads

Minimization stats:
  Stopping criterion = energy tolerance
  Energy initial, next-to-last, final = 
     -1152449.36586381  -1152449.36730963  -1152449.36730963
  Force two-norm initial, final = 0.17474697 0.00011413995
  Force max component initial, final = 0.097145627 3.0894384e-05
  Final line search alpha, max atom move = 1.0000000 3.0894384e-05
  Iterations, force evaluations = 182 364

MPI task timing breakdown:
Section |  min time  |  avg time  |  max time  |%varavg| %total
---------------------------------------------------------------
Pair    | 0.54541    | 1.5336     | 2.006      |  33.7 | 72.01
Neigh   | 0          | 0          | 0          |   0.0 |  0.00
Comm    | 0.032958   | 0.35181    | 1.0366     |  48.7 | 16.52
Output  | 0          | 0          | 0          |   0.0 |  0.00
Modify  | 2.2892e-05 | 0.0030174  | 0.006442   |   2.6 |  0.14
Other   |            | 0.2413     |            |       | 11.33

Nlocal:        2776.45 ave        3961 max           0 min
Histogram: 8 4 4 0 6 10 8 4 26 34
Nghost:        3879.05 ave        5424 max         232 min
Histogram: 8 0 8 0 16 0 8 8 16 40
Neighs:        79213.5 ave      115506 max           0 min
Histogram: 8 4 4 0 10 6 8 8 24 32

Total # of neighbors = 8238201
Ave neighs/atom = 28.530467
Neighbor list builds = 0
Dangerous builds = 0
The dot product: -1.8783623520669e-07
Setting atom values ...
  1 settings made for x
  1 settings made for y
  1 settings made for z
Setting up cg style minimization ...
  Unit style    : metal
  Current step  : 1985
Per MPI rank memory allocation (min/avg/max) = 5.441 | 5.816 | 6.074 Mbytes
Step PotEng KinEng TotEng v_fx v_fy v_fz 
    1985   -1152449.3            0   -1152449.3  0.041567193  0.028041164 -0.041488418 
    2000   -1152449.4            0   -1152449.4 0.00012394528 1.4602308e-05 -0.00093786078 
    2155   -1152449.4            0   -1152449.4 8.6234936e-06 8.2123923e-06 1.9647588e-05 
Loop time of 1.98744 on 104 procs for 170 steps with 288751 atoms

99.9% CPU use with 104 MPI tasks x 1 OpenMP threads

Minimization stats:
  Stopping criterion = energy tolerance
  Energy initial, next-to-last, final = 
     -1152449.34990899  -1152449.35131919  -1152449.35131919
  Force two-norm initial, final = 0.17198211 0.00019166152
  Force max component initial, final = 0.10019598 2.4804064e-05
  Final line search alpha, max atom move = 1.0000000 2.4804064e-05
  Iterations, force evaluations = 170 340

MPI task timing breakdown:
Section |  min time  |  avg time  |  max time  |%varavg| %total
---------------------------------------------------------------
Pair    | 0.51074    | 1.4253     | 1.8631     |  32.4 | 71.72
Neigh   | 0          | 0          | 0          |   0.0 |  0.00
Comm    | 0.029824   | 0.32507    | 0.96175    |  47.3 | 16.36
Output  | 0.00014559 | 0.00015363 | 0.00023247 |   0.0 |  0.01
Modify  | 2.1311e-05 | 0.0028109  | 0.0060099  |   2.5 |  0.14
Other   |            | 0.2341     |            |       | 11.78

Nlocal:        2776.45 ave        3961 max           0 min
Histogram: 8 4 4 0 6 10 8 4 26 34
Nghost:        3879.05 ave        5424 max         232 min
Histogram: 8 0 8 0 16 0 8 8 16 40
Neighs:        79213.5 ave      115499 max           0 min
Histogram: 8 4 4 0 10 6 8 8 24 32

Total # of neighbors = 8238201
Ave neighs/atom = 28.530467
Neighbor list builds = 0
Dangerous builds = 0
The dot product: -4.92978394865198e-08
Setting atom values ...
  1 settings made for x
  1 settings made for y
  1 settings made for z
Setting up cg style minimization ...
  Unit style    : metal
  Current step  : 2155
Per MPI rank memory allocation (min/avg/max) = 5.441 | 5.816 | 6.074 Mbytes
Step PotEng KinEng TotEng v_fx v_fy v_fz 
    2155   -1152449.3            0   -1152449.3  0.044539964  0.027949999 -0.034918716 
    2361   -1152449.3            0   -1152449.3 5.3103747e-06 1.9393937e-06 -1.6171399e-05 
Loop time of 2.4225 on 104 procs for 206 steps with 288751 atoms

99.9% CPU use with 104 MPI tasks x 1 OpenMP threads

Minimization stats:
  Stopping criterion = energy tolerance
  Energy initial, next-to-last, final = 
     -1152449.33248309   -1152449.3338775   -1152449.3338775
  Force two-norm initial, final = 0.1702691 5.5066991e-05
  Force max component initial, final = 0.1035253 1.6171399e-05
  Final line search alpha, max atom move = 1.0000000 1.6171399e-05
  Iterations, force evaluations = 206 412

MPI task timing breakdown:
Section |  min time  |  avg time  |  max time  |%varavg| %total
---------------------------------------------------------------
Pair    | 0.62179    | 1.7352     | 2.265      |  35.8 | 71.63
Neigh   | 0          | 0          | 0          |   0.0 |  0.00
Comm    | 0.037042   | 0.39528    | 1.1651     |  52.1 | 16.32
Output  | 0          | 0          | 0          |   0.0 |  0.00
Modify  | 2.604e-05  | 0.0034086  | 0.0072854  |   2.8 |  0.14
Other   |            | 0.2886     |            |       | 11.91

Nlocal:        2776.45 ave        3961 max           0 min
Histogram: 8 4 4 0 6 10 8 4 26 34
Nghost:        3879.05 ave        5424 max         232 min
Histogram: 8 0 8 0 16 0 8 8 16 40
Neighs:        79213.5 ave      115499 max           0 min
Histogram: 8 4 4 0 10 6 8 8 24 32

Total # of neighbors = 8238200
Ave neighs/atom = 28.530464
Neighbor list builds = 0
Dangerous builds = 0
The dot product: 1.21623886342713e-07
Setting atom values ...
  1 settings made for x
[...]
Histogram: 8 0 8 0 16 0 8 8 16 40
Neighs:        79213.5 ave      114768 max           0 min
Histogram: 8 4 4 0 10 6 8 8 22 34

Total # of neighbors = 8238207
Ave neighs/atom = 28.530488
Neighbor list builds = 0
Dangerous builds = 0
The dot product: 4.74308945853393e-07
Setting atom values ...
  1 settings made for x
  1 settings made for y
  1 settings made for z
Setting up cg style minimization ...
  Unit style    : metal
  Current step  : 27673
Per MPI rank memory allocation (min/avg/max) = 5.441 | 5.816 | 6.074 Mbytes
Step PotEng KinEng TotEng v_fx v_fy v_fz 
   27673   -1152449.4            0   -1152449.4 -0.038312657 -0.039209821 -0.022060109 
   27887   -1152449.4            0   -1152449.4 2.8299829e-06 1.0061757e-06 -7.3784449e-07 
Loop time of 2.4765 on 104 procs for 214 steps with 288751 atoms

99.9% CPU use with 104 MPI tasks x 1 OpenMP threads

Minimization stats:
  Stopping criterion = energy tolerance
  Energy initial, next-to-last, final = 
     -1152449.37262999  -1152449.37429588  -1152449.37429588
  Force two-norm initial, final = 0.16773878 1.4634721e-05
  Force max component initial, final = 0.070138081 2.8299829e-06
  Final line search alpha, max atom move = 1.0000000 2.8299829e-06
  Iterations, force evaluations = 214 428

MPI task timing breakdown:
Section |  min time  |  avg time  |  max time  |%varavg| %total
---------------------------------------------------------------
Pair    | 0.64126    | 1.7981     | 2.3286     |  36.5 | 72.61
Neigh   | 0          | 0          | 0          |   0.0 |  0.00
Comm    | 0.036178   | 0.41035    | 1.2421     |  53.1 | 16.57
Output  | 0          | 0          | 0          |   0.0 |  0.00
Modify  | 2.6179e-05 | 0.0035336  | 0.0075278  |   2.8 |  0.14
Other   |            | 0.2645     |            |       | 10.68

Nlocal:        2776.45 ave        3945 max           0 min
Histogram: 8 4 4 0 4 12 8 2 24 38
Nghost:        3879.53 ave        5428 max         232 min
Histogram: 8 0 8 0 16 0 8 8 16 40
Neighs:        79213.5 ave      114768 max           0 min
Histogram: 8 4 4 0 10 6 8 8 22 34

Total # of neighbors = 8238205
Ave neighs/atom = 28.530481
Neighbor list builds = 0
Dangerous builds = 0
The dot product: -3.68054695479228e-08
Setting atom values ...
  1 settings made for x
  1 settings made for y
  1 settings made for z
Setting up cg style minimization ...
  Unit style    : metal
  Current step  : 27887
Per MPI rank memory allocation (min/avg/max) = 5.441 | 5.816 | 6.074 Mbytes
Step PotEng KinEng TotEng v_fx v_fy v_fz 
   27887   -1152449.4            0   -1152449.4 -0.035549866 -0.037542902 -0.022286178 
   27945   -1152449.4            0   -1152449.4 3.037012e-05 -4.1608459e-05 -7.3536087e-05 
Loop time of 0.67478 on 104 procs for 58 steps with 288751 atoms

99.9% CPU use with 104 MPI tasks x 1 OpenMP threads

Minimization stats:
  Stopping criterion = energy tolerance
  Energy initial, next-to-last, final = 
     -1152449.36325523  -1152449.36470757  -1152449.36470757
  Force two-norm initial, final = 0.16326657 0.00030889112
  Force max component initial, final = 0.069811176 8.1310253e-05
  Final line search alpha, max atom move = 1.0000000 8.1310253e-05
  Iterations, force evaluations = 58 116

MPI task timing breakdown:
Section |  min time  |  avg time  |  max time  |%varavg| %total
---------------------------------------------------------------
Pair    | 0.17457    | 0.48832    | 0.63531    |  18.9 | 72.37
Neigh   | 0          | 0          | 0          |   0.0 |  0.00
Comm    | 0.010397   | 0.11003    | 0.32799    |  27.7 | 16.31
Output  | 0          | 0          | 0          |   0.0 |  0.00
Modify  | 7.5289e-06 | 0.00096867 | 0.0020798  |   0.0 |  0.14
Other   |            | 0.07546    |            |       | 11.18

Nlocal:        2776.45 ave        3945 max           0 min
Histogram: 8 4 4 0 4 12 8 2 24 38
Nghost:        3879.53 ave        5428 max         232 min
Histogram: 8 0 8 0 16 0 8 8 16 40
Neighs:        79213.5 ave      114768 max           0 min
Histogram: 8 4 4 0 10 6 8 8 22 34

Total # of neighbors = 8238206
Ave neighs/atom = 28.530485
Neighbor list builds = 0
Dangerous builds = 0
The dot product: 1.29758600991348e-08
Setting atom values ...
  1 settings made for x
  1 settings made for y
  1 settings made for z
Setting up cg style minimization ...
  Unit style    : metal
  Current step  : 27945
Per MPI rank memory allocation (min/avg/max) = 5.441 | 5.816 | 6.074 Mbytes
Step PotEng KinEng TotEng v_fx v_fy v_fz 
   27945   -1152449.4            0   -1152449.4 -0.034403878 -0.036427393 -0.021948837 
   28000   -1152449.4            0   -1152449.4 -0.00011912298 -1.4312581e-06 8.1080118e-05 
   28073   -1152449.4            0   -1152449.4 4.1689005e-05 -2.4865718e-06 -3.2138493e-05 
Loop time of 1.48348 on 104 procs for 128 steps with 288751 atoms

99.9% CPU use with 104 MPI tasks x 1 OpenMP threads

Minimization stats:
  Stopping criterion = energy tolerance
  Energy initial, next-to-last, final = 
     -1152449.35336049  -1152449.35473753  -1152449.35473753
  Force two-norm initial, final = 0.16027033 0.00021451928
  Force max component initial, final = 0.069305593 5.1613702e-05
  Final line search alpha, max atom move = 1.0000000 5.1613702e-05
  Iterations, force evaluations = 128 256

MPI task timing breakdown:
Section |  min time  |  avg time  |  max time  |%varavg| %total
---------------------------------------------------------------
Pair    | 0.3832     | 1.0767     | 1.3985     |  28.2 | 72.58
Neigh   | 0          | 0          | 0          |   0.0 |  0.00
Comm    | 0.02142    | 0.24488    | 0.73871    |  41.1 | 16.51
Output  | 0.0001688  | 0.00017136 | 0.00030388 |   0.0 |  0.01
Modify  | 1.5923e-05 | 0.0021267  | 0.0046297  |   2.2 |  0.14
Other   |            | 0.1596     |            |       | 10.76

Nlocal:        2776.45 ave        3945 max           0 min
Histogram: 8 4 4 0 4 12 8 2 24 38
Nghost:        3879.53 ave        5428 max         232 min
Histogram: 8 0 8 0 16 0 8 8 16 40
Neighs:        79213.5 ave      114768 max           0 min
Histogram: 8 4 4 0 10 6 8 8 22 34

Total # of neighbors = 8238203
Ave neighs/atom = 28.530474
Neighbor list builds = 0
Dangerous builds = 0
The dot product: -2.43956678888097e-07
Setting atom values ...
  1 settings made for x
  1 settings made for y
  1 settings made for z
Setting up cg style minimization ...
  Unit style    : metal
  Current step  : 28073
Per MPI rank memory allocation (min/avg/max) = 5.441 | 5.816 | 6.074 Mbytes
Step PotEng KinEng TotEng v_fx v_fy v_fz 
   28073   -1152449.3            0   -1152449.3 -0.035832243 -0.035725558 -0.020299474 
   28187   -1152449.3            0   -1152449.3 4.1396531e-05 1.4107116e-05 -1.0847137e-05 
Loop time of 1.32246 on 104 procs for 114 steps with 288751 atoms

99.9% CPU use with 104 MPI tasks x 1 OpenMP threads

Minimization stats:
  Stopping criterion = energy tolerance
  Energy initial, next-to-last, final = 
     -1152449.34296495  -1152449.34434814  -1152449.34434814
  Force two-norm initial, final = 0.15858658 0.00019844836
  Force max component initial, final = 0.068605954 4.1396531e-05
  Final line search alpha, max atom move = 1.0000000 4.1396531e-05
  Iterations, force evaluations = 114 228

MPI task timing breakdown:
Section |  min time  |  avg time  |  max time  |%varavg| %total
---------------------------------------------------------------
Pair    | 0.34256    | 0.95698    | 1.2456     |  26.6 | 72.36
Neigh   | 0          | 0          | 0          |   0.0 |  0.00
Comm    | 0.020369   | 0.21581    | 0.64177    |  38.7 | 16.32
Output  | 0          | 0          | 0          |   0.0 |  0.00
Modify  | 1.4179e-05 | 0.0018892  | 0.0040309  |   2.0 |  0.14
Other   |            | 0.1478     |            |       | 11.17

Nlocal:        2776.45 ave        3945 max           0 min
Histogram: 8 4 4 0 4 12 8 2 24 38
Nghost:        3879.53 ave        5428 max         232 min
Histogram: 8 0 8 0 16 0 8 8 16 40
Neighs:        79213.5 ave      114769 max           0 min
Histogram: 8 4 4 0 10 6 8 8 22 34

Total # of neighbors = 8238204
Ave neighs/atom = 28.530478
Neighbor list builds = 0
Dangerous builds = 0
The dot product: -3.40818976927091e-07
Setting atom values ...
  1 settings made for x
  1 settings made for y
  1 settings made for z
Setting up cg style minimization ...
  Unit style    : metal
  Current step  : 28187
Per MPI rank memory allocation (min/avg/max) = 5.441 | 5.816 | 6.074 Mbytes
Step PotEng KinEng TotEng v_fx v_fy v_fz 
   28187   -1152449.3            0   -1152449.3 -0.043137039 -0.035881387 -0.015697348 
   28360   -1152449.3            0   -1152449.3 -1.3118139e-05 -7.6290315e-06 -6.2013012e-07 
Loop time of 2.00854 on 104 procs for 173 steps with 288751 atoms

99.9% CPU use with 104 MPI tasks x 1 OpenMP threads

Minimization stats:
  Stopping criterion = energy tolerance
  Energy initial, next-to-last, final = 
     -1152449.33236259  -1152449.33423206  -1152449.33423206
  Force two-norm initial, final = 0.16065754 0.00023227556
  Force max component initial, final = 0.067864745 1.3118139e-05
  Final line search alpha, max atom move = 1.0000000 1.3118139e-05
  Iterations, force evaluations = 173 346

MPI task timing breakdown:
Section |  min time  |  avg time  |  max time  |%varavg| %total
---------------------------------------------------------------
Pair    | 0.51763    | 1.4536     | 1.8861     |  32.7 | 72.37
Neigh   | 0          | 0          | 0          |   0.0 |  0.00
Comm    | 0.028786   | 0.33253    | 1.0006     |  47.6 | 16.56
Output  | 0          | 0          | 0          |   0.0 |  0.00
Modify  | 2.2003e-05 | 0.0028634  | 0.0061254  |   2.5 |  0.14
Other   |            | 0.2195     |            |       | 10.93

Nlocal:        2776.45 ave        3945 max           0 min
Histogram: 8 4 4 0 4 12 8 2 24 38
Nghost:        3879.53 ave        5428 max         232 min
Histogram: 8 0 8 0 16 0 8 8 16 40
Neighs:        79213.5 ave      114769 max           0 min
Histogram: 8 4 4 0 10 6 8 8 22 34

Total # of neighbors = 8238204
Ave neighs/atom = 28.530478
Neighbor list builds = 0
Dangerous builds = 0
The dot product: 2.43979475416791e-07
Setting atom values ...
  1 settings made for x
  1 settings made for y
  1 settings made for z
Setting up cg style minimization ...
  Unit style    : metal
  Current step  : 28360
Per MPI rank memory allocation (min/avg/max) = 5.441 | 5.816 | 6.074 Mbytes
Step PotEng KinEng TotEng v_fx v_fy v_fz 
   28360   -1152449.3            0   -1152449.3 -0.055967476 -0.036392337 -0.008103273 
   28612   -1152449.3            0   -1152449.3 -1.1335557e-05 7.875186e-06 1.7694965e-05 
Loop time of 2.92285 on 104 procs for 252 steps with 288751 atoms

99.9% CPU use with 104 MPI tasks x 1 OpenMP threads

Minimization stats:
  Stopping criterion = energy tolerance
  Energy initial, next-to-last, final = 
     -1152449.32396736  -1152449.33806539  -1152449.33806539
  Force two-norm initial, final = 0.16858427 8.9935701e-05
  Force max component initial, final = 0.067438015 1.8686841e-05
  Final line search alpha, max atom move = 1.0000000 1.8686841e-05
  Iterations, force evaluations = 252 504

MPI task timing breakdown:
Section |  min time  |  avg time  |  max time  |%varavg| %total
---------------------------------------------------------------
Pair    | 0.76008    | 2.1119     | 2.7516     |  39.3 | 72.25
Neigh   | 1.0187e-05 | 0.0029353  | 0.0042344  |   2.2 |  0.10
Comm    | 0.046485   | 0.47873    | 1.4183     |  57.2 | 16.38
Output  | 0          | 0          | 0          |   0.0 |  0.00
Modify  | 3.1301e-05 | 0.0041619  | 0.0089059  |   3.0 |  0.14
Other   |            | 0.3252     |            |       | 11.12

Nlocal:        2776.45 ave        3945 max           0 min
Histogram: 8 4 4 0 4 12 8 2 24 38
Nghost:        3879.53 ave        5428 max         232 min
Histogram: 8 0 8 0 16 0 8 8 16 40
Neighs:        79213.4 ave      114800 max           0 min
Histogram: 8 4 4 0 10 6 8 8 22 34

Total # of neighbors = 8238197
Ave neighs/atom = 28.530454
Neighbor list builds = 1
Dangerous builds = 0
The dot product: 6.5534330549372e-07
Setting atom values ...
  1 settings made for x
  1 settings made for y
  1 settings made for z
Setting up cg style minimization ...
  Unit style    : metal
  Current step  : 28612
Per MPI rank memory allocation (min/avg/max) = 5.441 | 5.816 | 6.074 Mbytes
Step PotEng KinEng TotEng v_fx v_fy v_fz 
   28612   -1152449.3            0   -1152449.3 -0.031152828 -0.028545913 -0.016175336 
   28795   -1152449.3            0   -1152449.3 -8.6419547e-06 1.3908816e-05 2.3264403e-05 
Loop time of 2.12369 on 104 procs for 183 steps with 288751 atoms

99.9% CPU use with 104 MPI tasks x 1 OpenMP threads

Minimization stats:
  Stopping criterion = energy tolerance
  Energy initial, next-to-last, final = 
     -1152449.33977437  -1152449.34084776  -1152449.34084776
  Force two-norm initial, final = 0.13965577 9.4889131e-05
  Force max component initial, final = 0.067416669 2.3264403e-05
  Final line search alpha, max atom move = 1.0000000 2.3264403e-05
  Iterations, force evaluations = 183 366

MPI task timing breakdown:
Section |  min time  |  avg time  |  max time  |%varavg| %total
---------------------------------------------------------------
Pair    | 0.54675    | 1.5365     | 1.9959     |  33.7 | 72.35
Neigh   | 0          | 0          | 0          |   0.0 |  0.00
Comm    | 0.032002   | 0.34777    | 1.0358     |  48.7 | 16.38
Output  | 0          | 0          | 0          |   0.0 |  0.00
Modify  | 2.312e-05  | 0.0030241  | 0.0064882  |   2.6 |  0.14
Other   |            | 0.2364     |            |       | 11.13

Nlocal:        2776.45 ave        3948 max           0 min
Histogram: 8 4 4 0 4 12 8 4 22 38
Nghost:        3879.47 ave        5428 max         232 min
Histogram: 8 0 8 0 16 0 8 8 16 40
Neighs:        79213.4 ave      114912 max           0 min
Histogram: 8 4 4 0 10 6 8 8 20 36

Total # of neighbors = 8238192
Ave neighs/atom = 28.530436
Neighbor list builds = 0
Dangerous builds = 0
The dot product: -1.69024648054083e-08
Setting atom values ...
  1 settings made for x
  1 settings made for y
  1 settings made for z
Setting up cg style minimization ...
  Unit style    : metal
  Current step  : 28795
Per MPI rank memory allocation (min/avg/max) = 5.441 | 5.816 | 6.074 Mbytes
Step PotEng KinEng TotEng v_fx v_fy v_fz 
   28795   -1152449.3            0   -1152449.3 -0.031488423 -0.028591834 -0.016084087 
   29000   -1152449.3            0   -1152449.3 -9.633067e-06 -1.336335e-06 4.510728e-06 
   29002   -1152449.3            0   -1152449.3 -4.9573502e-06 4.6943241e-06 9.1708415e-06 
Loop time of 2.4354 on 104 procs for 207 steps with 288751 atoms

99.9% CPU use with 104 MPI tasks x 1 OpenMP threads

Minimization stats:
  Stopping criterion = energy tolerance
  Energy initial, next-to-last, final = 
     -1152449.34136087  -1152449.34242183  -1152449.34242183
  Force two-norm initial, final = 0.1396028 5.5505115e-05
  Force max component initial, final = 0.065990989 1.6318682e-05
  Final line search alpha, max atom move = 1.0000000 1.6318682e-05
  Iterations, force evaluations = 207 414

MPI task timing breakdown:
Section |  min time  |  avg time  |  max time  |%varavg| %total
---------------------------------------------------------------
Pair    | 0.61942    | 1.7389     | 2.2717     |  35.9 | 71.40
Neigh   | 0          | 0          | 0          |   0.0 |  0.00
Comm    | 0.036753   | 0.39717    | 1.1691     |  51.5 | 16.31
Output  | 0.00022934 | 0.0002368  | 0.00041398 |   0.0 |  0.01
Modify  | 2.5606e-05 | 0.0034233  | 0.0073323  |   2.8 |  0.14
Other   |            | 0.2957     |            |       | 12.14

Nlocal:        2776.45 ave        3948 max           0 min
Histogram: 8 4 4 0 4 12 8 4 22 38
Nghost:        3879.47 ave        5428 max         232 min
Histogram: 8 0 8 0 16 0 8 8 16 40
Neighs:        79213.4 ave      114919 max           0 min
Histogram: 8 4 4 0 10 6 8 8 20 36

Total # of neighbors = 8238191
Ave neighs/atom = 28.530433
Neighbor list builds = 0
Dangerous builds = 0
The dot product: -1.31577620541475e-09
Setting atom values ...
  1 settings made for x
  1 settings made for y
  1 settings made for z
Setting up cg style minimization ...
  Unit style    : metal
  Current step  : 29002
Per MPI rank memory allocation (min/avg/max) = 5.441 | 5.816 | 6.074 Mbytes
Step PotEng KinEng TotEng v_fx v_fy v_fz 
   29002   -1152449.3            0   -1152449.3  -0.03157136 -0.028004004 -0.015349002 
   29179   -1152449.3            0   -1152449.3 -2.5771153e-05 2.6353957e-05 5.0163345e-05 
Loop time of 2.05995 on 104 procs for 177 steps with 288751 atoms

99.9% CPU use with 104 MPI tasks x 1 OpenMP threads

Minimization stats:
  Stopping criterion = energy tolerance
  Energy initial, next-to-last, final = 
     -1152449.34158065  -1152449.34263496  -1152449.34263496
  Force two-norm initial, final = 0.13928813 0.00015592659
  Force max component initial, final = 0.064560826 5.0163345e-05
  Final line search alpha, max atom move = 1.0000000 5.0163345e-05
  Iterations, force evaluations = 177 354

MPI task timing breakdown:
Section |  min time  |  avg time  |  max time  |%varavg| %total
---------------------------------------------------------------
Pair    | 0.52979    | 1.4884     | 1.9288     |  33.2 | 72.26
Neigh   | 0          | 0          | 0          |   0.0 |  0.00
Comm    | 0.030587   | 0.34061    | 1.0294     |  48.3 | 16.53
Output  | 0          | 0          | 0          |   0.0 |  0.00
Modify  | 2.1824e-05 | 0.0029235  | 0.0062115  |   2.5 |  0.14
Other   |            | 0.228      |            |       | 11.07

Nlocal:        2776.45 ave        3947 max           0 min
Histogram: 8 4 4 0 4 12 8 4 22 38
Nghost:        3879.47 ave        5428 max         232 min
Histogram: 8 0 8 0 16 0 8 8 16 40
Neighs:        79213.4 ave      114885 max           0 min
Histogram: 8 4 4 0 10 6 8 8 20 36

Total # of neighbors = 8238189
Ave neighs/atom = 28.530426
Neighbor list builds = 0
Dangerous builds = 0
The dot product: -1.12247552309979e-08
Setting atom values ...
  1 settings made for x
  1 settings made for y
  1 settings made for z
Setting up cg style minimization ...
  Unit style    : metal
  Current step  : 29179
Per MPI rank memory allocation (min/avg/max) = 5.441 | 5.816 | 6.074 Mbytes
Step PotEng KinEng TotEng v_fx v_fy v_fz 
   29179   -1152449.3            0   -1152449.3 -0.032761997    -0.027501 -0.014005426 
   29394   -1152449.3            0   -1152449.3 -4.9399856e-06 1.6500105e-06 5.2794224e-06 
Loop time of 2.48989 on 104 procs for 215 steps with 288751 atoms

99.9% CPU use with 104 MPI tasks x 1 OpenMP threads

Minimization stats:
  Stopping criterion = energy tolerance
  Energy initial, next-to-last, final = 
     -1152449.34038525  -1152449.34143007  -1152449.34143007
  Force two-norm initial, final = 0.13880609 3.6602065e-05
  Force max component initial, final = 0.063084054 7.7804854e-06
  Final line search alpha, max atom move = 1.0000000 7.7804854e-06
  Iterations, force evaluations = 215 430

MPI task timing breakdown:
Section |  min time  |  avg time  |  max time  |%varavg| %total
---------------------------------------------------------------
Pair    | 0.64429    | 1.8013     | 2.348      |  36.4 | 72.34
Neigh   | 0          | 0          | 0          |   0.0 |  0.00
Comm    | 0.039276   | 0.40568    | 1.2124     |  53.2 | 16.29
Output  | 0          | 0          | 0          |   0.0 |  0.00
Modify  | 2.6436e-05 | 0.0035509  | 0.007591   |   2.8 |  0.14
Other   |            | 0.2794     |            |       | 11.22

Nlocal:        2776.45 ave        3947 max           0 min
Histogram: 8 4 4 0 4 12 8 4 22 38
Nghost:        3879.47 ave        5428 max         232 min
Histogram: 8 0 8 0 16 0 8 8 16 40
Neighs:        79213.4 ave      114885 max           0 min
Histogram: 8 4 4 0 10 6 8 8 20 36

Total # of neighbors = 8238191
Ave neighs/atom = 28.530433
Neighbor list builds = 0
Dangerous builds = 0
The dot product: 5.9551785223206e-09
