LAMMPS (29 Oct 2020)
OMP_NUM_THREADS environment is not set. Defaulting to 1 thread. (../comm.cpp:94)
  using 1 OpenMP thread(s) per MPI task
OMP_NUM_THREADS environment is not set. Defaulting to 1 thread. (../comm.cpp:94)
  using 1 OpenMP thread(s) per MPI task
Reading data file ...
  orthogonal box = (-122.39241 -121.13707 -37.090501) to (122.39241 121.13707 37.090501)
  13 by 4 by 2 MPI processor grid
  reading atoms ...
  288751 atoms
  read_data CPU = 0.372 seconds
199981 atoms in group inner
88770 atoms in group outer
1 atoms in group carbon
Neighbor list info ...
  update every 1 steps, delay 0 steps, check yes
  max neighbors/atom: 2000, page size: 100000
  master list distance cutoff = 5.6
  ghost atom cutoff = 5.6
  binsize = 2.8, bins = 88 87 27
  1 neighbor lists, perpetual/occasional/extra = 1 0 0
  (1) pair eam/alloy, perpetual
      attributes: half, newton on
      pair build: half/bin/atomonly/newton
      stencil: half/bin/3d/newton
      bin: standard
Setting up cg style minimization ...
  Unit style    : metal
  Current step  : 0
Per MPI rank memory allocation (min/avg/max) = 5.441 | 5.816 | 6.074 Mbytes
Step v_fx v_fy v_fz PotEng KinEng TotEng 
       0  -0.54023793  0.028136147  -0.46680713   -1152447.8            0   -1152447.8 
     217 1.3113667e-06 1.7714899e-06 7.5443218e-07   -1152449.5            0   -1152449.5 
Loop time of 2.52317 on 104 procs for 217 steps with 288751 atoms

99.9% CPU use with 104 MPI tasks x 1 OpenMP threads

Minimization stats:
  Stopping criterion = energy tolerance
  Energy initial, next-to-last, final = 
     -1152447.84733371  -1152449.45035262  -1152449.45035262
  Force two-norm initial, final = 9.7754837 1.1032911e-05
  Force max component initial, final = 4.4600180 1.7714899e-06
  Final line search alpha, max atom move = 1.0000000 1.7714899e-06
  Iterations, force evaluations = 217 433

MPI task timing breakdown:
Section |  min time  |  avg time  |  max time  |%varavg| %total
---------------------------------------------------------------
Pair    | 0.6751     | 1.8213     | 2.3625     |  36.0 | 72.18
Neigh   | 2.3095e-05 | 0.0058734  | 0.0085119  |   3.2 |  0.23
Comm    | 0.042838   | 0.40727    | 1.224      |  53.6 | 16.14
Output  | 0          | 0          | 0          |   0.0 |  0.00
Modify  | 2.5795e-05 | 0.0023349  | 0.0059855  |   3.0 |  0.09
Other   |            | 0.2864     |            |       | 11.35

Nlocal:        2776.45 ave        3960 max           0 min
Histogram: 8 4 4 0 4 12 8 2 28 34
Nghost:        3879.01 ave        5424 max         232 min
Histogram: 8 0 8 0 16 0 8 8 16 40
Neighs:        79213.4 ave      115432 max           0 min
Histogram: 8 4 4 0 10 6 8 8 24 32

Total # of neighbors = 8238197
Ave neighs/atom = 28.530454
Neighbor list builds = 2
Dangerous builds = 1
Setting atom values ...
  1 settings made for x
  1 settings made for y
  1 settings made for z
Setting up cg style minimization ...
  Unit style    : metal
  Current step  : 217
Per MPI rank memory allocation (min/avg/max) = 5.441 | 5.816 | 6.074 Mbytes
Step PotEng KinEng TotEng v_fx v_fy v_fz 
     217   -1152449.4            0   -1152449.4 -0.00064000076  0.001318491 0.0026138933 
     352   -1152449.5            0   -1152449.5 -2.0069792e-06 -7.1067458e-06 -2.7694152e-05 
Loop time of 1.57769 on 104 procs for 135 steps with 288751 atoms

99.9% CPU use with 104 MPI tasks x 1 OpenMP threads

Minimization stats:
  Stopping criterion = energy tolerance
  Energy initial, next-to-last, final = 
     -1152449.44942736  -1152449.45004199  -1152449.45004199
  Force two-norm initial, final = 0.1151291 0.00013361258
  Force max component initial, final = 0.053220313 2.7694152e-05
  Final line search alpha, max atom move = 1.0000000 2.7694152e-05
  Iterations, force evaluations = 135 270

MPI task timing breakdown:
Section |  min time  |  avg time  |  max time  |%varavg| %total
---------------------------------------------------------------
Pair    | 0.41212    | 1.1393     | 1.4878     |  28.7 | 72.21
Neigh   | 0          | 0          | 0          |   0.0 |  0.00
Comm    | 0.024969   | 0.25635    | 0.77516    |  42.4 | 16.25
Output  | 0          | 0          | 0          |   0.0 |  0.00
Modify  | 1.7148e-05 | 0.0022277  | 0.0047404  |   2.2 |  0.14
Other   |            | 0.1798     |            |       | 11.40

Nlocal:        2776.45 ave        3961 max           0 min
Histogram: 8 4 4 0 6 10 8 2 28 34
Nghost:        3879.01 ave        5425 max         232 min
Histogram: 8 0 8 0 16 0 8 8 16 40
Neighs:        79213.4 ave      115455 max           0 min
Histogram: 8 4 4 0 10 6 8 8 24 32

Total # of neighbors = 8238197
Ave neighs/atom = 28.530454
Neighbor list builds = 0
Dangerous builds = 0
Setting atom values ...
  1 settings made for x
  1 settings made for y
  1 settings made for z
Setting up cg style minimization ...
  Unit style    : metal
  Current step  : 352
Per MPI rank memory allocation (min/avg/max) = 5.441 | 5.816 | 6.074 Mbytes
Step PotEng KinEng TotEng v_fx v_fy v_fz 
     352   -1152449.4            0   -1152449.4 -0.0048953612 0.0043535001 0.0031675486 
     533   -1152449.4            0   -1152449.4 8.0375704e-08 -1.079209e-06 -3.8598399e-06 
Loop time of 2.09495 on 104 procs for 181 steps with 288751 atoms

99.9% CPU use with 104 MPI tasks x 1 OpenMP threads

Minimization stats:
  Stopping criterion = energy tolerance
  Energy initial, next-to-last, final = 
      -1152449.4464652  -1152449.44816112  -1152449.44816112
  Force two-norm initial, final = 0.19155397 8.8761603e-05
  Force max component initial, final = 0.088778787 4.3366221e-06
  Final line search alpha, max atom move = 1.0000000 4.3366221e-06
  Iterations, force evaluations = 181 362

MPI task timing breakdown:
Section |  min time  |  avg time  |  max time  |%varavg| %total
---------------------------------------------------------------
Pair    | 0.55346    | 1.5186     | 1.972      |  33.2 | 72.49
Neigh   | 0          | 0          | 0          |   0.0 |  0.00
Comm    | 0.034716   | 0.33954    | 1.0239     |  49.1 | 16.21
Output  | 0          | 0          | 0          |   0.0 |  0.00
Modify  | 2.1784e-05 | 0.0029865  | 0.0064058  |   2.6 |  0.14
Other   |            | 0.2338     |            |       | 11.16

Nlocal:        2776.45 ave        3961 max           0 min
Histogram: 8 4 4 0 6 10 8 2 28 34
Nghost:        3879.01 ave        5425 max         232 min
Histogram: 8 0 8 0 16 0 8 8 16 40
Neighs:        79213.4 ave      115455 max           0 min
Histogram: 8 4 4 0 10 6 8 8 24 32

Total # of neighbors = 8238196
Ave neighs/atom = 28.530450
Neighbor list builds = 0
Dangerous builds = 0
The dot product: 3.09609341240614e-09
Setting atom values ...
  1 settings made for x
  1 settings made for y
  1 settings made for z
Setting up cg style minimization ...
  Unit style    : metal
  Current step  : 533
Per MPI rank memory allocation (min/avg/max) = 5.441 | 5.816 | 6.074 Mbytes
Step PotEng KinEng TotEng v_fx v_fy v_fz 
     533   -1152449.4            0   -1152449.4 -0.011916685 0.0087455532 0.00073899702 
     685   -1152449.4            0   -1152449.4 1.3457517e-06 3.8883494e-06 2.0818685e-05 
Loop time of 1.74997 on 104 procs for 152 steps with 288751 atoms

99.9% CPU use with 104 MPI tasks x 1 OpenMP threads

Minimization stats:
  Stopping criterion = energy tolerance
  Energy initial, next-to-last, final = 
     -1152449.44295238  -1152449.44465852  -1152449.44465852
  Force two-norm initial, final = 0.19226233 0.00012849408
  Force max component initial, final = 0.088494777 2.0818685e-05
  Final line search alpha, max atom move = 1.0000000 2.0818685e-05
  Iterations, force evaluations = 152 304

MPI task timing breakdown:
Section |  min time  |  avg time  |  max time  |%varavg| %total
---------------------------------------------------------------
Pair    | 0.46479    | 1.2836     | 1.6585     |  30.4 | 73.35
Neigh   | 0          | 0          | 0          |   0.0 |  0.00
Comm    | 0.026306   | 0.2844     | 0.86964    |  45.6 | 16.25
Output  | 0          | 0          | 0          |   0.0 |  0.00
Modify  | 1.8413e-05 | 0.0025053  | 0.0053343  |   2.4 |  0.14
Other   |            | 0.1794     |            |       | 10.25

Nlocal:        2776.45 ave        3961 max           0 min
Histogram: 8 4 4 0 6 10 8 2 28 34
Nghost:        3878.99 ave        5424 max         232 min
Histogram: 8 0 8 0 16 0 8 8 16 40
Neighs:        79213.4 ave      115455 max           0 min
Histogram: 8 4 4 0 10 6 8 8 24 32

Total # of neighbors = 8238197
Ave neighs/atom = 28.530454
Neighbor list builds = 0
Dangerous builds = 0
The dot product: -2.25479234288696e-08
Setting atom values ...
  1 settings made for x
  1 settings made for y
  1 settings made for z
Setting up cg style minimization ...
  Unit style    : metal
  Current step  : 685
Per MPI rank memory allocation (min/avg/max) = 5.441 | 5.816 | 6.074 Mbytes
Step PotEng KinEng TotEng v_fx v_fy v_fz 
     685   -1152449.4            0   -1152449.4 -0.017558273   0.01365063 -0.00019408645 
     803   -1152449.4            0   -1152449.4 -2.5454589e-06 1.9962959e-06 5.4228207e-08 
Loop time of 1.36844 on 104 procs for 118 steps with 288751 atoms

99.9% CPU use with 104 MPI tasks x 1 OpenMP threads

Minimization stats:
  Stopping criterion = energy tolerance
  Energy initial, next-to-last, final = 
     -1152449.43805231  -1152449.43977389  -1152449.43977389
  Force two-norm initial, final = 0.19280231 0.00016001576
  Force max component initial, final = 0.087577101 3.3058876e-05
  Final line search alpha, max atom move = 1.0000000 3.3058876e-05
  Iterations, force evaluations = 118 236

MPI task timing breakdown:
Section |  min time  |  avg time  |  max time  |%varavg| %total
---------------------------------------------------------------
Pair    | 0.36468    | 0.9908     | 1.2832     |  26.7 | 72.40
Neigh   | 0          | 0          | 0          |   0.0 |  0.00
Comm    | 0.020874   | 0.22092    | 0.6658     |  39.6 | 16.14
Output  | 0          | 0          | 0          |   0.0 |  0.00
Modify  | 1.4668e-05 | 0.0019509  | 0.004256   |   2.1 |  0.14
Other   |            | 0.1548     |            |       | 11.31

Nlocal:        2776.45 ave        3961 max           0 min
Histogram: 8 4 4 0 6 10 8 2 28 34
Nghost:        3878.99 ave        5424 max         232 min
Histogram: 8 0 8 0 16 0 8 8 16 40
Neighs:        79213.4 ave      115455 max           0 min
Histogram: 8 4 4 0 10 6 8 8 24 32

Total # of neighbors = 8238196
Ave neighs/atom = 28.530450
Neighbor list builds = 0
Dangerous builds = 0
The dot product: 1.15934808390936e-08
Setting atom values ...
  1 settings made for x
  1 settings made for y
  1 settings made for z
Setting up cg style minimization ...
  Unit style    : metal
  Current step  : 803
Per MPI rank memory allocation (min/avg/max) = 5.441 | 5.816 | 6.074 Mbytes
Step PotEng KinEng TotEng v_fx v_fy v_fz 
     803   -1152449.4            0   -1152449.4 -0.018150547  0.016036484 0.0017780153 
     986   -1152449.4            0   -1152449.4 -4.7588745e-07 -4.1244444e-07 -4.2032782e-06 
Loop time of 2.12626 on 104 procs for 183 steps with 288751 atoms

99.9% CPU use with 104 MPI tasks x 1 OpenMP threads

Minimization stats:
  Stopping criterion = energy tolerance
  Energy initial, next-to-last, final = 
     -1152449.43189555  -1152449.43361222  -1152449.43361222
  Force two-norm initial, final = 0.19218512 5.6892260e-05
  Force max component initial, final = 0.086439692 4.2032782e-06
  Final line search alpha, max atom move = 1.0000000 4.2032782e-06
  Iterations, force evaluations = 183 366

MPI task timing breakdown:
Section |  min time  |  avg time  |  max time  |%varavg| %total
---------------------------------------------------------------
Pair    | 0.5581     | 1.5409     | 2.0018     |  33.3 | 72.47
Neigh   | 0          | 0          | 0          |   0.0 |  0.00
Comm    | 0.035602   | 0.34304    | 1.0445     |  49.6 | 16.13
Output  | 0          | 0          | 0          |   0.0 |  0.00
Modify  | 2.1985e-05 | 0.0030146  | 0.0064148  |   2.6 |  0.14
Other   |            | 0.2393     |            |       | 11.25

Nlocal:        2776.45 ave        3961 max           0 min
Histogram: 8 4 4 0 6 10 8 2 28 34
Nghost:        3878.99 ave        5424 max         232 min
Histogram: 8 0 8 0 16 0 8 8 16 40
Neighs:        79213.4 ave      115455 max           0 min
Histogram: 8 4 4 0 10 6 8 8 24 32

Total # of neighbors = 8238198
Ave neighs/atom = 28.530457
Neighbor list builds = 0
Dangerous builds = 0
The dot product: 3.67141254857558e-09
Setting atom values ...
  1 settings made for x
  1 settings made for y
  1 settings made for z
Setting up cg style minimization ...
  Unit style    : metal
  Current step  : 986
Per MPI rank memory allocation (min/avg/max) = 5.441 | 5.816 | 6.074 Mbytes
Step PotEng KinEng TotEng v_fx v_fy v_fz 
     986   -1152449.4            0   -1152449.4 -0.015953743  0.015764986 0.0047699677 
    1000   -1152449.4            0   -1152449.4 0.00014507836 3.4212078e-05 0.00088877383 
    1096   -1152449.4            0   -1152449.4 5.8880109e-07 4.7086991e-06 2.7595898e-05 
Loop time of 1.26163 on 104 procs for 110 steps with 288751 atoms

99.9% CPU use with 104 MPI tasks x 1 OpenMP threads

Minimization stats:
  Stopping criterion = energy tolerance
  Energy initial, next-to-last, final = 
     -1152449.42448885  -1152449.42618247  -1152449.42618247
  Force two-norm initial, final = 0.19083736 0.0001828915
  Force max component initial, final = 0.085882069 2.7595898e-05
  Final line search alpha, max atom move = 1.0000000 2.7595898e-05
  Iterations, force evaluations = 110 220

MPI task timing breakdown:
Section |  min time  |  avg time  |  max time  |%varavg| %total
---------------------------------------------------------------
Pair    | 0.33602    | 0.92275    | 1.1931     |  25.8 | 73.14
Neigh   | 0          | 0          | 0          |   0.0 |  0.00
Comm    | 0.019448   | 0.20382    | 0.61939    |  38.8 | 16.16
Output  | 0.00014669 | 0.00015215 | 0.00022745 |   0.0 |  0.01
Modify  | 1.3425e-05 | 0.0018145  | 0.0038958  |   2.0 |  0.14
Other   |            | 0.1331     |            |       | 10.55

Nlocal:        2776.45 ave        3961 max           0 min
Histogram: 8 4 4 0 6 10 8 2 28 34
Nghost:        3878.99 ave        5424 max         232 min
Histogram: 8 0 8 0 16 0 8 8 16 40
Neighs:        79213.4 ave      115455 max           0 min
Histogram: 8 4 4 0 10 6 8 8 24 32

Total # of neighbors = 8238198
Ave neighs/atom = 28.530457
Neighbor list builds = 0
Dangerous builds = 0
The dot product: 2.47302789148012e-09
Setting atom values ...
  1 settings made for x
  1 settings made for y
  1 settings made for z
Setting up cg style minimization ...
  Unit style    : metal
  Current step  : 1096
Per MPI rank memory allocation (min/avg/max) = 5.441 | 5.816 | 6.074 Mbytes
Step PotEng KinEng TotEng v_fx v_fy v_fz 
    1096   -1152449.4            0   -1152449.4 -0.012809431  0.013904114 0.0076217365 
    1228   -1152449.4            0   -1152449.4 6.8358327e-07 1.8361156e-06 1.2988209e-05 
Loop time of 1.55087 on 104 procs for 132 steps with 288751 atoms

99.9% CPU use with 104 MPI tasks x 1 OpenMP threads

Minimization stats:
  Stopping criterion = energy tolerance
  Energy initial, next-to-last, final = 
     -1152449.41577579   -1152449.4174485   -1152449.4174485
  Force two-norm initial, final = 0.18931454 0.0001286995
  Force max component initial, final = 0.086051758 1.6367105e-05
  Final line search alpha, max atom move = 1.0000000 1.6367105e-05
  Iterations, force evaluations = 132 264

MPI task timing breakdown:
Section |  min time  |  avg time  |  max time  |%varavg| %total
---------------------------------------------------------------
Pair    | 0.40272    | 1.1177     | 1.4439     |  28.0 | 72.07
Neigh   | 0          | 0          | 0          |   0.0 |  0.00
Comm    | 0.030052   | 0.25301    | 0.77996    |  42.2 | 16.31
Output  | 0          | 0          | 0          |   0.0 |  0.00
Modify  | 1.6325e-05 | 0.0021767  | 0.0046718  |   2.2 |  0.14
Other   |            | 0.178      |            |       | 11.48

Nlocal:        2776.45 ave        3961 max           0 min
Histogram: 8 4 4 0 6 10 8 2 28 34
Nghost:        3878.99 ave        5424 max         232 min
Histogram: 8 0 8 0 16 0 8 8 16 40
Neighs:        79213.5 ave      115455 max           0 min
Histogram: 8 4 4 0 10 6 8 8 24 32

Total # of neighbors = 8238202
Ave neighs/atom = 28.530471
Neighbor list builds = 0
Dangerous builds = 0
The dot product: 8.84429620282107e-09
Setting atom values ...
  1 settings made for x
  1 settings made for y
  1 settings made for z
Setting up cg style minimization ...
  Unit style    : metal
  Current step  : 1228
Per MPI rank memory allocation (min/avg/max) = 5.441 | 5.816 | 6.074 Mbytes
Step PotEng KinEng TotEng v_fx v_fy v_fz 
    1228   -1152449.4            0   -1152449.4 -0.0093346563  0.011252714  0.010135738 
    1368   -1152449.4            0   -1152449.4 2.1047013e-07 8.7281615e-07 5.3858309e-06 
Loop time of 1.60166 on 104 procs for 140 steps with 288751 atoms

99.9% CPU use with 104 MPI tasks x 1 OpenMP threads

Minimization stats:
  Stopping criterion = energy tolerance
  Energy initial, next-to-last, final = 
     -1152449.40572365  -1152449.40739163  -1152449.40739163
  Force two-norm initial, final = 0.18789952 0.00016728912
  Force max component initial, final = 0.086958777 9.1958833e-06
  Final line search alpha, max atom move = 1.0000000 9.1958833e-06
  Iterations, force evaluations = 140 280

MPI task timing breakdown:
Section |  min time  |  avg time  |  max time  |%varavg| %total
---------------------------------------------------------------
Pair    | 0.42622    | 1.1737     | 1.5178     |  29.2 | 73.28
Neigh   | 0          | 0          | 0          |   0.0 |  0.00
Comm    | 0.024967   | 0.25885    | 0.7886     |  43.8 | 16.16
Output  | 0          | 0          | 0          |   0.0 |  0.00
Modify  | 1.7111e-05 | 0.0023127  | 0.0049724  |   2.3 |  0.14
Other   |            | 0.1668     |            |       | 10.41

Nlocal:        2776.45 ave        3959 max           0 min
Histogram: 8 4 4 0 4 12 8 2 28 34
Nghost:        3878.99 ave        5424 max         232 min
Histogram: 8 0 8 0 16 0 8 8 16 40
Neighs:        79213.5 ave      115406 max           0 min
Histogram: 8 4 4 0 10 6 8 8 24 32

Total # of neighbors = 8238206
Ave neighs/atom = 28.530485
Neighbor list builds = 0
Dangerous builds = 0
The dot product: 8.1219060849215e-09
Setting atom values ...
  1 settings made for x
  1 settings made for y
  1 settings made for z
Setting up cg style minimization ...
  Unit style    : metal
  Current step  : 1368
Per MPI rank memory allocation (min/avg/max) = 5.441 | 5.816 | 6.074 Mbytes
Step PotEng KinEng TotEng v_fx v_fy v_fz 
    1368   -1152449.4            0   -1152449.4 -0.0057047606 0.0083381147  0.012633227 
    1523   -1152449.4            0   -1152449.4 7.3122099e-06 1.4621033e-05 0.00010170641 
Loop time of 1.80567 on 104 procs for 155 steps with 288751 atoms

99.9% CPU use with 104 MPI tasks x 1 OpenMP threads

Minimization stats:
  Stopping criterion = energy tolerance
  Energy initial, next-to-last, final = 
     -1152449.39433931  -1152449.39603333  -1152449.39603333
  Force two-norm initial, final = 0.18661438 0.00023845913
  Force max component initial, final = 0.08849665 0.00010170641
  Final line search alpha, max atom move = 1.0000000 0.00010170641
  Iterations, force evaluations = 155 310

MPI task timing breakdown:
Section |  min time  |  avg time  |  max time  |%varavg| %total
---------------------------------------------------------------
Pair    | 0.47696    | 1.3103     | 1.6953     |  30.7 | 72.57
Neigh   | 0          | 0          | 0          |   0.0 |  0.00
Comm    | 0.02978    | 0.29478    | 0.88899    |  45.6 | 16.33
Output  | 0          | 0          | 0          |   0.0 |  0.00
Modify  | 1.885e-05  | 0.0025586  | 0.0054611  |   2.4 |  0.14
Other   |            | 0.198      |            |       | 10.97

Nlocal:        2776.45 ave        3958 max           0 min
Histogram: 8 4 4 0 4 12 8 2 28 34
Nghost:        3878.99 ave        5424 max         232 min
Histogram: 8 0 8 0 16 0 8 8 16 40
Neighs:        79213.5 ave      115380 max           0 min
Histogram: 8 4 4 0 10 6 8 8 24 32

Total # of neighbors = 8238204
Ave neighs/atom = 28.530478
Neighbor list builds = 0
Dangerous builds = 0
The dot product: 3.14455913917857e-07
Setting atom values ...
  1 settings made for x
  1 settings made for y
  1 settings made for z
Setting up cg style minimization ...
  Unit style    : metal
  Current step  : 1523
Per MPI rank memory allocation (min/avg/max) = 5.441 | 5.816 | 6.074 Mbytes
Step PotEng KinEng TotEng v_fx v_fy v_fz 
    1523   -1152449.4            0   -1152449.4 -0.0013952053 0.0054100765  0.016983398 
    1713   -1152449.4            0   -1152449.4 3.0153055e-06 1.4855324e-08 1.2308611e-05 
Loop time of 2.20289 on 104 procs for 190 steps with 288751 atoms

99.9% CPU use with 104 MPI tasks x 1 OpenMP threads

Minimization stats:
  Stopping criterion = energy tolerance
  Energy initial, next-to-last, final = 
     -1152449.38171438  -1152449.38356283  -1152449.38356283
  Force two-norm initial, final = 0.18537055 8.9732485e-05
  Force max component initial, final = 0.090663496 1.2308611e-05
  Final line search alpha, max atom move = 1.0000000 1.2308611e-05
  Iterations, force evaluations = 190 380

MPI task timing breakdown:
Section |  min time  |  avg time  |  max time  |%varavg| %total
---------------------------------------------------------------
Pair    | 0.5817     | 1.6012     | 2.0722     |  33.9 | 72.69
Neigh   | 0          | 0          | 0          |   0.0 |  0.00
Comm    | 0.034265   | 0.35911    | 1.0962     |  50.8 | 16.30
Output  | 0          | 0          | 0          |   0.0 |  0.00
Modify  | 2.3011e-05 | 0.0031267  | 0.0067101  |   2.6 |  0.14
Other   |            | 0.2395     |            |       | 10.87

Nlocal:        2776.45 ave        3957 max           0 min
Histogram: 8 4 4 0 4 12 8 2 28 34
Nghost:        3879.01 ave        5424 max         232 min
Histogram: 8 0 8 0 16 0 8 8 16 40
Neighs:        79213.5 ave      115337 max           0 min
Histogram: 8 4 4 0 10 6 8 8 24 32

Total # of neighbors = 8238203
Ave neighs/atom = 28.530474
Neighbor list builds = 0
Dangerous builds = 0
The dot product: 8.73804185436513e-08
Setting atom values ...
  1 settings made for x
  1 settings made for y
  1 settings made for z
Setting up cg style minimization ...
  Unit style    : metal
  Current step  : 1713
Per MPI rank memory allocation (min/avg/max) = 5.441 | 5.816 | 6.074 Mbytes
Step PotEng KinEng TotEng v_fx v_fy v_fz 
    1713   -1152449.4            0   -1152449.4 0.0044621559 0.0029865591  0.025353649 
    1926   -1152449.4            0   -1152449.4 2.7579421e-07 -1.2876337e-07 4.6120686e-07 
Loop time of 2.46613 on 104 procs for 213 steps with 288751 atoms

99.9% CPU use with 104 MPI tasks x 1 OpenMP threads

Minimization stats:
  Stopping criterion = energy tolerance
  Energy initial, next-to-last, final = 
     -1152449.36816233    -1152449.370027    -1152449.370027
  Force two-norm initial, final = 0.18427367 6.0286253e-05
  Force max component initial, final = 0.093946523 6.2148064e-06
  Final line search alpha, max atom move = 1.0000000 6.2148064e-06
  Iterations, force evaluations = 213 426

MPI task timing breakdown:
Section |  min time  |  avg time  |  max time  |%varavg| %total
---------------------------------------------------------------
Pair    | 0.64747    | 1.7922     | 2.3332     |  36.0 | 72.67
Neigh   | 0          | 0          | 0          |   0.0 |  0.00
Comm    | 0.037841   | 0.40078    | 1.2082     |  53.1 | 16.25
Output  | 0          | 0          | 0          |   0.0 |  0.00
Modify  | 2.5197e-05 | 0.003505   | 0.0074927  |   2.8 |  0.14
Other   |            | 0.2697     |            |       | 10.93

Nlocal:        2776.45 ave        3956 max           0 min
Histogram: 8 4 4 0 4 12 8 2 28 34
Nghost:        3879.01 ave        5424 max         232 min
Histogram: 8 0 8 0 16 0 8 8 16 40
Neighs:        79213.5 ave      115306 max           0 min
Histogram: 8 4 4 0 10 6 8 8 24 32

Total # of neighbors = 8238205
Ave neighs/atom = 28.530481
Neighbor list builds = 0
Dangerous builds = 0
The dot product: 5.03662899597097e-09
Setting atom values ...
  1 settings made for x
  1 settings made for y
  1 settings made for z
Setting up cg style minimization ...
  Unit style    : metal
  Current step  : 1926
Per MPI rank memory allocation (min/avg/max) = 5.441 | 5.816 | 6.074 Mbytes
Step PotEng KinEng TotEng v_fx v_fy v_fz 
    1926   -1152449.4            0   -1152449.4 0.0080636504 0.0019824498  0.027772348 
    2000   -1152449.4            0   -1152449.4 3.5857706e-05 5.8504837e-05 0.0002718958 
    2110   -1152449.4            0   -1152449.4 -2.4479795e-06 3.6833304e-06 4.3664614e-06 
Loop time of 2.10827 on 104 procs for 184 steps with 288751 atoms

99.9% CPU use with 104 MPI tasks x 1 OpenMP threads

Minimization stats:
  Stopping criterion = energy tolerance
  Energy initial, next-to-last, final = 
     -1152449.35354915  -1152449.35549686  -1152449.35549686
  Force two-norm initial, final = 0.18291439 0.00016559892
  Force max component initial, final = 0.097957598 2.9348819e-05
  Final line search alpha, max atom move = 1.0000000 2.9348819e-05
  Iterations, force evaluations = 184 368

MPI task timing breakdown:
Section |  min time  |  avg time  |  max time  |%varavg| %total
---------------------------------------------------------------
Pair    | 0.56004    | 1.5408     | 1.9931     |  33.3 | 73.08
Neigh   | 0          | 0          | 0          |   0.0 |  0.00
Comm    | 0.032682   | 0.34217    | 1.0373     |  49.8 | 16.23
Output  | 0.00010338 | 0.00011073 | 0.00023104 |   0.0 |  0.01
Modify  | 2.1789e-05 | 0.0030388  | 0.0065076  |   2.6 |  0.14
Other   |            | 0.2221     |            |       | 10.54

Nlocal:        2776.45 ave        3954 max           0 min
Histogram: 8 4 4 0 4 12 8 2 28 34
Nghost:        3879.08 ave        5424 max         232 min
Histogram: 8 0 8 0 16 0 8 8 16 40
Neighs:        79213.5 ave      115258 max           0 min
Histogram: 8 4 4 0 10 6 8 8 24 32

Total # of neighbors = 8238203
Ave neighs/atom = 28.530474
Neighbor list builds = 0
Dangerous builds = 0
The dot product: 2.47359220743437e-08
Setting atom values ...
  1 settings made for x
  1 settings made for y
  1 settings made for z
Setting up cg style minimization ...
  Unit style    : metal
  Current step  : 2110
Per MPI rank memory allocation (min/avg/max) = 5.441 | 5.816 | 6.074 Mbytes
Step PotEng KinEng TotEng v_fx v_fy v_fz 
    2110   -1152449.3            0   -1152449.3 0.0098078368 0.0017870628  0.026816438 
    2283   -1152449.3            0   -1152449.3 2.624616e-06 -1.0314328e-05 -2.0736127e-05 
Loop time of 1.99413 on 104 procs for 173 steps with 288751 atoms

99.9% CPU use with 104 MPI tasks x 1 OpenMP threads

Minimization stats:
  Stopping criterion = energy tolerance
  Energy initial, next-to-last, final = 
     -1152449.33794152  -1152449.33978205  -1152449.33978205
  Force two-norm initial, final = 0.18114625 0.00023548173
  Force max component initial, final = 0.10197534 3.9674520e-05
  Final line search alpha, max atom move = 1.0000000 3.9674520e-05
  Iterations, force evaluations = 173 346

MPI task timing breakdown:
Section |  min time  |  avg time  |  max time  |%varavg| %total
---------------------------------------------------------------
Pair    | 0.52672    | 1.4556     | 1.8902     |  32.4 | 72.99
Neigh   | 0          | 0          | 0          |   0.0 |  0.00
Comm    | 0.031298   | 0.32244    | 0.98196    |  48.4 | 16.17
Output  | 0          | 0          | 0          |   0.0 |  0.00
Modify  | 2.0671e-05 | 0.0028489  | 0.006614   |   2.5 |  0.14
Other   |            | 0.2132     |            |       | 10.69

Nlocal:        2776.45 ave        3952 max           0 min
Histogram: 8 4 4 0 4 12 8 2 28 34
Nghost:        3879.07 ave        5424 max         232 min
Histogram: 8 0 8 0 16 0 8 8 16 40
Neighs:        79213.5 ave      115192 max           0 min
Histogram: 8 4 4 0 10 6 8 8 24 32

Total # of neighbors = 8238207
Ave neighs/atom = 28.530488
Neighbor list builds = 0
Dangerous builds = 0
The dot product: -1.50484679249313e-07
Setting atom values ...
  1 settings made for x
  1 settings made for y
  1 settings made for z
Setting up cg style minimization ...
  Unit style    : metal
  Current step  : 2283
Per MPI rank memory allocation (min/avg/max) = 5.441 | 5.816 | 6.074 Mbytes
Step PotEng KinEng TotEng v_fx v_fy v_fz 
    2283   -1152449.3            0   -1152449.3 0.0085649095 0.0017587864  0.021011551 
    2452   -1152449.3            0   -1152449.3 -1.5913103e-05 -1.7782053e-05 -7.2825391e-05 
Loop time of 1.93422 on 104 procs for 169 steps with 288751 atoms

99.9% CPU use with 104 MPI tasks x 1 OpenMP threads

Minimization stats:
  Stopping criterion = energy tolerance
  Energy initial, next-to-last, final = 
     -1152449.32099496  -1152449.32276886  -1152449.32276886
  Force two-norm initial, final = 0.17907182 0.00024776921
  Force max component initial, final = 0.10578684 7.2825391e-05
  Final line search alpha, max atom move = 1.0000000 7.2825391e-05
  Iterations, force evaluations = 169 338

MPI task timing breakdown:
Section |  min time  |  avg time  |  max time  |%varavg| %total
---------------------------------------------------------------
Pair    | 0.51376    | 1.4156     | 1.8324     |  32.0 | 73.19
Neigh   | 0          | 0          | 0          |   0.0 |  0.00
Comm    | 0.031057   | 0.31272    | 0.94783    |  48.0 | 16.17
Output  | 0          | 0          | 0          |   0.0 |  0.00
Modify  | 2.0255e-05 | 0.0027851  | 0.0059763  |   2.5 |  0.14
Other   |            | 0.2031     |            |       | 10.50

Nlocal:        2776.45 ave        3949 max           0 min
Histogram: 8 4 4 0 4 12 8 2 26 36
Nghost:        3879.07 ave        5424 max         232 min
Histogram: 8 0 8 0 16 0 8 8 16 40
Neighs:        79213.6 ave      115105 max           0 min
Histogram: 8 4 4 0 10 6 8 8 24 32

Total # of neighbors = 8238210
Ave neighs/atom = 28.530499
Neighbor list builds = 0
Dangerous builds = 0
The dot product: -5.80574390034829e-07
Setting atom values ...
  1 settings made for x
  1 settings made for y
  1 settings made for z
Setting up cg style minimization ...
  Unit style    : metal
  Current step  : 2452
Per MPI rank memory allocation (min/avg/max) = 5.441 | 5.816 | 6.074 Mbytes
Step PotEng KinEng TotEng v_fx v_fy v_fz 
    2452   -1152449.3            0   -1152449.3 0.0068249554 0.0018462295  0.016110434 
    2631   -1152449.3            0   -1152449.3 6.2439894e-06 1.5990736e-05 4.5474893e-05 
Loop time of 2.06265 on 104 procs for 179 steps with 288751 atoms

99.9% CPU use with 104 MPI tasks x 1 OpenMP threads

Minimization stats:
  Stopping criterion = energy tolerance
  Energy initial, next-to-last, final = 
      -1152449.3027023  -1152449.30445283  -1152449.30445283
  Force two-norm initial, final = 0.17734337 0.00018918786
  Force max component initial, final = 0.10896384 4.5474893e-05
  Final line search alpha, max atom move = 1.0000000 4.5474893e-05
  Iterations, force evaluations = 179 358

MPI task timing breakdown:
Section |  min time  |  avg time  |  max time  |%varavg| %total
---------------------------------------------------------------
Pair    | 0.54665    | 1.5069     | 1.9453     |  32.9 | 73.06
Neigh   | 0          | 0          | 0          |   0.0 |  0.00
Comm    | 0.032714   | 0.33341    | 1.0223     |  49.5 | 16.16
Output  | 0          | 0          | 0          |   0.0 |  0.00
Modify  | 2.2417e-05 | 0.0029516  | 0.0063071  |   2.6 |  0.14
Other   |            | 0.2193     |            |       | 10.63

Nlocal:        2776.45 ave        3945 max           0 min
Histogram: 8 4 4 0 4 12 8 2 26 36
Nghost:        3879.12 ave        5425 max         232 min
Histogram: 8 0 8 0 16 0 8 8 16 40
Neighs:        79213.6 ave      114963 max           0 min
Histogram: 8 4 4 0 10 6 8 8 24 32

Total # of neighbors = 8238211
Ave neighs/atom = 28.530502
Neighbor list builds = 0
Dangerous builds = 0
The dot product: 3.35217750230926e-07
Setting atom values ...
  1 settings made for x
  1 settings made for y
  1 settings made for z
Setting up cg style minimization ...
  Unit style    : metal
  Current step  : 2631
Per MPI rank memory allocation (min/avg/max) = 5.441 | 5.816 | 6.074 Mbytes
Step PotEng KinEng TotEng v_fx v_fy v_fz 
    2631   -1152449.3            0   -1152449.3 0.0060251586 0.0020803276   0.01400124 
    2802   -1152449.3            0   -1152449.3 1.5426161e-05 2.6185031e-05 7.775405e-05 
Loop time of 1.97818 on 104 procs for 171 steps with 288751 atoms

99.9% CPU use with 104 MPI tasks x 1 OpenMP threads

Minimization stats:
  Stopping criterion = energy tolerance
  Energy initial, next-to-last, final = 
     -1152449.28312455  -1152449.28490958  -1152449.28490958
  Force two-norm initial, final = 0.17604723 0.00024177471
  Force max component initial, final = 0.11172644 7.7754050e-05
  Final line search alpha, max atom move = 1.0000000 7.7754050e-05
  Iterations, force evaluations = 171 342

MPI task timing breakdown:
Section |  min time  |  avg time  |  max time  |%varavg| %total
---------------------------------------------------------------
Pair    | 0.52525    | 1.4348     | 1.8557     |  32.1 | 72.53
Neigh   | 0          | 0          | 0          |   0.0 |  0.00
Comm    | 0.033663   | 0.31745    | 0.96305    |  48.1 | 16.05
Output  | 0          | 0          | 0          |   0.0 |  0.00
Modify  | 2.076e-05  | 0.0028321  | 0.0060282  |   2.5 |  0.14
Other   |            | 0.2231     |            |       | 11.28

Nlocal:        2776.45 ave        3940 max           0 min
Histogram: 8 4 4 0 4 12 8 2 26 36
Nghost:        3879.13 ave        5425 max         232 min
Histogram: 8 0 8 0 16 0 8 8 16 40
Neighs:        79213.6 ave      114806 max           0 min
Histogram: 8 4 4 0 10 6 8 8 22 34

Total # of neighbors = 8238215
Ave neighs/atom = 28.530516
Neighbor list builds = 0
Dangerous builds = 0
The dot product: 6.35065057643725e-07
Setting atom values ...
  1 settings made for x
  1 settings made for y
  1 settings made for z
Setting up cg style minimization ...
  Unit style    : metal
  Current step  : 2802
Per MPI rank memory allocation (min/avg/max) = 5.441 | 5.816 | 6.074 Mbytes
Step PotEng KinEng TotEng v_fx v_fy v_fz 
    2802   -1152449.3            0   -1152449.3 0.0065461106 0.0025610239   0.01465018 
    3000   -1152449.3            0   -1152449.3 -1.5880635e-06 -7.6889028e-06 -1.6863921e-05 
    3015   -1152449.3            0   -1152449.3  1.53959e-06 6.2894996e-06 1.4155772e-05 
Loop time of 2.46232 on 104 procs for 213 steps with 288751 atoms

99.9% CPU use with 104 MPI tasks x 1 OpenMP threads

Minimization stats:
  Stopping criterion = energy tolerance
  Energy initial, next-to-last, final = 
     -1152449.26240154  -1152449.26418111  -1152449.26418111
  Force two-norm initial, final = 0.1749971 7.4063234e-05
  Force max component initial, final = 0.11429913 1.4155772e-05
  Final line search alpha, max atom move = 1.0000000 1.4155772e-05
  Iterations, force evaluations = 213 426

MPI task timing breakdown:
Section |  min time  |  avg time  |  max time  |%varavg| %total
---------------------------------------------------------------
Pair    | 0.64944    | 1.7961     | 2.3286     |  36.0 | 72.94
Neigh   | 0          | 0          | 0          |   0.0 |  0.00
Comm    | 0.04049    | 0.40259    | 1.2253     |  53.7 | 16.35
Output  | 0.00016118 | 0.0001643  | 0.0003046  |   0.0 |  0.01
Modify  | 2.5634e-05 | 0.0035114  | 0.0075202  |   2.8 |  0.14
Other   |            | 0.26       |            |       | 10.56

Nlocal:        2776.45 ave        3936 max           0 min
Histogram: 8 4 4 0 4 12 8 0 28 36
Nghost:        3879.15 ave        5425 max         232 min
Histogram: 8 0 8 0 16 0 8 8 16 40
Neighs:        79213.6 ave      114679 max           0 min
Histogram: 8 4 4 0 8 8 8 8 22 34

Total # of neighbors = 8238215
Ave neighs/atom = 28.530516
Neighbor list builds = 0
Dangerous builds = 0
The dot product: 1.1818121964265e-07
Setting atom values ...
  1 settings made for x
  1 settings made for y
  1 settings made for z
Setting up cg style minimization ...
  Unit style    : metal
  Current step  : 3015
Per MPI rank memory allocation (min/avg/max) = 5.441 | 5.816 | 6.074 Mbytes
Step PotEng KinEng TotEng v_fx v_fy v_fz 
    3015   -1152449.2            0   -1152449.2 0.0074160759 0.0027501588  0.015178715 
    3193   -1152449.2            0   -1152449.2 -8.1339237e-06 -1.3006608e-05 -3.4347806e-05 
Loop time of 2.04645 on 104 procs for 178 steps with 288751 atoms

99.9% CPU use with 104 MPI tasks x 1 OpenMP threads

Minimization stats:
  Stopping criterion = energy tolerance
  Energy initial, next-to-last, final = 
     -1152449.24048117  -1152449.24228605  -1152449.24228605
  Force two-norm initial, final = 0.17414043 0.00019644977
  Force max component initial, final = 0.11689799 3.8020367e-05
  Final line search alpha, max atom move = 1.0000000 3.8020367e-05
  Iterations, force evaluations = 178 356

MPI task timing breakdown:
Section |  min time  |  avg time  |  max time  |%varavg| %total
---------------------------------------------------------------
Pair    | 0.54401    | 1.4949     | 1.9332     |  32.9 | 73.05
Neigh   | 0          | 0          | 0          |   0.0 |  0.00
Comm    | 0.031638   | 0.33393    | 1.0144     |  49.0 | 16.32
Output  | 0          | 0          | 0          |   0.0 |  0.00
Modify  | 2.1256e-05 | 0.0029338  | 0.0062795  |   2.6 |  0.14
Other   |            | 0.2147     |            |       | 10.49

Nlocal:        2776.45 ave        3936 max           0 min
Histogram: 8 4 4 0 4 12 8 0 28 36
Nghost:        3879.15 ave        5425 max         232 min
Histogram: 8 0 8 0 16 0 8 8 16 40
Neighs:        79213.6 ave      114679 max           0 min
Histogram: 8 4 4 0 8 8 8 8 22 34

Total # of neighbors = 8238215
Ave neighs/atom = 28.530516
Neighbor list builds = 0
Dangerous builds = 0
The dot product: -3.35113004950249e-07
Setting atom values ...
  1 settings made for x
  1 settings made for y
  1 settings made for z
Setting up cg style minimization ...
  Unit style    : metal
  Current step  : 3193
Per MPI rank memory allocation (min/avg/max) = 5.441 | 5.816 | 6.074 Mbytes
Step PotEng KinEng TotEng v_fx v_fy v_fz 
    3193   -1152449.2            0   -1152449.2 0.0099569483 0.0028572397  0.017562778 
    3364   -1152449.2            0   -1152449.2 -7.0181442e-06 -2.5011813e-05 -5.0719117e-05 
Loop time of 1.97182 on 104 procs for 171 steps with 288751 atoms

99.9% CPU use with 104 MPI tasks x 1 OpenMP threads

Minimization stats:
  Stopping criterion = energy tolerance
  Energy initial, next-to-last, final = 
     -1152449.21746528  -1152449.21945142  -1152449.21945142
  Force two-norm initial, final = 0.17366259 0.00022142231
  Force max component initial, final = 0.11947967 5.0719117e-05
  Final line search alpha, max atom move = 1.0000000 5.0719117e-05
  Iterations, force evaluations = 171 342

MPI task timing breakdown:
Section |  min time  |  avg time  |  max time  |%varavg| %total
---------------------------------------------------------------
Pair    | 0.52427    | 1.4433     | 1.8694     |  32.3 | 73.20
Neigh   | 0          | 0          | 0          |   0.0 |  0.00
Comm    | 0.02944    | 0.32215    | 0.97867    |  48.0 | 16.34
Output  | 0          | 0          | 0          |   0.0 |  0.00
Modify  | 2.0388e-05 | 0.0028111  | 0.0060083  |   2.5 |  0.14
Other   |            | 0.2035     |            |       | 10.32

Nlocal:        2776.45 ave        3936 max           0 min
Histogram: 8 4 4 0 4 12 8 0 28 36
Nghost:        3879.13 ave        5425 max         232 min
Histogram: 8 0 8 0 16 0 8 8 16 40
Neighs:        79213.6 ave      114679 max           0 min
Histogram: 8 4 4 0 8 8 8 8 22 34

Total # of neighbors = 8238212
Ave neighs/atom = 28.530506
Neighbor list builds = 0
Dangerous builds = 0
The dot product: -6.31247944551603e-07
Setting atom values ...
  1 settings made for x
  1 settings made for y
  1 settings made for z
Setting up cg style minimization ...
  Unit style    : metal
  Current step  : 3364
Per MPI rank memory allocation (min/avg/max) = 5.441 | 5.816 | 6.074 Mbytes
Step PotEng KinEng TotEng v_fx v_fy v_fz 
    3364   -1152449.2            0   -1152449.2  0.016435547 0.0036237497  0.024832059 
    3575   -1152449.2            0   -1152449.2 2.2585566e-06 1.0516352e-05  1.89648e-05 
Loop time of 2.42674 on 104 procs for 211 steps with 288751 atoms

99.9% CPU use with 104 MPI tasks x 1 OpenMP threads

Minimization stats:
  Stopping criterion = energy tolerance
  Energy initial, next-to-last, final = 
     -1152449.19382022  -1152449.19600401  -1152449.19600401
  Force two-norm initial, final = 0.1740269 8.6077158e-05
  Force max component initial, final = 0.12199216 1.8964800e-05
  Final line search alpha, max atom move = 1.0000000 1.8964800e-05
  Iterations, force evaluations = 211 422

MPI task timing breakdown:
Section |  min time  |  avg time  |  max time  |%varavg| %total
---------------------------------------------------------------
Pair    | 0.64599    | 1.7744     | 2.2966     |  35.9 | 73.12
Neigh   | 0          | 0          | 0          |   0.0 |  0.00
Comm    | 0.03726    | 0.39312    | 1.1959     |  53.8 | 16.20
Output  | 0          | 0          | 0          |   0.0 |  0.00
Modify  | 2.5259e-05 | 0.0034743  | 0.0074342  |   2.8 |  0.14
Other   |            | 0.2558     |            |       | 10.54

Nlocal:        2776.45 ave        3937 max           0 min
Histogram: 8 4 4 0 4 12 8 0 28 36
Nghost:        3879.16 ave        5425 max         232 min
Histogram: 8 0 8 0 16 0 8 8 16 40
Neighs:        79213.6 ave      114700 max           0 min
Histogram: 8 4 4 0 9 7 8 8 22 34

Total # of neighbors = 8238212
Ave neighs/atom = 28.530506
Neighbor list builds = 0
Dangerous builds = 0
The dot product: 2.85352067656885e-07
Setting atom values ...
  1 settings made for x
  1 settings made for y
  1 settings made for z
Setting up cg style minimization ...
  Unit style    : metal
  Current step  : 3575
Per MPI rank memory allocation (min/avg/max) = 5.441 | 5.816 | 6.074 Mbytes
Step PotEng KinEng TotEng v_fx v_fy v_fz 
    3575   -1152449.2            0   -1152449.2  0.021986151 0.0047506118  0.029899058 
    3774   -1152449.2            0   -1152449.2 -6.3087161e-06 -1.5963053e-05 -2.9566312e-05 
Loop time of 2.28886 on 104 procs for 199 steps with 288751 atoms

99.9% CPU use with 104 MPI tasks x 1 OpenMP threads

Minimization stats:
  Stopping criterion = energy tolerance
  Energy initial, next-to-last, final = 
     -1152449.16972005  -1152449.17185126  -1152449.17185126
  Force two-norm initial, final = 0.17453087 0.00010680728
  Force max component initial, final = 0.12448042 2.9566312e-05
  Final line search alpha, max atom move = 1.0000000 2.9566312e-05
  Iterations, force evaluations = 199 398

MPI task timing breakdown:
Section |  min time  |  avg time  |  max time  |%varavg| %total
---------------------------------------------------------------
Pair    | 0.6072     | 1.6717     | 2.1643     |  34.7 | 73.04
Neigh   | 0          | 0          | 0          |   0.0 |  0.00
Comm    | 0.034319   | 0.37154    | 1.1324     |  51.7 | 16.23
Output  | 0          | 0          | 0          |   0.0 |  0.00
Modify  | 2.3914e-05 | 0.0032796  | 0.0070077  |   2.7 |  0.14
Other   |            | 0.2424     |            |       | 10.59

Nlocal:        2776.45 ave        3937 max           0 min
Histogram: 8 4 4 0 4 12 8 0 28 36
Nghost:        3879.14 ave        5425 max         232 min
Histogram: 8 0 8 0 16 0 8 8 16 40
Neighs:        79213.6 ave      114692 max           0 min
Histogram: 8 4 4 0 8 8 8 8 22 34

Total # of neighbors = 8238216
Ave neighs/atom = 28.530519
Neighbor list builds = 0
Dangerous builds = 0
The dot product: -4.59526795177904e-07
Setting atom values ...
  1 settings made for x
  1 settings made for y
  1 settings made for z
Setting up cg style minimization ...
  Unit style    : metal
  Current step  : 3774
Per MPI rank memory allocation (min/avg/max) = 5.441 | 5.816 | 6.074 Mbytes
Step PotEng KinEng TotEng v_fx v_fy v_fz 
    3774   -1152449.1            0   -1152449.1  0.022268661  0.004698409   0.02747043 
    3944   -1152449.1            0   -1152449.1 8.4130694e-06 1.3118937e-05 2.5612008e-05 
Loop time of 1.94205 on 104 procs for 170 steps with 288751 atoms

99.9% CPU use with 104 MPI tasks x 1 OpenMP threads

Minimization stats:
  Stopping criterion = energy tolerance
  Energy initial, next-to-last, final = 
     -1152449.14469639  -1152449.14670685  -1152449.14670685
  Force two-norm initial, final = 0.17403261 0.00019557242
  Force max component initial, final = 0.12741098 2.6620467e-05
  Final line search alpha, max atom move = 1.0000000 2.6620467e-05
  Iterations, force evaluations = 170 340

MPI task timing breakdown:
Section |  min time  |  avg time  |  max time  |%varavg| %total
---------------------------------------------------------------
Pair    | 0.51763    | 1.4246     | 1.8412     |  32.1 | 73.35
Neigh   | 0          | 0          | 0          |   0.0 |  0.00
Comm    | 0.029814   | 0.31413    | 0.95591    |  48.2 | 16.18
Output  | 0          | 0          | 0          |   0.0 |  0.00
Modify  | 2.0498e-05 | 0.0028068  | 0.0060003  |   2.5 |  0.14
Other   |            | 0.2006     |            |       | 10.33

Nlocal:        2776.45 ave        3938 max           0 min
Histogram: 8 4 4 0 4 12 8 2 26 36
Nghost:        3879.16 ave        5426 max         232 min
Histogram: 8 0 8 0 16 0 8 8 16 40
Neighs:        79213.6 ave      114715 max           0 min
Histogram: 8 4 4 0 9 7 8 8 22 34

Total # of neighbors = 8238215
Ave neighs/atom = 28.530516
Neighbor list builds = 0
Dangerous builds = 0
The dot product: 3.84319836078978e-07
Setting atom values ...
  1 settings made for x
  1 settings made for y
  1 settings made for z
Setting up cg style minimization ...
  Unit style    : metal
  Current step  : 3944
Per MPI rank memory allocation (min/avg/max) = 5.441 | 5.816 | 6.074 Mbytes
Step PotEng KinEng TotEng v_fx v_fy v_fz 
    3944   -1152449.1            0   -1152449.1  0.019803476 0.0043817872  0.022852648 
    4000   -1152449.1            0   -1152449.1 3.9976886e-05 2.1804754e-06 3.7677723e-05 
    4112   -1152449.1            0   -1152449.1 1.6569751e-06 -5.6250386e-06 -5.688304e-06 
Loop time of 1.94015 on 104 procs for 168 steps with 288751 atoms

99.9% CPU use with 104 MPI tasks x 1 OpenMP threads

Minimization stats:
  Stopping criterion = energy tolerance
  Energy initial, next-to-last, final = 
      -1152449.1185598  -1152449.12039429  -1152449.12039429
  Force two-norm initial, final = 0.17336173 0.00018686109
  Force max component initial, final = 0.1302171 2.7046717e-05
  Final line search alpha, max atom move = 1.0000000 2.7046717e-05
  Iterations, force evaluations = 168 336

MPI task timing breakdown:
Section |  min time  |  avg time  |  max time  |%varavg| %total
---------------------------------------------------------------
Pair    | 0.50754    | 1.4142     | 1.8401     |  32.1 | 72.89
Neigh   | 0          | 0          | 0          |   0.0 |  0.00
Comm    | 0.029061   | 0.31447    | 0.96043    |  47.5 | 16.21
Output  | 8.918e-05  | 9.7614e-05 | 0.00019877 |   0.0 |  0.01
Modify  | 2.0176e-05 | 0.0027664  | 0.0058943  |   2.5 |  0.14
Other   |            | 0.2086     |            |       | 10.75

Nlocal:        2776.45 ave        3938 max           0 min
Histogram: 8 4 4 0 4 12 8 2 26 36
Nghost:        3879.16 ave        5426 max         232 min
Histogram: 8 0 8 0 16 0 8 8 16 40
Neighs:        79213.6 ave      114716 max           0 min
Histogram: 8 4 4 0 9 7 8 8 22 34

Total # of neighbors = 8238212
Ave neighs/atom = 28.530506
Neighbor list builds = 0
Dangerous builds = 0
The dot product: -5.69979176073002e-08
Setting atom values ...
  1 settings made for x
  1 settings made for y
  1 settings made for z
Setting up cg style minimization ...
  Unit style    : metal
  Current step  : 4112
Per MPI rank memory allocation (min/avg/max) = 5.441 | 5.816 | 6.074 Mbytes
Step PotEng KinEng TotEng v_fx v_fy v_fz 
    4112   -1152449.1            0   -1152449.1  0.015619633 0.0034374824  0.016924959 
    4320   -1152449.1            0   -1152449.1 -1.5823676e-06 -3.117258e-06 -5.0717087e-06 
Loop time of 2.40857 on 104 procs for 208 steps with 288751 atoms

99.9% CPU use with 104 MPI tasks x 1 OpenMP threads

Minimization stats:
  Stopping criterion = energy tolerance
  Energy initial, next-to-last, final = 
     -1152449.09109404   -1152449.0928086   -1152449.0928086
  Force two-norm initial, final = 0.17301261 6.7957538e-05
  Force max component initial, final = 0.13301448 7.7282689e-06
  Final line search alpha, max atom move = 1.0000000 7.7282689e-06
  Iterations, force evaluations = 208 416

MPI task timing breakdown:
Section |  min time  |  avg time  |  max time  |%varavg| %total
---------------------------------------------------------------
Pair    | 0.63411    | 1.742      | 2.2487     |  35.5 | 72.32
Neigh   | 0          | 0          | 0          |   0.0 |  0.00
Comm    | 0.038515   | 0.3885     | 1.1972     |  53.1 | 16.13
Output  | 0          | 0          | 0          |   0.0 |  0.00
Modify  | 2.5001e-05 | 0.0034263  | 0.0073496  |   2.8 |  0.14
Other   |            | 0.2747     |            |       | 11.40

Nlocal:        2776.45 ave        3938 max           0 min
Histogram: 8 4 4 0 4 12 8 2 26 36
Nghost:        3879.16 ave        5426 max         232 min
Histogram: 8 0 8 0 16 0 8 8 16 40
Neighs:        79213.6 ave      114709 max           0 min
Histogram: 8 4 4 0 9 7 8 8 22 34

Total # of neighbors = 8238212
Ave neighs/atom = 28.530506
Neighbor list builds = 0
Dangerous builds = 0
The dot product: -5.47147768756365e-08
Setting atom values ...
  1 settings made for x
  1 settings made for y
  1 settings made for z
Setting up cg style minimization ...
  Unit style    : metal
  Current step  : 4320
Per MPI rank memory allocation (min/avg/max) = 5.441 | 5.816 | 6.074 Mbytes
Step PotEng KinEng TotEng v_fx v_fy v_fz 
    4320   -1152449.1            0   -1152449.1  0.011147071 0.0026087214  0.011699074 
    4491   -1152449.1            0   -1152449.1 1.2901547e-05 2.8319816e-05 4.3128418e-05 
Loop time of 1.97549 on 104 procs for 171 steps with 288751 atoms

99.9% CPU use with 104 MPI tasks x 1 OpenMP threads

Minimization stats:
  Stopping criterion = energy tolerance
  Energy initial, next-to-last, final = 
     -1152449.06229475  -1152449.06394093  -1152449.06394093
  Force two-norm initial, final = 0.17318943 0.00019464214
  Force max component initial, final = 0.13557424 4.5131686e-05
  Final line search alpha, max atom move = 1.0000000 4.5131686e-05
  Iterations, force evaluations = 171 342

MPI task timing breakdown:
Section |  min time  |  avg time  |  max time  |%varavg| %total
---------------------------------------------------------------
Pair    | 0.52378    | 1.4464     | 1.8698     |  32.3 | 73.22
Neigh   | 0          | 0          | 0          |   0.0 |  0.00
Comm    | 0.034013   | 0.32149    | 0.98209    |  48.4 | 16.27
Output  | 0          | 0          | 0          |   0.0 |  0.00
Modify  | 2.0356e-05 | 0.0028239  | 0.0060773  |   2.5 |  0.14
Other   |            | 0.2047     |            |       | 10.36

Nlocal:        2776.45 ave        3938 max           0 min
Histogram: 8 4 4 0 4 12 8 2 26 36
Nghost:        3879.16 ave        5426 max         232 min
Histogram: 8 0 8 0 16 0 8 8 16 40
Neighs:        79213.6 ave      114702 max           0 min
Histogram: 8 4 4 0 9 7 8 8 22 34

Total # of neighbors = 8238214
Ave neighs/atom = 28.530512
Neighbor list builds = 0
Dangerous builds = 0
The dot product: 3.93154068867108e-07
Setting atom values ...
  1 settings made for x
  1 settings made for y
  1 settings made for z
Setting up cg style minimization ...
  Unit style    : metal
  Current step  : 4491
Per MPI rank memory allocation (min/avg/max) = 5.441 | 5.816 | 6.074 Mbytes
Step PotEng KinEng TotEng v_fx v_fy v_fz 
    4491     -1152449            0     -1152449 0.0071416759 0.0019562445 0.0075502133 
    4664     -1152449            0     -1152449 3.0488423e-06 9.2687211e-06 1.280109e-05 
Loop time of 1.98753 on 104 procs for 173 steps with 288751 atoms

99.9% CPU use with 104 MPI tasks x 1 OpenMP threads

Minimization stats:
  Stopping criterion = energy tolerance
  Energy initial, next-to-last, final = 
     -1152449.03221033  -1152449.03384072  -1152449.03384072
  Force two-norm initial, final = 0.17380927 0.00017768168
  Force max component initial, final = 0.13794313 1.2801090e-05
  Final line search alpha, max atom move = 1.0000000 1.2801090e-05
  Iterations, force evaluations = 173 346

MPI task timing breakdown:
Section |  min time  |  avg time  |  max time  |%varavg| %total
---------------------------------------------------------------
Pair    | 0.52593    | 1.449      | 1.8772     |  32.4 | 72.91
Neigh   | 0          | 0          | 0          |   0.0 |  0.00
Comm    | 0.030992   | 0.32221    | 0.97742    |  48.3 | 16.21
Output  | 0          | 0          | 0          |   0.0 |  0.00
Modify  | 2.071e-05  | 0.0028455  | 0.0061102  |   2.5 |  0.14
Other   |            | 0.2134     |            |       | 10.74

Nlocal:        2776.45 ave        3938 max           0 min
Histogram: 8 4 4 0 4 12 8 2 26 36
Nghost:        3879.16 ave        5426 max         232 min
Histogram: 8 0 8 0 16 0 8 8 16 40
Neighs:        79213.6 ave      114703 max           0 min
Histogram: 8 4 4 0 9 7 8 8 22 34

Total # of neighbors = 8238218
Ave neighs/atom = 28.530526
Neighbor list builds = 0
Dangerous builds = 0
The dot product: 1.02879433619077e-07
Setting atom values ...
  1 settings made for x
  1 settings made for y
  1 settings made for z
Setting up cg style minimization ...
  Unit style    : metal
  Current step  : 4664
Per MPI rank memory allocation (min/avg/max) = 5.441 | 5.816 | 6.074 Mbytes
Step PotEng KinEng TotEng v_fx v_fy v_fz 
    4664     -1152449            0     -1152449 0.0041615872 0.0014801792 0.0046500508 
    4829     -1152449            0     -1152449 9.9270662e-07 1.7181352e-05 1.974449e-05 
Loop time of 1.89808 on 104 procs for 165 steps with 288751 atoms

99.9% CPU use with 104 MPI tasks x 1 OpenMP threads

Minimization stats:
  Stopping criterion = energy tolerance
  Energy initial, next-to-last, final = 
     -1152449.00097727  -1152449.00262217  -1152449.00262217
  Force two-norm initial, final = 0.17458453 0.00023977848
  Force max component initial, final = 0.14002304 2.6640180e-05
  Final line search alpha, max atom move = 1.0000000 2.6640180e-05
  Iterations, force evaluations = 165 330

MPI task timing breakdown:
Section |  min time  |  avg time  |  max time  |%varavg| %total
---------------------------------------------------------------
Pair    | 0.50506    | 1.3915     | 1.7974     |  31.7 | 73.31
Neigh   | 0          | 0          | 0          |   0.0 |  0.00
Comm    | 0.02927    | 0.31138    | 0.94601    |  47.1 | 16.40
Output  | 0          | 0          | 0          |   0.0 |  0.00
Modify  | 1.9858e-05 | 0.0027188  | 0.00583    |   2.5 |  0.14
Other   |            | 0.1925     |            |       | 10.14

Nlocal:        2776.45 ave        3938 max           0 min
Histogram: 8 4 4 0 4 12 8 2 26 36
Nghost:        3879.18 ave        5426 max         232 min
Histogram: 8 0 8 0 16 0 8 8 16 40
Neighs:        79213.6 ave      114693 max           0 min
Histogram: 8 4 4 0 8 8 8 8 22 34

Total # of neighbors = 8238218
Ave neighs/atom = 28.530526
Neighbor list builds = 0
Dangerous builds = 0
The dot product: 1.42436735346173e-07
Setting atom values ...
  1 settings made for x
  1 settings made for y
  1 settings made for z
Setting up cg style minimization ...
  Unit style    : metal
  Current step  : 4829
Per MPI rank memory allocation (min/avg/max) = 5.441 | 5.816 | 6.074 Mbytes
Step PotEng KinEng TotEng v_fx v_fy v_fz 
    4829     -1152449            0     -1152449 0.0019396157 0.0008058479 0.0022417895 
    5000     -1152449            0     -1152449 4.5441501e-06 1.551977e-05 2.0016402e-05 
    5021     -1152449            0     -1152449 -1.1597033e-06 -8.2954665e-06 -9.8031576e-06 
Loop time of 2.20219 on 104 procs for 192 steps with 288751 atoms

99.9% CPU use with 104 MPI tasks x 1 OpenMP threads

Minimization stats:
  Stopping criterion = energy tolerance
  Energy initial, next-to-last, final = 
     -1152448.96868878  -1152448.97034075  -1152448.97034075
  Force two-norm initial, final = 0.17544417 0.00011040287
  Force max component initial, final = 0.14190138 1.8590004e-05
  Final line search alpha, max atom move = 1.0000000 1.8590004e-05
  Iterations, force evaluations = 192 384

MPI task timing breakdown:
Section |  min time  |  avg time  |  max time  |%varavg| %total
---------------------------------------------------------------
Pair    | 0.58676    | 1.614      | 2.0876     |  34.2 | 73.29
Neigh   | 0          | 0          | 0          |   0.0 |  0.00
Comm    | 0.034525   | 0.35739    | 1.0871     |  51.3 | 16.23
Output  | 0.0001046  | 0.00012131 | 0.00027392 |   0.0 |  0.01
Modify  | 2.3334e-05 | 0.0031656  | 0.0067754  |   2.7 |  0.14
Other   |            | 0.2275     |            |       | 10.33

Nlocal:        2776.45 ave        3938 max           0 min
Histogram: 8 4 4 0 4 12 8 2 26 36
Nghost:        3879.20 ave        5426 max         232 min
Histogram: 8 0 8 0 16 0 8 8 16 40
Neighs:        79213.6 ave      114693 max           0 min
Histogram: 8 4 4 0 8 8 8 8 22 34

Total # of neighbors = 8238219
Ave neighs/atom = 28.530530
Neighbor list builds = 0
Dangerous builds = 0
The dot product: -6.70025633790248e-08
Setting atom values ...
  1 settings made for x
  1 settings made for y
  1 settings made for z
Setting up cg style minimization ...
  Unit style    : metal
  Current step  : 5021
Per MPI rank memory allocation (min/avg/max) = 5.441 | 5.816 | 6.074 Mbytes
Step PotEng KinEng TotEng v_fx v_fy v_fz 
    5021   -1152448.9            0   -1152448.9 0.00041008851 -4.8920211e-05 0.00023159892 
    5280   -1152448.9            0   -1152448.9 2.5308974e-07 1.103059e-06 1.345999e-06 
Loop time of 3.00402 on 104 procs for 259 steps with 288751 atoms

99.9% CPU use with 104 MPI tasks x 1 OpenMP threads

Minimization stats:
  Stopping criterion = energy tolerance
  Energy initial, next-to-last, final = 
     -1152448.93542036  -1152448.93713488  -1152448.93713488
  Force two-norm initial, final = 0.17633859 1.0717862e-05
  Force max component initial, final = 0.14364365 2.3504212e-06
  Final line search alpha, max atom move = 1.0000000 2.3504212e-06
  Iterations, force evaluations = 259 518

MPI task timing breakdown:
Section |  min time  |  avg time  |  max time  |%varavg| %total
---------------------------------------------------------------
Pair    | 0.7849     | 2.1777     | 2.8371     |  39.7 | 72.49
Neigh   | 0          | 0          | 0          |   0.0 |  0.00
Comm    | 0.045538   | 0.48878    | 1.4793     |  58.5 | 16.27
Output  | 0          | 0          | 0          |   0.0 |  0.00
Modify  | 3.0897e-05 | 0.0042621  | 0.0091068  |   3.1 |  0.14
Other   |            | 0.3333     |            |       | 11.09

Nlocal:        2776.45 ave        3938 max           0 min
Histogram: 8 4 4 0 4 12 8 2 26 36
Nghost:        3879.20 ave        5426 max         232 min
Histogram: 8 0 8 0 16 0 8 8 16 40
Neighs:        79213.6 ave      114687 max           0 min
Histogram: 8 4 4 0 8 8 8 8 22 34

Total # of neighbors = 8238216
Ave neighs/atom = 28.530519
Neighbor list builds = 0
Dangerous builds = 0
The dot product: 8.90840873238962e-09
Setting atom values ...
  1 settings made for x
  1 settings made for y
  1 settings made for z
Setting up cg style minimization ...
  Unit style    : metal
  Current step  : 5280
Per MPI rank memory allocation (min/avg/max) = 5.441 | 5.816 | 6.074 Mbytes
Step PotEng KinEng TotEng v_fx v_fy v_fz 
    5280   -1152448.9            0   -1152448.9 -0.00056993787 -0.00094896449 -0.0013758663 
    5467   -1152448.9            0   -1152448.9 9.8680209e-06 2.6703084e-05 3.4526247e-05 
Loop time of 2.1705 on 104 procs for 187 steps with 288751 atoms

99.9% CPU use with 104 MPI tasks x 1 OpenMP threads

Minimization stats:
  Stopping criterion = energy tolerance
  Energy initial, next-to-last, final = 
     -1152448.90134465  -1152448.90299031  -1152448.90299031
  Force two-norm initial, final = 0.17703057 0.00014803952
  Force max component initial, final = 0.14502834 3.4526247e-05
  Final line search alpha, max atom move = 1.0000000 3.4526247e-05
  Iterations, force evaluations = 187 374

MPI task timing breakdown:
Section |  min time  |  avg time  |  max time  |%varavg| %total
---------------------------------------------------------------
Pair    | 0.57031    | 1.5738     | 2.0304     |  33.7 | 72.51
Neigh   | 0          | 0          | 0          |   0.0 |  0.00
Comm    | 0.032958   | 0.35089    | 1.0551     |  50.4 | 16.17
Output  | 0          | 0          | 0          |   0.0 |  0.00
Modify  | 2.2435e-05 | 0.0030875  | 0.0066418  |   2.6 |  0.14
Other   |            | 0.2427     |            |       | 11.18

Nlocal:        2776.45 ave        3939 max           0 min
Histogram: 8 4 4 0 4 12 8 2 26 36
Nghost:        3879.15 ave        5426 max         232 min
Histogram: 8 0 8 0 16 0 8 8 16 40
Neighs:        79213.6 ave      114730 max           0 min
Histogram: 8 4 4 0 9 7 8 8 22 34

Total # of neighbors = 8238214
Ave neighs/atom = 28.530512
Neighbor list builds = 0
Dangerous builds = 0
The dot product: 1.94387332701776e-07
Setting atom values ...
  1 settings made for x
  1 settings made for y
  1 settings made for z
Setting up cg style minimization ...
  Unit style    : metal
  Current step  : 5467
Per MPI rank memory allocation (min/avg/max) = 5.441 | 5.816 | 6.074 Mbytes
Step PotEng KinEng TotEng v_fx v_fy v_fz 
    5467   -1152448.9            0   -1152448.9 -0.0019153285 -0.0028914816 -0.0042497368 
    5640   -1152448.9            0   -1152448.9 3.5527494e-07 1.3864009e-05 1.446438e-05 
Loop time of 1.99541 on 104 procs for 173 steps with 288751 atoms

99.9% CPU use with 104 MPI tasks x 1 OpenMP threads

Minimization stats:
  Stopping criterion = energy tolerance
  Energy initial, next-to-last, final = 
     -1152448.86618497  -1152448.86779334  -1152448.86779334
  Force two-norm initial, final = 0.17821009 0.00020861633
  Force max component initial, final = 0.14666979 4.4974579e-05
  Final line search alpha, max atom move = 1.0000000 4.4974579e-05
  Iterations, force evaluations = 173 346

MPI task timing breakdown:
Section |  min time  |  avg time  |  max time  |%varavg| %total
---------------------------------------------------------------
Pair    | 0.533      | 1.4566     | 1.8906     |  32.3 | 73.00
Neigh   | 0          | 0          | 0          |   0.0 |  0.00
Comm    | 0.031357   | 0.32398    | 0.98906    |  48.1 | 16.24
Output  | 0          | 0          | 0          |   0.0 |  0.00
Modify  | 2.0782e-05 | 0.0028449  | 0.0060743  |   2.5 |  0.14
Other   |            | 0.2119     |            |       | 10.62

Nlocal:        2776.45 ave        3939 max           0 min
Histogram: 8 4 4 0 4 12 8 2 26 36
Nghost:        3879.10 ave        5425 max         232 min
Histogram: 8 0 8 0 16 0 8 8 16 40
Neighs:        79213.6 ave      114732 max           0 min
Histogram: 8 4 4 0 9 7 8 8 22 34

Total # of neighbors = 8238213
Ave neighs/atom = 28.530509
Neighbor list builds = 0
Dangerous builds = 0
The dot product: 6.86973241018853e-08
Setting atom values ...
  1 settings made for x
  1 settings made for y
  1 settings made for z
Setting up cg style minimization ...
  Unit style    : metal
  Current step  : 5640
Per MPI rank memory allocation (min/avg/max) = 5.441 | 5.816 | 6.074 Mbytes
Step PotEng KinEng TotEng v_fx v_fy v_fz 
    5640   -1152448.8            0   -1152448.8 -0.0031212744 -0.0051302178 -0.0072692913 
    5842   -1152448.8            0   -1152448.8 -6.8884559e-06 -2.0636926e-05 -2.5485022e-05 
Loop time of 2.30445 on 104 procs for 202 steps with 288751 atoms

99.9% CPU use with 104 MPI tasks x 1 OpenMP threads

Minimization stats:
  Stopping criterion = energy tolerance
  Energy initial, next-to-last, final = 
     -1152448.82993922  -1152448.83163916  -1152448.83163916
  Force two-norm initial, final = 0.17950294 0.00012179875
  Force max component initial, final = 0.14826134 2.5485022e-05
  Final line search alpha, max atom move = 1.0000000 2.5485022e-05
  Iterations, force evaluations = 202 404

MPI task timing breakdown:
Section |  min time  |  avg time  |  max time  |%varavg| %total
---------------------------------------------------------------
Pair    | 0.61647    | 1.6892     | 2.1851     |  34.9 | 73.30
Neigh   | 0          | 0          | 0          |   0.0 |  0.00
Comm    | 0.03648    | 0.37193    | 1.1303     |  52.4 | 16.14
Output  | 0          | 0          | 0          |   0.0 |  0.00
Modify  | 2.4861e-05 | 0.003331   | 0.0071265  |   2.7 |  0.14
Other   |            | 0.24       |            |       | 10.42

Nlocal:        2776.45 ave        3939 max           0 min
Histogram: 8 4 4 0 4 12 8 2 26 36
Nghost:        3879.10 ave        5425 max         232 min
Histogram: 8 0 8 0 16 0 8 8 16 40
Neighs:        79213.6 ave      114731 max           0 min
Histogram: 8 4 4 0 9 7 8 8 22 34

Total # of neighbors = 8238216
Ave neighs/atom = 28.530519
Neighbor list builds = 0
Dangerous builds = 0
The dot product: -1.0968220074521e-07
Setting atom values ...
  1 settings made for x
  1 settings made for y
  1 settings made for z
Setting up cg style minimization ...
  Unit style    : metal
  Current step  : 5842
Per MPI rank memory allocation (min/avg/max) = 5.441 | 5.816 | 6.074 Mbytes
Step PotEng KinEng TotEng v_fx v_fy v_fz 
    5842   -1152448.8            0   -1152448.8 -0.0036790792 -0.0068057856 -0.0092405992 
    6000   -1152448.8            0   -1152448.8 -2.1523948e-05 -5.9151773e-05 -7.3444651e-05 
    6078   -1152448.8            0   -1152448.8 1.4347575e-06 4.5937079e-06 5.5480787e-06 
Loop time of 2.74064 on 104 procs for 236 steps with 288751 atoms

99.9% CPU use with 104 MPI tasks x 1 OpenMP threads

Minimization stats:
  Stopping criterion = energy tolerance
  Energy initial, next-to-last, final = 
     -1152448.79296599  -1152448.79459379  -1152448.79459379
  Force two-norm initial, final = 0.18012533 3.0693371e-05
  Force max component initial, final = 0.14936449 5.5480787e-06
  Final line search alpha, max atom move = 1.0000000 5.5480787e-06
  Iterations, force evaluations = 236 472

MPI task timing breakdown:
Section |  min time  |  avg time  |  max time  |%varavg| %total
---------------------------------------------------------------
Pair    | 0.72144    | 1.9909     | 2.5845     |  37.9 | 72.64
Neigh   | 0          | 0          | 0          |   0.0 |  0.00
Comm    | 0.044372   | 0.44558    | 1.3514     |  56.1 | 16.26
Output  | 9.3876e-05 | 0.00010225 | 0.00024422 |   0.0 |  0.00
Modify  | 2.8242e-05 | 0.003894   | 0.0082875  |   2.9 |  0.14
Other   |            | 0.3002     |            |       | 10.95

Nlocal:        2776.45 ave        3940 max           0 min
Histogram: 8 4 4 0 4 12 8 2 26 36
Nghost:        3879.06 ave        5424 max         232 min
Histogram: 8 0 8 0 16 0 8 8 16 40
Neighs:        79213.6 ave      114780 max           0 min
Histogram: 8 4 4 0 10 6 8 8 22 34

Total # of neighbors = 8238215
Ave neighs/atom = 28.530516
Neighbor list builds = 0
Dangerous builds = 0
The dot product: 1.69383162000009e-08
Setting atom values ...
  1 settings made for x
  1 settings made for y
  1 settings made for z
Setting up cg style minimization ...
  Unit style    : metal
  Current step  : 6078
Per MPI rank memory allocation (min/avg/max) = 5.441 | 5.816 | 6.074 Mbytes
Step PotEng KinEng TotEng v_fx v_fy v_fz 
    6078   -1152448.8            0   -1152448.8 -0.0046310632 -0.009663579 -0.012641188 
    6224   -1152448.8            0   -1152448.8 2.3541971e-05 4.2599433e-05 5.7770034e-05 
Loop time of 1.67223 on 104 procs for 146 steps with 288751 atoms

99.9% CPU use with 104 MPI tasks x 1 OpenMP threads

Minimization stats:
  Stopping criterion = energy tolerance
  Energy initial, next-to-last, final = 
     -1152448.75490672  -1152448.75653302  -1152448.75653302
  Force two-norm initial, final = 0.18114239 0.00030926916
  Force max component initial, final = 0.15070723 6.9632623e-05
  Final line search alpha, max atom move = 1.0000000 6.9632623e-05
  Iterations, force evaluations = 146 292

MPI task timing breakdown:
Section |  min time  |  avg time  |  max time  |%varavg| %total
---------------------------------------------------------------
Pair    | 0.44496    | 1.224      | 1.5849     |  29.8 | 73.20
Neigh   | 0          | 0          | 0          |   0.0 |  0.00
Comm    | 0.02614    | 0.27121    | 0.82615    |  44.5 | 16.22
Output  | 0          | 0          | 0          |   0.0 |  0.00
Modify  | 1.7442e-05 | 0.0024089  | 0.0051747  |   2.3 |  0.14
Other   |            | 0.1746     |            |       | 10.44

Nlocal:        2776.45 ave        3940 max           0 min
Histogram: 8 4 4 0 4 12 8 2 26 36
Nghost:        3879.07 ave        5424 max         232 min
Histogram: 8 0 8 0 16 0 8 8 16 40
Neighs:        79213.6 ave      114777 max           0 min
Histogram: 8 4 4 0 10 6 8 8 22 34

Total # of neighbors = 8238212
Ave neighs/atom = 28.530506
Neighbor list builds = 0
Dangerous builds = 0
The dot product: 9.89335191720131e-08
Setting atom values ...
  1 settings made for x
  1 settings made for y
  1 settings made for z
Setting up cg style minimization ...
  Unit style    : metal
  Current step  : 6224
Per MPI rank memory allocation (min/avg/max) = 5.441 | 5.816 | 6.074 Mbytes
Step PotEng KinEng TotEng v_fx v_fy v_fz 
    6224   -1152448.7            0   -1152448.7 -0.0052770057 -0.012554205 -0.015874246 
    6426   -1152448.7            0   -1152448.7 -6.008844e-06 -1.8401722e-05 -2.2141834e-05 
Loop time of 2.3544 on 104 procs for 202 steps with 288751 atoms

99.9% CPU use with 104 MPI tasks x 1 OpenMP threads

Minimization stats:
  Stopping criterion = energy tolerance
  Energy initial, next-to-last, final = 
     -1152448.71589734  -1152448.71766713  -1152448.71766713
  Force two-norm initial, final = 0.18169266 0.000153302
  Force max component initial, final = 0.15183088 2.7402856e-05
  Final line search alpha, max atom move = 1.0000000 2.7402856e-05
  Iterations, force evaluations = 202 404

MPI task timing breakdown:
Section |  min time  |  avg time  |  max time  |%varavg| %total
---------------------------------------------------------------
Pair    | 0.61867    | 1.7075     | 2.2058     |  34.8 | 72.52
Neigh   | 0          | 0          | 0          |   0.0 |  0.00
Comm    | 0.036203   | 0.37978    | 1.157      |  52.5 | 16.13
Output  | 0          | 0          | 0          |   0.0 |  0.00
Modify  | 2.5212e-05 | 0.0033224  | 0.0070887  |   2.7 |  0.14
Other   |            | 0.2638     |            |       | 11.20

Nlocal:        2776.45 ave        3940 max           0 min
Histogram: 8 4 4 0 4 12 8 2 26 36
Nghost:        3879.07 ave        5424 max         232 min
Histogram: 8 0 8 0 16 0 8 8 16 40
Neighs:        79213.6 ave      114781 max           0 min
Histogram: 8 4 4 0 10 6 8 8 22 34

Total # of neighbors = 8238212
Ave neighs/atom = 28.530506
Neighbor list builds = 0
Dangerous builds = 0
The dot product: -2.91869988527489e-08
Setting atom values ...
  1 settings made for x
  1 settings made for y
  1 settings made for z
Setting up cg style minimization ...
  Unit style    : metal
  Current step  : 6426
Per MPI rank memory allocation (min/avg/max) = 5.441 | 5.816 | 6.074 Mbytes
Step PotEng KinEng TotEng v_fx v_fy v_fz 
    6426   -1152448.7            0   -1152448.7 -0.0056200383 -0.014559207 -0.018031958 
    6566   -1152448.7            0   -1152448.7 -4.8336219e-06 -9.7783786e-06 -1.2801885e-05 
Loop time of 1.60167 on 104 procs for 140 steps with 288751 atoms

99.9% CPU use with 104 MPI tasks x 1 OpenMP threads

Minimization stats:
  Stopping criterion = energy tolerance
  Energy initial, next-to-last, final = 
     -1152448.67654153  -1152448.67827986  -1152448.67827986
  Force two-norm initial, final = 0.18066538 0.00020664885
  Force max component initial, final = 0.15192464 2.3050740e-05
  Final line search alpha, max atom move = 1.0000000 2.3050740e-05
  Iterations, force evaluations = 140 280

MPI task timing breakdown:
Section |  min time  |  avg time  |  max time  |%varavg| %total
---------------------------------------------------------------
Pair    | 0.42626    | 1.1745     | 1.5179     |  29.2 | 73.33
Neigh   | 0          | 0          | 0          |   0.0 |  0.00
Comm    | 0.025154   | 0.25906    | 0.7883     |  43.9 | 16.17
Output  | 0          | 0          | 0          |   0.0 |  0.00
Modify  | 1.6832e-05 | 0.0023141  | 0.004973   |   2.3 |  0.14
Other   |            | 0.1658     |            |       | 10.35

Nlocal:        2776.45 ave        3941 max           0 min
Histogram: 8 4 4 0 4 12 8 2 26 36
Nghost:        3879.09 ave        5424 max         232 min
Histogram: 8 0 8 0 16 0 8 8 16 40
Neighs:        79213.5 ave      114789 max           0 min
Histogram: 8 4 4 0 10 6 8 8 22 34

Total # of neighbors = 8238205
Ave neighs/atom = 28.530481
Neighbor list builds = 0
Dangerous builds = 0
The dot product: 3.49387327640311e-09
Setting atom values ...
  1 settings made for x
  1 settings made for y
  1 settings made for z
Setting up cg style minimization ...
  Unit style    : metal
  Current step  : 6566
Per MPI rank memory allocation (min/avg/max) = 5.441 | 5.816 | 6.074 Mbytes
Step PotEng KinEng TotEng v_fx v_fy v_fz 
    6566   -1152448.6            0   -1152448.6 -0.0058992575 -0.017580094 -0.021201407 
    6837   -1152448.6            0   -1152448.6 -7.8936775e-06 -1.7516368e-05 -2.244497e-05 
Loop time of 3.14384 on 104 procs for 271 steps with 288751 atoms

99.9% CPU use with 104 MPI tasks x 1 OpenMP threads

Minimization stats:
  Stopping criterion = energy tolerance
  Energy initial, next-to-last, final = 
     -1152448.63678517  -1152448.63873798  -1152448.63873798
  Force two-norm initial, final = 0.17976792 0.00011178551
  Force max component initial, final = 0.15176749 2.2444970e-05
  Final line search alpha, max atom move = 1.0000000 2.2444970e-05
  Iterations, force evaluations = 271 542

MPI task timing breakdown:
Section |  min time  |  avg time  |  max time  |%varavg| %total
---------------------------------------------------------------
Pair    | 0.82897    | 2.2857     | 2.9565     |  40.5 | 72.70
Neigh   | 0          | 0          | 0          |   0.0 |  0.00
Comm    | 0.051617   | 0.51257    | 1.5541     |  60.1 | 16.30
Output  | 0          | 0          | 0          |   0.0 |  0.00
Modify  | 3.2412e-05 | 0.0044569  | 0.009538   |   3.2 |  0.14
Other   |            | 0.3412     |            |       | 10.85

Nlocal:        2776.45 ave        3941 max           0 min
Histogram: 8 4 4 0 4 12 8 2 26 36
Nghost:        3879.09 ave        5424 max         232 min
Histogram: 8 0 8 0 16 0 8 8 16 40
Neighs:        79213.5 ave      114786 max           0 min
Histogram: 8 4 4 0 10 6 8 8 22 34

Total # of neighbors = 8238200
Ave neighs/atom = 28.530464
Neighbor list builds = 0
Dangerous builds = 0
The dot product: 1.86653966690016e-08
Setting atom values ...
  1 settings made for x
  1 settings made for y
  1 settings made for z
Setting up cg style minimization ...
  Unit style    : metal
  Current step  : 6837
Per MPI rank memory allocation (min/avg/max) = 5.441 | 5.816 | 6.074 Mbytes
Step PotEng KinEng TotEng v_fx v_fy v_fz 
    6837   -1152448.6            0   -1152448.6 -0.0090901751 -0.018832937 -0.024571927 
    7000   -1152448.6            0   -1152448.6 8.0578674e-06 4.9969842e-06 1.0241151e-05 
    7107   -1152448.6            0   -1152448.6 -4.6686728e-07 -1.7564985e-06 -2.040663e-06 
Loop time of 3.09901 on 104 procs for 270 steps with 288751 atoms

99.9% CPU use with 104 MPI tasks x 1 OpenMP threads

Minimization stats:
  Stopping criterion = energy tolerance
  Energy initial, next-to-last, final = 
     -1152448.59791507  -1152448.60003701  -1152448.60003701
  Force two-norm initial, final = 0.17782861 1.1486182e-05
  Force max component initial, final = 0.14941621 2.3942767e-06
  Final line search alpha, max atom move = 1.0000000 2.3942767e-06
  Iterations, force evaluations = 270 540

MPI task timing breakdown:
Section |  min time  |  avg time  |  max time  |%varavg| %total
---------------------------------------------------------------
Pair    | 0.82465    | 2.2658     | 2.9272     |  40.5 | 73.11
Neigh   | 0          | 0          | 0          |   0.0 |  0.00
Comm    | 0.049916   | 0.50173    | 1.5256     |  60.7 | 16.19
Output  | 0.00010425 | 0.0001068  | 0.00024178 |   0.0 |  0.00
Modify  | 3.2263e-05 | 0.0044467  | 0.0095303  |   3.2 |  0.14
Other   |            | 0.3269     |            |       | 10.55

Nlocal:        2776.45 ave        3942 max           0 min
Histogram: 8 4 4 0 4 12 8 2 26 36
Nghost:        3879.09 ave        5424 max         232 min
Histogram: 8 0 8 0 16 0 8 8 16 40
Neighs:        79213.5 ave      114825 max           0 min
Histogram: 8 4 4 0 10 6 8 8 22 34

Total # of neighbors = 8238205
Ave neighs/atom = 28.530481
Neighbor list builds = 0
Dangerous builds = 0
The dot product: 1.02771114610187e-09
Setting atom values ...
  1 settings made for x
  1 settings made for y
  1 settings made for z
Setting up cg style minimization ...
  Unit style    : metal
  Current step  : 7107
Per MPI rank memory allocation (min/avg/max) = 5.441 | 5.816 | 6.074 Mbytes
Step PotEng KinEng TotEng v_fx v_fy v_fz 
    7107   -1152448.6            0   -1152448.6 -0.011450444 -0.018986706 -0.026331088 
    7359   -1152448.6            0   -1152448.6 -5.9877386e-07 -2.9263903e-06 -3.2845206e-06 
Loop time of 2.91801 on 104 procs for 252 steps with 288751 atoms

99.9% CPU use with 104 MPI tasks x 1 OpenMP threads

Minimization stats:
  Stopping criterion = energy tolerance
  Energy initial, next-to-last, final = 
      -1152448.5607271  -1152448.57174674  -1152448.57174674
  Force two-norm initial, final = 0.18337615 5.9834469e-05
  Force max component initial, final = 0.14680558 4.2961649e-06
  Final line search alpha, max atom move = 1.0000000 4.2961649e-06
  Iterations, force evaluations = 252 504

MPI task timing breakdown:
Section |  min time  |  avg time  |  max time  |%varavg| %total
---------------------------------------------------------------
Pair    | 0.77029    | 2.123      | 2.7606     |  39.1 | 72.75
Neigh   | 1.0285e-05 | 0.0029645  | 0.0042727  |   2.2 |  0.10
Comm    | 0.044315   | 0.47505    | 1.4448     |  58.1 | 16.28
Output  | 0          | 0          | 0          |   0.0 |  0.00
Modify  | 2.9865e-05 | 0.0041518  | 0.0088356  |   3.1 |  0.14
Other   |            | 0.3129     |            |       | 10.72

Nlocal:        2776.45 ave        3942 max           0 min
Histogram: 8 4 4 0 4 12 8 2 26 36
Nghost:        3879.07 ave        5424 max         232 min
Histogram: 8 0 8 0 16 0 8 8 16 40
Neighs:        79213.4 ave      114820 max           0 min
Histogram: 8 4 4 0 10 6 8 8 22 34

Total # of neighbors = 8238194
Ave neighs/atom = 28.530443
Neighbor list builds = 1
Dangerous builds = 0
The dot product: -6.29441112899863e-08
Setting atom values ...
  1 settings made for x
  1 settings made for y
  1 settings made for z
Setting up cg style minimization ...
  Unit style    : metal
  Current step  : 7359
Per MPI rank memory allocation (min/avg/max) = 5.441 | 5.816 | 6.074 Mbytes
Step PotEng KinEng TotEng v_fx v_fy v_fz 
    7359   -1152448.5            0   -1152448.5 -0.005660313 -0.013063616 -0.016038952 
    7550   -1152448.5            0   -1152448.5 3.7814545e-06 9.5866877e-06 1.1529804e-05 
[...]

Nlocal:        2776.45 ave        3948 max           0 min
Histogram: 8 4 4 0 4 12 8 0 28 36
Nghost:        3878.76 ave        5422 max         232 min
Histogram: 8 0 8 0 16 0 8 8 16 40
Neighs:        79213.5 ave      115117 max           0 min
Histogram: 8 4 4 0 10 6 8 8 24 32

Total # of neighbors = 8238200
Ave neighs/atom = 28.530464
Neighbor list builds = 0
Dangerous builds = 0
The dot product: 1.02804906883644e-07
Setting atom values ...
  1 settings made for x
  1 settings made for y
  1 settings made for z
Setting up cg style minimization ...
  Unit style    : metal
  Current step  : 27239
Per MPI rank memory allocation (min/avg/max) = 5.441 | 5.816 | 6.074 Mbytes
Step PotEng KinEng TotEng v_fx v_fy v_fz 
   27239   -1152449.4            0   -1152449.4 -0.023939782  0.019402025  0.040963824 
   27412   -1152449.4            0   -1152449.4 1.8432844e-05 1.1319775e-05 8.7678364e-07 
Loop time of 2.03941 on 104 procs for 173 steps with 288751 atoms

99.9% CPU use with 104 MPI tasks x 1 OpenMP threads

Minimization stats:
  Stopping criterion = energy tolerance
  Energy initial, next-to-last, final = 
     -1152449.42934149  -1152449.43075495  -1152449.43075495
  Force two-norm initial, final = 0.17166518 0.00020792714
  Force max component initial, final = 0.07377988 3.0637815e-05
  Final line search alpha, max atom move = 1.0000000 3.0637815e-05
  Iterations, force evaluations = 173 346

MPI task timing breakdown:
Section |  min time  |  avg time  |  max time  |%varavg| %total
---------------------------------------------------------------
Pair    | 0.53539    | 1.46       | 1.8932     |  32.3 | 71.59
Neigh   | 0          | 0          | 0          |   0.0 |  0.00
Comm    | 0.031039   | 0.3296     | 1.0046     |  47.9 | 16.16
Output  | 0          | 0          | 0          |   0.0 |  0.00
Modify  | 2.1979e-05 | 0.0028549  | 0.0061094  |   2.5 |  0.14
Other   |            | 0.2469     |            |       | 12.11

Nlocal:        2776.45 ave        3949 max           0 min
Histogram: 8 4 4 0 4 12 8 0 28 36
Nghost:        3878.76 ave        5422 max         232 min
Histogram: 8 0 8 0 16 0 8 8 16 40
Neighs:        79213.5 ave      115146 max           0 min
Histogram: 8 4 4 0 10 6 8 8 24 32

Total # of neighbors = 8238204
Ave neighs/atom = 28.530478
Neighbor list builds = 0
Dangerous builds = 0
The dot product: 1.7998420635956e-08
Setting atom values ...
  1 settings made for x
  1 settings made for y
  1 settings made for z
Setting up cg style minimization ...
  Unit style    : metal
  Current step  : 27412
Per MPI rank memory allocation (min/avg/max) = 5.441 | 5.816 | 6.074 Mbytes
Step PotEng KinEng TotEng v_fx v_fy v_fz 
   27412   -1152449.4            0   -1152449.4 -0.027041565  0.015829952  0.038845601 
   27604   -1152449.4            0   -1152449.4 6.613452e-06 2.6173726e-05 2.7687578e-05 
Loop time of 2.21357 on 104 procs for 192 steps with 288751 atoms

99.9% CPU use with 104 MPI tasks x 1 OpenMP threads

Minimization stats:
  Stopping criterion = energy tolerance
  Energy initial, next-to-last, final = 
     -1152449.42261164  -1152449.42397209  -1152449.42397209
  Force two-norm initial, final = 0.16890906 0.00011223038
  Force max component initial, final = 0.072917684 2.7687578e-05
  Final line search alpha, max atom move = 1.0000000 2.7687578e-05
  Iterations, force evaluations = 192 384

MPI task timing breakdown:
Section |  min time  |  avg time  |  max time  |%varavg| %total
---------------------------------------------------------------
Pair    | 0.59375    | 1.6103     | 2.0995     |  34.1 | 72.75
Neigh   | 0          | 0          | 0          |   0.0 |  0.00
Comm    | 0.032849   | 0.36378    | 1.106      |  50.6 | 16.43
Output  | 0          | 0          | 0          |   0.0 |  0.00
Modify  | 2.5082e-05 | 0.0031556  | 0.0067707  |   2.7 |  0.14
Other   |            | 0.2363     |            |       | 10.68

Nlocal:        2776.45 ave        3950 max           0 min
Histogram: 8 4 4 0 4 12 8 0 28 36
Nghost:        3878.77 ave        5423 max         232 min
Histogram: 8 0 8 0 16 0 8 8 16 40
Neighs:        79213.5 ave      115175 max           0 min
Histogram: 8 4 4 0 10 6 8 8 24 32

Total # of neighbors = 8238205
Ave neighs/atom = 28.530481
Neighbor list builds = 0
Dangerous builds = 0
The dot product: 1.07680485703096e-07
Setting atom values ...
  1 settings made for x
  1 settings made for y
  1 settings made for z
Setting up cg style minimization ...
  Unit style    : metal
  Current step  : 27604
Per MPI rank memory allocation (min/avg/max) = 5.441 | 5.816 | 6.074 Mbytes
Step PotEng KinEng TotEng v_fx v_fy v_fz 
   27604   -1152449.4            0   -1152449.4 -0.030920536  0.011496718  0.036322784 
   27807   -1152449.4            0   -1152449.4 -1.333427e-05 -1.4111757e-05 -7.9928607e-06 
Loop time of 2.34866 on 104 procs for 203 steps with 288751 atoms

99.9% CPU use with 104 MPI tasks x 1 OpenMP threads

Minimization stats:
  Stopping criterion = energy tolerance
  Energy initial, next-to-last, final = 
     -1152449.41432727  -1152449.41563307  -1152449.41563307
  Force two-norm initial, final = 0.16647001 7.8387525e-05
  Force max component initial, final = 0.072126446 1.4111757e-05
  Final line search alpha, max atom move = 1.0000000 1.4111757e-05
  Iterations, force evaluations = 203 406

MPI task timing breakdown:
Section |  min time  |  avg time  |  max time  |%varavg| %total
---------------------------------------------------------------
Pair    | 0.61938    | 1.7039     | 2.22       |  35.2 | 72.55
Neigh   | 0          | 0          | 0          |   0.0 |  0.00
Comm    | 0.034165   | 0.38726    | 1.178      |  52.2 | 16.49
Output  | 0          | 0          | 0          |   0.0 |  0.00
Modify  | 2.5554e-05 | 0.0033604  | 0.0071986  |   2.8 |  0.14
Other   |            | 0.2542     |            |       | 10.82

Nlocal:        2776.45 ave        3950 max           0 min
Histogram: 8 4 4 0 4 12 8 0 28 36
Nghost:        3878.78 ave        5423 max         232 min
Histogram: 8 0 8 0 16 0 8 8 16 40
Neighs:        79213.5 ave      115174 max           0 min
Histogram: 8 4 4 0 10 6 8 8 24 32

Total # of neighbors = 8238207
Ave neighs/atom = 28.530488
Neighbor list builds = 0
Dangerous builds = 0
The dot product: -1.75464775717347e-08
Setting atom values ...
  1 settings made for x
  1 settings made for y
  1 settings made for z
Setting up cg style minimization ...
  Unit style    : metal
  Current step  : 27807
Per MPI rank memory allocation (min/avg/max) = 5.441 | 5.816 | 6.074 Mbytes
Step PotEng KinEng TotEng v_fx v_fy v_fz 
   27807   -1152449.4            0   -1152449.4 -0.036822656 0.0048498705   0.03236403 
   28000   -1152449.4            0   -1152449.4 6.4393015e-06 -7.1632439e-06 -1.3508908e-05 
Loop time of 2.23014 on 104 procs for 193 steps with 288751 atoms

99.9% CPU use with 104 MPI tasks x 1 OpenMP threads

Minimization stats:
  Stopping criterion = energy tolerance
  Energy initial, next-to-last, final = 
     -1152449.40463135  -1152449.40588937  -1152449.40588937
  Force two-norm initial, final = 0.16485431 8.7854592e-05
  Force max component initial, final = 0.071617293 1.8412606e-05
  Final line search alpha, max atom move = 1.0000000 1.8412606e-05
  Iterations, force evaluations = 193 386

MPI task timing breakdown:
Section |  min time  |  avg time  |  max time  |%varavg| %total
---------------------------------------------------------------
Pair    | 0.58774    | 1.6161     | 2.1157     |  34.2 | 72.47
Neigh   | 0          | 0          | 0          |   0.0 |  0.00
Comm    | 0.033094   | 0.36187    | 1.0913     |  50.7 | 16.23
Output  | 0          | 0          | 0          |   0.0 |  0.00
Modify  | 2.4598e-05 | 0.0031774  | 0.0068089  |   2.7 |  0.14
Other   |            | 0.2489     |            |       | 11.16

Nlocal:        2776.45 ave        3950 max           0 min
Histogram: 8 4 4 0 4 12 8 0 28 36
Nghost:        3878.78 ave        5423 max         232 min
Histogram: 8 0 8 0 16 0 8 8 16 40
Neighs:        79213.5 ave      115174 max           0 min
Histogram: 8 4 4 0 10 6 8 8 24 32

Total # of neighbors = 8238204
Ave neighs/atom = 28.530478
Neighbor list builds = 0
Dangerous builds = 0
The dot product: -4.46447069240551e-08
Setting atom values ...
  1 settings made for x
  1 settings made for y
  1 settings made for z
Setting up cg style minimization ...
  Unit style    : metal
  Current step  : 28000
Per MPI rank memory allocation (min/avg/max) = 5.441 | 5.816 | 6.074 Mbytes
Step PotEng KinEng TotEng v_fx v_fy v_fz 
   28000   -1152449.4            0   -1152449.4 -0.044332361 -0.0035626988  0.027379569 
   28111   -1152449.4            0   -1152449.4 -2.8666187e-07 -1.7779439e-05 -2.1919637e-05 
Loop time of 1.28289 on 104 procs for 111 steps with 288751 atoms

99.9% CPU use with 104 MPI tasks x 1 OpenMP threads

Minimization stats:
  Stopping criterion = energy tolerance
  Energy initial, next-to-last, final = 
     -1152449.39386482  -1152449.39525399  -1152449.39525399
  Force two-norm initial, final = 0.16649569 0.00017270061
  Force max component initial, final = 0.07148637 2.3770156e-05
  Final line search alpha, max atom move = 1.0000000 2.3770156e-05
  Iterations, force evaluations = 111 222

MPI task timing breakdown:
Section |  min time  |  avg time  |  max time  |%varavg| %total
---------------------------------------------------------------
Pair    | 0.33897    | 0.93373    | 1.2152     |  26.1 | 72.78
Neigh   | 0          | 0          | 0          |   0.0 |  0.00
Comm    | 0.019325   | 0.21048    | 0.64416    |  39.0 | 16.41
Output  | 0          | 0          | 0          |   0.0 |  0.00
Modify  | 1.44e-05   | 0.0018377  | 0.0039306  |   2.0 |  0.14
Other   |            | 0.1368     |            |       | 10.67

Nlocal:        2776.45 ave        3949 max           0 min
Histogram: 8 4 4 0 4 12 8 0 28 36
Nghost:        3878.78 ave        5423 max         232 min
Histogram: 8 0 8 0 16 0 8 8 16 40
Neighs:        79213.5 ave      115144 max           0 min
Histogram: 8 4 4 0 10 6 8 8 24 32

Total # of neighbors = 8238203
Ave neighs/atom = 28.530474
Neighbor list builds = 0
Dangerous builds = 0
The dot product: 3.33747949250059e-08
Setting atom values ...
  1 settings made for x
  1 settings made for y
  1 settings made for z
Setting up cg style minimization ...
  Unit style    : metal
  Current step  : 28111
Per MPI rank memory allocation (min/avg/max) = 5.441 | 5.816 | 6.074 Mbytes
Step PotEng KinEng TotEng v_fx v_fy v_fz 
   28111   -1152449.4            0   -1152449.4 -0.052224591 -0.012105717  0.022660515 
   28306   -1152449.4            0   -1152449.4 -1.1490874e-06 -1.1264964e-05 -1.3177228e-05 
Loop time of 2.26067 on 104 procs for 195 steps with 288751 atoms

99.9% CPU use with 104 MPI tasks x 1 OpenMP threads

Minimization stats:
  Stopping criterion = energy tolerance
  Energy initial, next-to-last, final = 
     -1152449.38306041  -1152449.38501826  -1152449.38501826
  Force two-norm initial, final = 0.17090999 7.5723323e-05
  Force max component initial, final = 0.070480904 1.7165406e-05
  Final line search alpha, max atom move = 1.0000000 1.7165406e-05
  Iterations, force evaluations = 195 390

MPI task timing breakdown:
Section |  min time  |  avg time  |  max time  |%varavg| %total
---------------------------------------------------------------
Pair    | 0.5954     | 1.6335     | 2.1388     |  34.4 | 72.26
Neigh   | 0          | 0          | 0          |   0.0 |  0.00
Comm    | 0.036416   | 0.36769    | 1.1111     |  50.9 | 16.26
Output  | 0          | 0          | 0          |   0.0 |  0.00
Modify  | 2.488e-05  | 0.0032162  | 0.0068952  |   2.7 |  0.14
Other   |            | 0.2562     |            |       | 11.33

Nlocal:        2776.45 ave        3949 max           0 min
Histogram: 8 4 4 0 4 12 8 0 28 36
Nghost:        3878.78 ave        5423 max         232 min
Histogram: 8 0 8 0 16 0 8 8 16 40
Neighs:        79213.5 ave      115144 max           0 min
Histogram: 8 4 4 0 10 6 8 8 24 32

Total # of neighbors = 8238205
Ave neighs/atom = 28.530481
Neighbor list builds = 0
Dangerous builds = 0
The dot product: 1.17344613696123e-07
Setting atom values ...
  1 settings made for x
  1 settings made for y
  1 settings made for z
Setting up cg style minimization ...
  Unit style    : metal
  Current step  : 28306
Per MPI rank memory allocation (min/avg/max) = 5.441 | 5.816 | 6.074 Mbytes
Step PotEng KinEng TotEng v_fx v_fy v_fz 
   28306   -1152449.4            0   -1152449.4 -0.053387718 -0.013769634  0.021961951 
   28424   -1152449.4            0   -1152449.4 1.1134654e-05 3.160907e-05 3.1003967e-05 
Loop time of 1.37393 on 104 procs for 118 steps with 288751 atoms

99.9% CPU use with 104 MPI tasks x 1 OpenMP threads

Minimization stats:
  Stopping criterion = energy tolerance
  Energy initial, next-to-last, final = 
     -1152449.37375823  -1152449.37546303  -1152449.37546303
  Force two-norm initial, final = 0.16830291 0.00014980902
  Force max component initial, final = 0.07010977 3.8277943e-05
  Final line search alpha, max atom move = 1.0000000 3.8277943e-05
  Iterations, force evaluations = 118 236

MPI task timing breakdown:
Section |  min time  |  avg time  |  max time  |%varavg| %total
---------------------------------------------------------------
Pair    | 0.35955    | 0.99183    | 1.3031     |  26.9 | 72.19
Neigh   | 0          | 0          | 0          |   0.0 |  0.00
Comm    | 0.020116   | 0.22407    | 0.67878    |  39.7 | 16.31
Output  | 0          | 0          | 0          |   0.0 |  0.00
Modify  | 1.5655e-05 | 0.0019525  | 0.0042991  |   2.1 |  0.14
Other   |            | 0.1561     |            |       | 11.36

Nlocal:        2776.45 ave        3951 max           0 min
Histogram: 8 4 4 0 4 12 8 0 30 34
Nghost:        3878.78 ave        5423 max         232 min
Histogram: 8 0 8 0 16 0 8 8 16 40
Neighs:        79213.5 ave      115203 max           0 min
Histogram: 8 4 4 0 10 6 8 8 24 32

Total # of neighbors = 8238205
Ave neighs/atom = 28.530481
Neighbor list builds = 0
Dangerous builds = 0
The dot product: -3.24586972722528e-07
Setting atom values ...
  1 settings made for x
  1 settings made for y
  1 settings made for z
Setting up cg style minimization ...
  Unit style    : metal
  Current step  : 28424
Per MPI rank memory allocation (min/avg/max) = 5.441 | 5.816 | 6.074 Mbytes
Step PotEng KinEng TotEng v_fx v_fy v_fz 
   28424   -1152449.4            0   -1152449.4 -0.050585878 -0.012155563  0.022294093 
   28603   -1152449.4            0   -1152449.4 5.2199479e-06 6.3528919e-07 -3.064865e-06 
Loop time of 2.10099 on 104 procs for 179 steps with 288751 atoms

99.9% CPU use with 104 MPI tasks x 1 OpenMP threads

Minimization stats:
  Stopping criterion = energy tolerance
  Energy initial, next-to-last, final = 
     -1152449.36443479  -1152449.36590598  -1152449.36590598
  Force two-norm initial, final = 0.16376374 2.8698578e-05
  Force max component initial, final = 0.069876322 5.2199479e-06
  Final line search alpha, max atom move = 1.0000000 5.2199479e-06
  Iterations, force evaluations = 179 358

MPI task timing breakdown:
Section |  min time  |  avg time  |  max time  |%varavg| %total
---------------------------------------------------------------
Pair    | 0.54856    | 1.5001     | 1.9594     |  32.9 | 71.40
Neigh   | 0          | 0          | 0          |   0.0 |  0.00
Comm    | 0.031457   | 0.34245    | 1.042      |  48.4 | 16.30
Output  | 0          | 0          | 0          |   0.0 |  0.00
Modify  | 2.2822e-05 | 0.002954   | 0.0063358  |   2.6 |  0.14
Other   |            | 0.2555     |            |       | 12.16

Nlocal:        2776.45 ave        3950 max           0 min
Histogram: 8 4 4 0 4 12 8 0 28 36
Nghost:        3878.78 ave        5423 max         232 min
Histogram: 8 0 8 0 16 0 8 8 16 40
Neighs:        79213.5 ave      115174 max           0 min
Histogram: 8 4 4 0 10 6 8 8 24 32

Total # of neighbors = 8238206
Ave neighs/atom = 28.530485
Neighbor list builds = 0
Dangerous builds = 0
The dot product: -4.8327281534334e-08
Setting atom values ...
  1 settings made for x
  1 settings made for y
  1 settings made for z
Setting up cg style minimization ...
  Unit style    : metal
  Current step  : 28603
Per MPI rank memory allocation (min/avg/max) = 5.441 | 5.816 | 6.074 Mbytes
Step PotEng KinEng TotEng v_fx v_fy v_fz 
   28603   -1152449.4            0   -1152449.4 -0.048784525  -0.01152482  0.022014412 
   28730   -1152449.4            0   -1152449.4 8.7098065e-06 -2.6249846e-05 -3.8821736e-05 
Loop time of 1.47968 on 104 procs for 127 steps with 288751 atoms

99.9% CPU use with 104 MPI tasks x 1 OpenMP threads

Minimization stats:
  Stopping criterion = energy tolerance
  Energy initial, next-to-last, final = 
     -1152449.35461125   -1152449.3559895   -1152449.3559895
  Force two-norm initial, final = 0.1604855 0.00017045066
  Force max component initial, final = 0.069337692 3.9242706e-05
  Final line search alpha, max atom move = 1.0000000 3.9242706e-05
  Iterations, force evaluations = 127 254

MPI task timing breakdown:
Section |  min time  |  avg time  |  max time  |%varavg| %total
---------------------------------------------------------------
Pair    | 0.38561    | 1.0668     | 1.4041     |  28.0 | 72.09
Neigh   | 0          | 0          | 0          |   0.0 |  0.00
Comm    | 0.021687   | 0.24242    | 0.73388    |  41.1 | 16.38
Output  | 0          | 0          | 0          |   0.0 |  0.00
Modify  | 1.6016e-05 | 0.0021015  | 0.004582   |   2.2 |  0.14
Other   |            | 0.1684     |            |       | 11.38

Nlocal:        2776.45 ave        3950 max           0 min
Histogram: 8 4 4 0 4 12 8 0 28 36
Nghost:        3878.78 ave        5423 max         232 min
Histogram: 8 0 8 0 16 0 8 8 16 40
Neighs:        79213.5 ave      115174 max           0 min
Histogram: 8 4 4 0 10 6 8 8 24 32

Total # of neighbors = 8238204
Ave neighs/atom = 28.530478
Neighbor list builds = 0
Dangerous builds = 0
The dot product: 6.94275056848802e-09
Setting atom values ...
  1 settings made for x
  1 settings made for y
  1 settings made for z
Setting up cg style minimization ...
  Unit style    : metal
  Current step  : 28730
Per MPI rank memory allocation (min/avg/max) = 5.441 | 5.816 | 6.074 Mbytes
Step PotEng KinEng TotEng v_fx v_fy v_fz 
   28730   -1152449.3            0   -1152449.3 -0.048761538  -0.01292753   0.02049863 
   28880   -1152449.3            0   -1152449.3 -1.4112034e-05 1.3386591e-07 1.0702907e-05 
Loop time of 1.73147 on 104 procs for 150 steps with 288751 atoms

99.9% CPU use with 104 MPI tasks x 1 OpenMP threads

Minimization stats:
  Stopping criterion = energy tolerance
  Energy initial, next-to-last, final = 
     -1152449.34426963  -1152449.34564487  -1152449.34564487
  Force two-norm initial, final = 0.15870369 0.00010391896
  Force max component initial, final = 0.06865836 2.2249932e-05
  Final line search alpha, max atom move = 1.0000000 2.2249932e-05
  Iterations, force evaluations = 150 300

MPI task timing breakdown:
Section |  min time  |  avg time  |  max time  |%varavg| %total
---------------------------------------------------------------
Pair    | 0.46195    | 1.2589     | 1.6417     |  30.2 | 72.70
Neigh   | 0          | 0          | 0          |   0.0 |  0.00
Comm    | 0.025576   | 0.28431    | 0.86959    |  44.9 | 16.42
Output  | 0          | 0          | 0          |   0.0 |  0.00
Modify  | 1.9124e-05 | 0.0024778  | 0.0052946  |   2.4 |  0.14
Other   |            | 0.1858     |            |       | 10.73

Nlocal:        2776.45 ave        3951 max           0 min
Histogram: 8 4 4 0 4 12 8 0 30 34
Nghost:        3878.74 ave        5423 max         232 min
Histogram: 8 0 8 0 16 0 8 8 16 40
Neighs:        79213.5 ave      115203 max           0 min
Histogram: 8 4 4 0 10 6 8 8 24 32

Total # of neighbors = 8238205
Ave neighs/atom = 28.530481
Neighbor list builds = 0
Dangerous builds = 0
The dot product: 1.03830123397745e-07
