LAMMPS (29 Oct 2020)
OMP_NUM_THREADS environment is not set. Defaulting to 1 thread. (../comm.cpp:94)
  using 1 OpenMP thread(s) per MPI task
OMP_NUM_THREADS environment is not set. Defaulting to 1 thread. (../comm.cpp:94)
  using 1 OpenMP thread(s) per MPI task
Reading data file ...
  orthogonal box = (-122.39241 -121.13707 -37.090501) to (122.39241 121.13707 37.090501)
  13 by 4 by 2 MPI processor grid
  reading atoms ...
  288751 atoms
  read_data CPU = 0.451 seconds
199981 atoms in group inner
88770 atoms in group outer
1 atoms in group carbon
Neighbor list info ...
  update every 1 steps, delay 0 steps, check yes
  max neighbors/atom: 2000, page size: 100000
  master list distance cutoff = 5.6
  ghost atom cutoff = 5.6
  binsize = 2.8, bins = 88 87 27
  1 neighbor lists, perpetual/occasional/extra = 1 0 0
  (1) pair eam/alloy, perpetual
      attributes: half, newton on
      pair build: half/bin/atomonly/newton
      stencil: half/bin/3d/newton
      bin: standard
Setting up cg style minimization ...
  Unit style    : metal
  Current step  : 0
Per MPI rank memory allocation (min/avg/max) = 5.441 | 5.816 | 6.074 Mbytes
Step v_fx v_fy v_fz PotEng KinEng TotEng 
       0   -26.610355    15.412969   -51.768959   -1152432.9            0   -1152432.9 
     159 4.284493e-05 2.3730198e-07 1.3212816e-06   -1152449.5            0   -1152449.5 
Loop time of 1.89943 on 104 procs for 159 steps with 288751 atoms

99.8% CPU use with 104 MPI tasks x 1 OpenMP threads

Minimization stats:
  Stopping criterion = energy tolerance
  Energy initial, next-to-last, final = 
     -1152432.85151343  -1152449.45035283  -1152449.45035283
  Force two-norm initial, final = 90.023187 0.00022028345
  Force max component initial, final = 58.813871 4.2844930e-05
  Final line search alpha, max atom move = 1.0000000 4.2844930e-05
  Iterations, force evaluations = 159 310

MPI task timing breakdown:
Section |  min time  |  avg time  |  max time  |%varavg| %total
---------------------------------------------------------------
Pair    | 0.49675    | 1.3271     | 1.7229     |  30.4 | 69.87
Neigh   | 5.214e-05  | 0.015861   | 0.02441    |   5.3 |  0.84
Comm    | 0.030679   | 0.31925    | 0.91386    |  43.5 | 16.81
Output  | 0          | 0          | 0          |   0.0 |  0.00
Modify  | 1.8311e-05 | 0.0017088  | 0.0043698  |   2.6 |  0.09
Other   |            | 0.2355     |            |       | 12.40

Nlocal:        2776.45 ave        3957 max           0 min
Histogram: 8 4 4 0 4 12 8 2 28 34
Nghost:        3879.03 ave        5424 max         232 min
Histogram: 8 0 8 0 16 0 8 8 16 40
Neighs:        79213.6 ave      115350 max           0 min
Histogram: 8 4 4 0 10 6 8 8 24 32

Total # of neighbors = 8238211
Ave neighs/atom = 28.530502
Neighbor list builds = 5
Dangerous builds = 0
Setting atom values ...
  1 settings made for x
  1 settings made for y
  1 settings made for z
Setting up cg style minimization ...
  Unit style    : metal
  Current step  : 159
Per MPI rank memory allocation (min/avg/max) = 5.441 | 5.816 | 6.074 Mbytes
Step PotEng KinEng TotEng v_fx v_fy v_fz 
     159   -1152449.4            0   -1152449.4 0.00027873453 -0.0096951692 -0.0087323967 
     326   -1152449.5            0   -1152449.5 -1.0197813e-05 -3.9801445e-06 1.2643069e-05 
Loop time of 2.01299 on 104 procs for 167 steps with 288751 atoms

99.9% CPU use with 104 MPI tasks x 1 OpenMP threads

Minimization stats:
  Stopping criterion = energy tolerance
  Energy initial, next-to-last, final = 
     -1152449.44959049  -1152449.45008252  -1152449.45008252
  Force two-norm initial, final = 0.10176977 0.00014586501
  Force max component initial, final = 0.051592236 1.2709506e-05
  Final line search alpha, max atom move = 1.0000000 1.2709506e-05
  Iterations, force evaluations = 167 334

MPI task timing breakdown:
Section |  min time  |  avg time  |  max time  |%varavg| %total
---------------------------------------------------------------
Pair    | 0.51447    | 1.4195     | 1.8565     |  32.0 | 70.52
Neigh   | 0          | 0          | 0          |   0.0 |  0.00
Comm    | 0.03351    | 0.33103    | 0.95486    |  46.0 | 16.44
Output  | 0          | 0          | 0          |   0.0 |  0.00
Modify  | 2.1203e-05 | 0.0027868  | 0.0059495  |   2.5 |  0.14
Other   |            | 0.2597     |            |       | 12.90

Nlocal:        2776.45 ave        3958 max           0 min
Histogram: 8 4 4 0 4 12 8 2 28 34
Nghost:        3879.03 ave        5424 max         232 min
Histogram: 8 0 8 0 16 0 8 8 16 40
Neighs:        79213.4 ave      115379 max           0 min
Histogram: 8 4 4 0 10 6 8 8 24 32

Total # of neighbors = 8238197
Ave neighs/atom = 28.530454
Neighbor list builds = 0
Dangerous builds = 0
Setting atom values ...
  1 settings made for x
  1 settings made for y
  1 settings made for z
Setting up cg style minimization ...
  Unit style    : metal
  Current step  : 326
Per MPI rank memory allocation (min/avg/max) = 5.441 | 5.816 | 6.074 Mbytes
Step PotEng KinEng TotEng v_fx v_fy v_fz 
     326   -1152449.4            0   -1152449.4 -0.00050308986 -0.020419146 -0.018550397 
     519   -1152449.4            0   -1152449.4 -6.6705443e-06 1.4385233e-06 1.3567996e-05 
Loop time of 2.28348 on 104 procs for 193 steps with 288751 atoms

99.9% CPU use with 104 MPI tasks x 1 OpenMP threads

Minimization stats:
  Stopping criterion = energy tolerance
  Energy initial, next-to-last, final = 
     -1152449.44665115  -1152449.44825756  -1152449.44825756
  Force two-norm initial, final = 0.1851836 0.00010033727
  Force max component initial, final = 0.093890407 1.4141342e-05
  Final line search alpha, max atom move = 1.0000000 1.4141342e-05
  Iterations, force evaluations = 193 386

MPI task timing breakdown:
Section |  min time  |  avg time  |  max time  |%varavg| %total
---------------------------------------------------------------
Pair    | 0.5814     | 1.622      | 2.1318     |  34.7 | 71.03
Neigh   | 0          | 0          | 0          |   0.0 |  0.00
Comm    | 0.033731   | 0.37475    | 1.0954     |  49.7 | 16.41
Output  | 0          | 0          | 0          |   0.0 |  0.00
Modify  | 2.3811e-05 | 0.0031903  | 0.0068287  |   2.7 |  0.14
Other   |            | 0.2836     |            |       | 12.42

Nlocal:        2776.45 ave        3957 max           0 min
Histogram: 8 4 4 0 4 12 8 2 28 34
Nghost:        3879.03 ave        5424 max         232 min
Histogram: 8 0 8 0 16 0 8 8 16 40
Neighs:        79213.4 ave      115349 max           0 min
Histogram: 8 4 4 0 10 6 8 8 24 32

Total # of neighbors = 8238198
Ave neighs/atom = 28.530457
Neighbor list builds = 0
Dangerous builds = 0
The dot product: -2.84205002801624e-08
Setting atom values ...
  1 settings made for x
  1 settings made for y
  1 settings made for z
Setting up cg style minimization ...
  Unit style    : metal
  Current step  : 519
Per MPI rank memory allocation (min/avg/max) = 5.441 | 5.816 | 6.074 Mbytes
Step PotEng KinEng TotEng v_fx v_fy v_fz 
     519   -1152449.4            0   -1152449.4 -0.0022608815 -0.026598538 -0.024855768 
     697   -1152449.4            0   -1152449.4 1.136545e-05 -2.1311787e-06 -2.6845119e-05 
Loop time of 2.12684 on 104 procs for 178 steps with 288751 atoms

99.9% CPU use with 104 MPI tasks x 1 OpenMP threads

Minimization stats:
  Stopping criterion = energy tolerance
  Energy initial, next-to-last, final = 
     -1152449.44328129  -1152449.44489479  -1152449.44489479
  Force two-norm initial, final = 0.18666109 0.00014379671
  Force max component initial, final = 0.092411327 2.6876121e-05
  Final line search alpha, max atom move = 1.0000000 2.6876121e-05
  Iterations, force evaluations = 178 356

MPI task timing breakdown:
Section |  min time  |  avg time  |  max time  |%varavg| %total
---------------------------------------------------------------
Pair    | 0.53685    | 1.5061     | 1.9612     |  33.3 | 70.81
Neigh   | 0          | 0          | 0          |   0.0 |  0.00
Comm    | 0.031691   | 0.3503     | 1.0185     |  47.4 | 16.47
Output  | 0          | 0          | 0          |   0.0 |  0.00
Modify  | 2.1263e-05 | 0.0029511  | 0.0063185  |   2.6 |  0.14
Other   |            | 0.2675     |            |       | 12.58

Nlocal:        2776.45 ave        3957 max           0 min
Histogram: 8 4 4 0 4 12 8 2 28 34
Nghost:        3879.03 ave        5424 max         232 min
Histogram: 8 0 8 0 16 0 8 8 16 40
Neighs:        79213.4 ave      115357 max           0 min
Histogram: 8 4 4 0 10 6 8 8 24 32

Total # of neighbors = 8238196
Ave neighs/atom = 28.530450
Neighbor list builds = 0
Dangerous builds = 0
The dot product: 9.63136054603404e-08
Setting atom values ...
  1 settings made for x
  1 settings made for y
  1 settings made for z
Setting up cg style minimization ...
  Unit style    : metal
  Current step  : 697
Per MPI rank memory allocation (min/avg/max) = 5.441 | 5.816 | 6.074 Mbytes
Step PotEng KinEng TotEng v_fx v_fy v_fz 
     697   -1152449.4            0   -1152449.4 -0.006863969 -0.031570701 -0.026876646 
     831   -1152449.4            0   -1152449.4 1.1837052e-05 1.4556098e-07 -3.0748866e-05 
Loop time of 1.5882 on 104 procs for 134 steps with 288751 atoms

99.9% CPU use with 104 MPI tasks x 1 OpenMP threads

Minimization stats:
  Stopping criterion = energy tolerance
  Energy initial, next-to-last, final = 
     -1152449.43858287  -1152449.44020546  -1152449.44020546
  Force two-norm initial, final = 0.1871362 0.00011714261
  Force max component initial, final = 0.089030114 3.0748866e-05
  Final line search alpha, max atom move = 1.0000000 3.0748866e-05
  Iterations, force evaluations = 134 268

MPI task timing breakdown:
Section |  min time  |  avg time  |  max time  |%varavg| %total
---------------------------------------------------------------
Pair    | 0.40539    | 1.126      | 1.4779     |  28.8 | 70.89
Neigh   | 0          | 0          | 0          |   0.0 |  0.00
Comm    | 0.023183   | 0.25895    | 0.7564     |  41.4 | 16.30
Output  | 0          | 0          | 0          |   0.0 |  0.00
Modify  | 1.7137e-05 | 0.0022213  | 0.0047686  |   2.2 |  0.14
Other   |            | 0.2011     |            |       | 12.66

Nlocal:        2776.45 ave        3956 max           0 min
Histogram: 8 4 4 0 4 12 8 0 30 34
Nghost:        3879.03 ave        5425 max         232 min
Histogram: 8 0 8 0 16 0 8 8 16 40
Neighs:        79213.4 ave      115324 max           0 min
Histogram: 8 4 4 0 10 6 8 8 24 32

Total # of neighbors = 8238195
Ave neighs/atom = 28.530447
Neighbor list builds = 0
Dangerous builds = 0
The dot product: 1.23035898728657e-07
Setting atom values ...
  1 settings made for x
  1 settings made for y
  1 settings made for z
Setting up cg style minimization ...
  Unit style    : metal
  Current step  : 831
Per MPI rank memory allocation (min/avg/max) = 5.441 | 5.816 | 6.074 Mbytes
Step PotEng KinEng TotEng v_fx v_fy v_fz 
     831   -1152449.4            0   -1152449.4 -0.011223967  -0.03241646 -0.023815891 
     959   -1152449.4            0   -1152449.4 1.3706281e-05 2.6766511e-06 -3.8590426e-05 
Loop time of 1.51332 on 104 procs for 128 steps with 288751 atoms

99.9% CPU use with 104 MPI tasks x 1 OpenMP threads

Minimization stats:
  Stopping criterion = energy tolerance
  Energy initial, next-to-last, final = 
     -1152449.43257961  -1152449.43418108  -1152449.43418108
  Force two-norm initial, final = 0.18573893 0.00011390794
  Force max component initial, final = 0.084949687 3.8590426e-05
  Final line search alpha, max atom move = 1.0000000 3.8590426e-05
  Iterations, force evaluations = 128 256

MPI task timing breakdown:
Section |  min time  |  avg time  |  max time  |%varavg| %total
---------------------------------------------------------------
Pair    | 0.38509    | 1.0815     | 1.4132     |  28.2 | 71.47
Neigh   | 0          | 0          | 0          |   0.0 |  0.00
Comm    | 0.022823   | 0.24636    | 0.72405    |  40.7 | 16.28
Output  | 0          | 0          | 0          |   0.0 |  0.00
Modify  | 1.5212e-05 | 0.0021232  | 0.0045264  |   2.2 |  0.14
Other   |            | 0.1833     |            |       | 12.11

Nlocal:        2776.45 ave        3955 max           0 min
Histogram: 8 4 4 0 4 12 8 0 30 34
Nghost:        3879.03 ave        5427 max         232 min
Histogram: 8 0 8 0 16 0 8 8 16 40
Neighs:        79213.4 ave      115286 max           0 min
Histogram: 8 4 4 0 10 6 8 8 24 32

Total # of neighbors = 8238197
Ave neighs/atom = 28.530454
Neighbor list builds = 0
Dangerous builds = 0
The dot product: 1.32684864028127e-07
Setting atom values ...
  1 settings made for x
  1 settings made for y
  1 settings made for z
Setting up cg style minimization ...
  Unit style    : metal
  Current step  : 959
Per MPI rank memory allocation (min/avg/max) = 5.441 | 5.816 | 6.074 Mbytes
Step PotEng KinEng TotEng v_fx v_fy v_fz 
     959   -1152449.4            0   -1152449.4 -0.013762351 -0.030696021 -0.018498054 
    1000   -1152449.4            0   -1152449.4 -0.00010565187 -3.9260267e-05 0.00030522513 
    1072   -1152449.4            0   -1152449.4 -1.4066319e-05 3.7263719e-06 6.1026578e-05 
Loop time of 1.32481 on 104 procs for 113 steps with 288751 atoms

99.9% CPU use with 104 MPI tasks x 1 OpenMP threads

Minimization stats:
  Stopping criterion = energy tolerance
  Energy initial, next-to-last, final = 
     -1152449.42520761  -1152449.42677625  -1152449.42677625
  Force two-norm initial, final = 0.18368439 0.00019406221
  Force max component initial, final = 0.081486061 6.1026578e-05
  Final line search alpha, max atom move = 1.0000000 6.1026578e-05
  Iterations, force evaluations = 113 226

MPI task timing breakdown:
Section |  min time  |  avg time  |  max time  |%varavg| %total
---------------------------------------------------------------
Pair    | 0.33989    | 0.94947    | 1.2441     |  26.5 | 71.67
Neigh   | 0          | 0          | 0          |   0.0 |  0.00
Comm    | 0.021156   | 0.21709    | 0.64693    |  38.3 | 16.39
Output  | 0.00031833 | 0.00032566 | 0.00041927 |   0.0 |  0.02
Modify  | 1.3324e-05 | 0.0018681  | 0.003982   |   2.0 |  0.14
Other   |            | 0.1561     |            |       | 11.78

Nlocal:        2776.45 ave        3954 max           0 min
Histogram: 8 4 4 0 4 12 8 0 30 34
Nghost:        3879.03 ave        5428 max         232 min
Histogram: 8 0 8 0 16 0 8 8 16 40
Neighs:        79213.4 ave      115257 max           0 min
Histogram: 8 4 4 0 10 6 8 8 24 32

Total # of neighbors = 8238198
Ave neighs/atom = 28.530457
Neighbor list builds = 0
Dangerous builds = 0
The dot product: -1.80121307465489e-07
Setting atom values ...
  1 settings made for x
  1 settings made for y
  1 settings made for z
Setting up cg style minimization ...
  Unit style    : metal
  Current step  : 1072
Per MPI rank memory allocation (min/avg/max) = 5.441 | 5.816 | 6.074 Mbytes
Step PotEng KinEng TotEng v_fx v_fy v_fz 
    1072   -1152449.4            0   -1152449.4 -0.014472937 -0.027665703 -0.012801409 
    1220   -1152449.4            0   -1152449.4 2.1937121e-07 9.5746447e-07 1.6298753e-06 
Loop time of 1.77137 on 104 procs for 148 steps with 288751 atoms

99.9% CPU use with 104 MPI tasks x 1 OpenMP threads

Minimization stats:
  Stopping criterion = energy tolerance
  Energy initial, next-to-last, final = 
     -1152449.41641513  -1152449.41795254  -1152449.41795254
  Force two-norm initial, final = 0.18160083 5.3387239e-05
  Force max component initial, final = 0.07902757 7.4739987e-06
  Final line search alpha, max atom move = 1.0000000 7.4739987e-06
  Iterations, force evaluations = 148 296

MPI task timing breakdown:
Section |  min time  |  avg time  |  max time  |%varavg| %total
---------------------------------------------------------------
Pair    | 0.44577    | 1.2535     | 1.6393     |  30.3 | 70.77
Neigh   | 0          | 0          | 0          |   0.0 |  0.00
Comm    | 0.031112   | 0.28803    | 0.83785    |  43.6 | 16.26
Output  | 0          | 0          | 0          |   0.0 |  0.00
Modify  | 1.7461e-05 | 0.0024519  | 0.0052559  |   2.3 |  0.14
Other   |            | 0.2274     |            |       | 12.84

Nlocal:        2776.45 ave        3953 max           0 min
Histogram: 8 4 4 0 4 12 8 0 30 34
Nghost:        3879.03 ave        5428 max         232 min
Histogram: 8 0 8 0 16 0 8 8 16 40
Neighs:        79213.5 ave      115229 max           0 min
Histogram: 8 4 4 0 10 6 8 8 24 32

Total # of neighbors = 8238199
Ave neighs/atom = 28.530461
Neighbor list builds = 0
Dangerous builds = 0
The dot product: -4.40112758722611e-09
Setting atom values ...
  1 settings made for x
  1 settings made for y
  1 settings made for z
Setting up cg style minimization ...
  Unit style    : metal
  Current step  : 1220
Per MPI rank memory allocation (min/avg/max) = 5.441 | 5.816 | 6.074 Mbytes
Step PotEng KinEng TotEng v_fx v_fy v_fz 
    1220   -1152449.4            0   -1152449.4 -0.013532031 -0.023596816 -0.0077156238 
    1467   -1152449.4            0   -1152449.4 -5.8527155e-07 -3.6914362e-07 1.5802326e-06 
Loop time of 2.89705 on 104 procs for 247 steps with 288751 atoms

99.9% CPU use with 104 MPI tasks x 1 OpenMP threads

Minimization stats:
  Stopping criterion = energy tolerance
  Energy initial, next-to-last, final = 
     -1152449.40616879  -1152449.40768855  -1152449.40768855
  Force two-norm initial, final = 0.17972204 9.2966135e-06
  Force max component initial, final = 0.077770121 1.5802326e-06
  Final line search alpha, max atom move = 1.0000000 1.5802326e-06
  Iterations, force evaluations = 247 494

MPI task timing breakdown:
Section |  min time  |  avg time  |  max time  |%varavg| %total
---------------------------------------------------------------
Pair    | 0.74477    | 2.0747     | 2.7161     |  39.1 | 71.62
Neigh   | 0          | 0          | 0          |   0.0 |  0.00
Comm    | 0.049547   | 0.47404    | 1.4066     |  56.7 | 16.36
Output  | 0          | 0          | 0          |   0.0 |  0.00
Modify  | 2.9951e-05 | 0.004083   | 0.008743   |   3.0 |  0.14
Other   |            | 0.3442     |            |       | 11.88

Nlocal:        2776.45 ave        3953 max           0 min
Histogram: 8 4 4 0 4 12 8 0 30 34
Nghost:        3879.03 ave        5428 max         232 min
Histogram: 8 0 8 0 16 0 8 8 16 40
Neighs:        79213.5 ave      115229 max           0 min
Histogram: 8 4 4 0 10 6 8 8 24 32

Total # of neighbors = 8238202
Ave neighs/atom = 28.530471
Neighbor list builds = 0
Dangerous builds = 0
The dot product: -1.59802041360299e-09
Setting atom values ...
  1 settings made for x
  1 settings made for y
  1 settings made for z
Setting up cg style minimization ...
  Unit style    : metal
  Current step  : 1467
Per MPI rank memory allocation (min/avg/max) = 5.441 | 5.816 | 6.074 Mbytes
Step PotEng KinEng TotEng v_fx v_fy v_fz 
    1467   -1152449.4            0   -1152449.4 -0.010690231 -0.017560583 -0.002931816 
    1572   -1152449.4            0   -1152449.4 -2.7071612e-05 -8.1685196e-06 0.0001029558 
Loop time of 1.24163 on 104 procs for 105 steps with 288751 atoms

99.9% CPU use with 104 MPI tasks x 1 OpenMP threads

Minimization stats:
  Stopping criterion = energy tolerance
  Energy initial, next-to-last, final = 
     -1152449.39446923  -1152449.39600014  -1152449.39600014
  Force two-norm initial, final = 0.1780446 0.00027942419
  Force max component initial, final = 0.077643751 0.0001029558
  Final line search alpha, max atom move = 1.0000000 0.0001029558
  Iterations, force evaluations = 105 210

MPI task timing breakdown:
Section |  min time  |  avg time  |  max time  |%varavg| %total
---------------------------------------------------------------
Pair    | 0.31528    | 0.88918    | 1.163      |  25.6 | 71.61
Neigh   | 0          | 0          | 0          |   0.0 |  0.00
Comm    | 0.019697   | 0.20523    | 0.60174    |  36.8 | 16.53
Output  | 0          | 0          | 0          |   0.0 |  0.00
Modify  | 1.2599e-05 | 0.0017449  | 0.003714   |   2.0 |  0.14
Other   |            | 0.1455     |            |       | 11.72

Nlocal:        2776.45 ave        3951 max           0 min
Histogram: 8 4 4 0 4 12 8 0 30 34
Nghost:        3879.03 ave        5428 max         232 min
Histogram: 8 0 8 0 16 0 8 8 16 40
Neighs:        79213.5 ave      115170 max           0 min
Histogram: 8 4 4 0 10 6 8 8 24 32

Total # of neighbors = 8238203
Ave neighs/atom = 28.530474
Neighbor list builds = 0
Dangerous builds = 0
The dot product: -2.20316612180969e-08
Setting atom values ...
  1 settings made for x
  1 settings made for y
  1 settings made for z
Setting up cg style minimization ...
  Unit style    : metal
  Current step  : 1572
Per MPI rank memory allocation (min/avg/max) = 5.441 | 5.816 | 6.074 Mbytes
Step PotEng KinEng TotEng v_fx v_fy v_fz 
    1572   -1152449.4            0   -1152449.4 -0.0061449682 -0.0091296491 0.0021273871 
    1731   -1152449.4            0   -1152449.4 -1.0600765e-05 -9.5830716e-07 4.7191666e-05 
Loop time of 1.88592 on 104 procs for 159 steps with 288751 atoms

99.9% CPU use with 104 MPI tasks x 1 OpenMP threads

Minimization stats:
  Stopping criterion = energy tolerance
  Energy initial, next-to-last, final = 
     -1152449.38136376  -1152449.38296045  -1152449.38296045
  Force two-norm initial, final = 0.176912 0.0002115625
  Force max component initial, final = 0.078866396 5.6396490e-05
  Final line search alpha, max atom move = 1.0000000 5.6396490e-05
  Iterations, force evaluations = 159 318

MPI task timing breakdown:
Section |  min time  |  avg time  |  max time  |%varavg| %total
---------------------------------------------------------------
Pair    | 0.47675    | 1.3427     | 1.7622     |  31.5 | 71.20
Neigh   | 0          | 0          | 0          |   0.0 |  0.00
Comm    | 0.027569   | 0.31083    | 0.91241    |  45.3 | 16.48
Output  | 0          | 0          | 0          |   0.0 |  0.00
Modify  | 1.8509e-05 | 0.0026319  | 0.0056606  |   2.4 |  0.14
Other   |            | 0.2297     |            |       | 12.18

Nlocal:        2776.45 ave        3949 max           0 min
Histogram: 8 4 4 0 4 12 8 0 28 36
Nghost:        3879.01 ave        5428 max         232 min
Histogram: 8 0 8 0 16 0 8 8 16 40
Neighs:        79213.5 ave      115060 max           0 min
Histogram: 8 4 4 0 10 6 8 8 24 32

Total # of neighbors = 8238203
Ave neighs/atom = 28.530474
Neighbor list builds = 0
Dangerous builds = 0
The dot product: 7.68062386883348e-08
Setting atom values ...
  1 settings made for x
  1 settings made for y
  1 settings made for z
Setting up cg style minimization ...
  Unit style    : metal
  Current step  : 1731
Per MPI rank memory allocation (min/avg/max) = 5.441 | 5.816 | 6.074 Mbytes
Step PotEng KinEng TotEng v_fx v_fy v_fz 
    1731   -1152449.4            0   -1152449.4 -0.00032737522 0.0030735239 0.0095008173 
    1872   -1152449.4            0   -1152449.4 -8.9120386e-06 1.6770444e-06 4.4379762e-05 
Loop time of 1.65467 on 104 procs for 141 steps with 288751 atoms

99.9% CPU use with 104 MPI tasks x 1 OpenMP threads

Minimization stats:
  Stopping criterion = energy tolerance
  Energy initial, next-to-last, final = 
     -1152449.36698294  -1152449.36886451  -1152449.36886451
  Force two-norm initial, final = 0.17678051 0.00023235743
  Force max component initial, final = 0.081745838 4.4379762e-05
  Final line search alpha, max atom move = 1.0000000 4.4379762e-05
  Iterations, force evaluations = 141 282

MPI task timing breakdown:
Section |  min time  |  avg time  |  max time  |%varavg| %total
---------------------------------------------------------------
Pair    | 0.42447    | 1.1896     | 1.5615     |  29.6 | 71.89
Neigh   | 0          | 0          | 0          |   0.0 |  0.00
Comm    | 0.025598   | 0.27482    | 0.80469    |  42.7 | 16.61
Output  | 0          | 0          | 0          |   0.0 |  0.00
Modify  | 1.6757e-05 | 0.0023355  | 0.0050025  |   2.3 |  0.14
Other   |            | 0.1879     |            |       | 11.36

Nlocal:        2776.45 ave        3949 max           0 min
Histogram: 8 4 4 0 4 12 8 0 28 36
Nghost:        3878.99 ave        5427 max         232 min
Histogram: 8 0 8 0 16 0 8 8 16 40
Neighs:        79213.5 ave      115062 max           0 min
Histogram: 8 4 4 0 10 6 8 8 24 32

Total # of neighbors = 8238205
Ave neighs/atom = 28.530481
Neighbor list builds = 0
Dangerous builds = 0
The dot product: 2.76842160676159e-07
Setting atom values ...
  1 settings made for x
  1 settings made for y
  1 settings made for z
Setting up cg style minimization ...
  Unit style    : metal
  Current step  : 1872
Per MPI rank memory allocation (min/avg/max) = 5.441 | 5.816 | 6.074 Mbytes
Step PotEng KinEng TotEng v_fx v_fy v_fz 
    1872   -1152449.4            0   -1152449.4 0.0056471303  0.022563309  0.023547608 
    2000   -1152449.4            0   -1152449.4 -1.0656227e-05 -4.0613747e-06 3.3678673e-05 
    2094   -1152449.4            0   -1152449.4 1.1322042e-06 -9.6266927e-07 -6.4058082e-06 
Loop time of 2.59972 on 104 procs for 222 steps with 288751 atoms

99.9% CPU use with 104 MPI tasks x 1 OpenMP threads

Minimization stats:
  Stopping criterion = energy tolerance
  Energy initial, next-to-last, final = 
     -1152449.35179342  -1152449.35391823  -1152449.35391823
  Force two-norm initial, final = 0.17936961 4.8898543e-05
  Force max component initial, final = 0.086956713 6.4058082e-06
  Final line search alpha, max atom move = 1.0000000 6.4058082e-06
  Iterations, force evaluations = 222 444

MPI task timing breakdown:
Section |  min time  |  avg time  |  max time  |%varavg| %total
---------------------------------------------------------------
Pair    | 0.66881    | 1.8618     | 2.4449     |  37.0 | 71.62
Neigh   | 0          | 0          | 0          |   0.0 |  0.00
Comm    | 0.040444   | 0.42607    | 1.2492     |  53.3 | 16.39
Output  | 0.00031101 | 0.00032309 | 0.00048678 |   0.0 |  0.01
Modify  | 2.5445e-05 | 0.0036714  | 0.0078326  |   2.8 |  0.14
Other   |            | 0.3078     |            |       | 11.84

Nlocal:        2776.45 ave        3949 max           0 min
Histogram: 8 4 4 0 4 12 8 0 28 36
Nghost:        3879.01 ave        5427 max         232 min
Histogram: 8 0 8 0 16 0 8 8 16 40
Neighs:        79213.5 ave      115060 max           0 min
Histogram: 8 4 4 0 10 6 8 8 24 32

Total # of neighbors = 8238204
Ave neighs/atom = 28.530478
Neighbor list builds = 0
Dangerous builds = 0
The dot product: -7.13240305916742e-08
Setting atom values ...
  1 settings made for x
  1 settings made for y
  1 settings made for z
Setting up cg style minimization ...
  Unit style    : metal
  Current step  : 2094
Per MPI rank memory allocation (min/avg/max) = 5.441 | 5.816 | 6.074 Mbytes
Step PotEng KinEng TotEng v_fx v_fy v_fz 
    2094   -1152449.3            0   -1152449.3 0.0072469265  0.037660782  0.031175787 
    2292   -1152449.3            0   -1152449.3 7.4768768e-07 -1.8312726e-06 -5.2234924e-06 
Loop time of 2.31551 on 104 procs for 198 steps with 288751 atoms

99.9% CPU use with 104 MPI tasks x 1 OpenMP threads

Minimization stats:
  Stopping criterion = energy tolerance
  Energy initial, next-to-last, final = 
     -1152449.33585778  -1152449.33815771  -1152449.33815771
  Force two-norm initial, final = 0.18286021 0.00013001592
  Force max component initial, final = 0.093547296 3.0708337e-05
  Final line search alpha, max atom move = 1.0000000 3.0708337e-05
  Iterations, force evaluations = 198 396

MPI task timing breakdown:
Section |  min time  |  avg time  |  max time  |%varavg| %total
---------------------------------------------------------------
Pair    | 0.59364    | 1.6654     | 2.1737     |  35.0 | 71.92
Neigh   | 0          | 0          | 0          |   0.0 |  0.00
Comm    | 0.035133   | 0.37766    | 1.1174     |  51.0 | 16.31
Output  | 0          | 0          | 0          |   0.0 |  0.00
Modify  | 2.4273e-05 | 0.0032683  | 0.0070068  |   2.7 |  0.14
Other   |            | 0.2692     |            |       | 11.63

Nlocal:        2776.45 ave        3949 max           0 min
Histogram: 8 4 4 0 4 12 8 0 28 36
Nghost:        3879.11 ave        5426 max         232 min
Histogram: 8 0 8 0 16 0 8 8 16 40
Neighs:        79213.5 ave      115061 max           0 min
Histogram: 8 4 4 0 10 6 8 8 24 32

Total # of neighbors = 8238205
Ave neighs/atom = 28.530481
Neighbor list builds = 0
Dangerous builds = 0
The dot product: -7.73876712417152e-08
Setting atom values ...
  1 settings made for x
  1 settings made for y
  1 settings made for z
Setting up cg style minimization ...
  Unit style    : metal
  Current step  : 2292
Per MPI rank memory allocation (min/avg/max) = 5.441 | 5.816 | 6.074 Mbytes
Step PotEng KinEng TotEng v_fx v_fy v_fz 
    2292   -1152449.3            0   -1152449.3 0.0057924338   0.04211183  0.028554909 
    2477   -1152449.3            0   -1152449.3 2.2487056e-05 4.5200787e-07 -6.6292873e-05 
Loop time of 2.16091 on 104 procs for 185 steps with 288751 atoms

99.9% CPU use with 104 MPI tasks x 1 OpenMP threads

Minimization stats:
  Stopping criterion = energy tolerance
  Energy initial, next-to-last, final = 
      -1152449.3190271  -1152449.32121385  -1152449.32121385
  Force two-norm initial, final = 0.18308384 0.00018412743
  Force max component initial, final = 0.099878373 6.6292873e-05
  Final line search alpha, max atom move = 1.0000000 6.6292873e-05
  Iterations, force evaluations = 185 370

MPI task timing breakdown:
Section |  min time  |  avg time  |  max time  |%varavg| %total
---------------------------------------------------------------
Pair    | 0.55333    | 1.5525     | 2.0336     |  33.9 | 71.84
Neigh   | 0          | 0          | 0          |   0.0 |  0.00
Comm    | 0.0316     | 0.35441    | 1.0525     |  49.2 | 16.40
Output  | 0          | 0          | 0          |   0.0 |  0.00
Modify  | 2.136e-05  | 0.0030567  | 0.0065636  |   2.6 |  0.14
Other   |            | 0.2509     |            |       | 11.61

Nlocal:        2776.45 ave        3951 max           0 min
Histogram: 8 4 4 0 4 12 8 0 30 34
Nghost:        3879.11 ave        5425 max         232 min
Histogram: 8 0 8 0 16 0 8 8 16 40
Neighs:        79213.5 ave      115141 max           0 min
Histogram: 8 4 4 0 10 6 8 8 24 32

Total # of neighbors = 8238204
Ave neighs/atom = 28.530478
Neighbor list builds = 0
Dangerous builds = 0
The dot product: -5.31340565559363e-07
Setting atom values ...
  1 settings made for x
  1 settings made for y
  1 settings made for z
Setting up cg style minimization ...
  Unit style    : metal
  Current step  : 2477
Per MPI rank memory allocation (min/avg/max) = 5.441 | 5.816 | 6.074 Mbytes
Step PotEng KinEng TotEng v_fx v_fy v_fz 
    2477   -1152449.3            0   -1152449.3 0.0038918372  0.038994759  0.021792924 
    2678   -1152449.3            0   -1152449.3 -4.9274207e-06 3.0510262e-06 1.586138e-05 
Loop time of 2.39315 on 104 procs for 201 steps with 288751 atoms

99.9% CPU use with 104 MPI tasks x 1 OpenMP threads

Minimization stats:
  Stopping criterion = energy tolerance
  Energy initial, next-to-last, final = 
     -1152449.30089526  -1152449.30295535  -1152449.30295535
  Force two-norm initial, final = 0.18107645 0.00011143441
  Force max component initial, final = 0.10523081 1.5861380e-05
  Final line search alpha, max atom move = 1.0000000 1.5861380e-05
  Iterations, force evaluations = 201 402

MPI task timing breakdown:
Section |  min time  |  avg time  |  max time  |%varavg| %total
---------------------------------------------------------------
Pair    | 0.60523    | 1.6936     | 2.2123     |  35.3 | 70.77
Neigh   | 0          | 0          | 0          |   0.0 |  0.00
Comm    | 0.03656    | 0.38917    | 1.1549     |  51.0 | 16.26
Output  | 0          | 0          | 0          |   0.0 |  0.00
Modify  | 2.5957e-05 | 0.0033249  | 0.0071006  |   2.7 |  0.14
Other   |            | 0.307      |            |       | 12.83

Nlocal:        2776.45 ave        3952 max           0 min
Histogram: 8 4 4 0 4 12 8 0 30 34
Nghost:        3879.13 ave        5425 max         232 min
Histogram: 8 0 8 0 16 0 8 8 16 40
Neighs:        79213.5 ave      115214 max           0 min
Histogram: 8 4 4 0 10 6 8 8 24 32

Total # of neighbors = 8238209
Ave neighs/atom = 28.530495
Neighbor list builds = 0
Dangerous builds = 0
The dot product: 1.5720827506424e-07
Setting atom values ...
  1 settings made for x
  1 settings made for y
  1 settings made for z
Setting up cg style minimization ...
  Unit style    : metal
  Current step  : 2678
Per MPI rank memory allocation (min/avg/max) = 5.441 | 5.816 | 6.074 Mbytes
Step PotEng KinEng TotEng v_fx v_fy v_fz 
    2678   -1152449.3            0   -1152449.3 0.0019525654  0.033447771  0.016905791 
    2898   -1152449.3            0   -1152449.3 -7.5325874e-06 3.3565093e-07 1.9151626e-05 
Loop time of 2.6025 on 104 procs for 220 steps with 288751 atoms

99.9% CPU use with 104 MPI tasks x 1 OpenMP threads

Minimization stats:
  Stopping criterion = energy tolerance
  Energy initial, next-to-last, final = 
     -1152449.28143067   -1152449.2834303   -1152449.2834303
  Force two-norm initial, final = 0.17883849 5.7864907e-05
  Force max component initial, final = 0.10942794 1.9151626e-05
  Final line search alpha, max atom move = 1.0000000 1.9151626e-05
  Iterations, force evaluations = 220 440

MPI task timing breakdown:
Section |  min time  |  avg time  |  max time  |%varavg| %total
---------------------------------------------------------------
Pair    | 0.6595     | 1.8496     | 2.4254     |  37.0 | 71.07
Neigh   | 0          | 0          | 0          |   0.0 |  0.00
Comm    | 0.03777    | 0.42388    | 1.2499     |  53.0 | 16.29
Output  | 0          | 0          | 0          |   0.0 |  0.00
Modify  | 2.6147e-05 | 0.0036382  | 0.0077751  |   2.8 |  0.14
Other   |            | 0.3253     |            |       | 12.50

Nlocal:        2776.45 ave        3954 max           0 min
Histogram: 8 4 4 0 4 12 8 0 30 34
Nghost:        3879.13 ave        5425 max         232 min
Histogram: 8 0 8 0 16 0 8 8 16 40
Neighs:        79213.6 ave      115250 max           0 min
Histogram: 8 4 4 0 10 6 8 8 24 32

Total # of neighbors = 8238212
Ave neighs/atom = 28.530506
Neighbor list builds = 0
Dangerous builds = 0
The dot product: 1.53137537411182e-07
Setting atom values ...
  1 settings made for x
  1 settings made for y
  1 settings made for z
Setting up cg style minimization ...
  Unit style    : metal
  Current step  : 2898
Per MPI rank memory allocation (min/avg/max) = 5.441 | 5.816 | 6.074 Mbytes
Step PotEng KinEng TotEng v_fx v_fy v_fz 
    2898   -1152449.3            0   -1152449.3 -0.00024416777   0.02778545  0.015144584 
    3000   -1152449.3            0   -1152449.3 3.4801777e-05 -7.9227259e-06 -8.5958239e-05 
    3079   -1152449.3            0   -1152449.3 -1.5386382e-05 -1.3229996e-06 3.5472794e-05 
Loop time of 2.15223 on 104 procs for 181 steps with 288751 atoms

99.9% CPU use with 104 MPI tasks x 1 OpenMP threads

Minimization stats:
  Stopping criterion = energy tolerance
  Energy initial, next-to-last, final = 
      -1152449.2607703  -1152449.26268739  -1152449.26268739
  Force two-norm initial, final = 0.17683519 0.00019361145
  Force max component initial, final = 0.11282388 3.5472794e-05
  Final line search alpha, max atom move = 1.0000000 3.5472794e-05
  Iterations, force evaluations = 181 362

MPI task timing breakdown:
Section |  min time  |  avg time  |  max time  |%varavg| %total
---------------------------------------------------------------
Pair    | 0.55736    | 1.5364     | 2.0075     |  33.3 | 71.39
Neigh   | 0          | 0          | 0          |   0.0 |  0.00
Comm    | 0.040338   | 0.35391    | 1.0447     |  48.4 | 16.44
Output  | 0.0002576  | 0.00027224 | 0.00042685 |   0.0 |  0.01
Modify  | 2.1284e-05 | 0.0030012  | 0.006405   |   2.6 |  0.14
Other   |            | 0.2586     |            |       | 12.02

Nlocal:        2776.45 ave        3954 max           0 min
Histogram: 8 4 4 0 4 12 8 0 30 34
Nghost:        3879.12 ave        5425 max         232 min
Histogram: 8 0 8 0 16 0 8 8 16 40
Neighs:        79213.6 ave      115255 max           0 min
Histogram: 8 4 4 0 10 6 8 8 24 32

Total # of neighbors = 8238217
Ave neighs/atom = 28.530523
Neighbor list builds = 0
Dangerous builds = 0
The dot product: 2.73196219888946e-07
Setting atom values ...
  1 settings made for x
  1 settings made for y
  1 settings made for z
Setting up cg style minimization ...
  Unit style    : metal
  Current step  : 3079
Per MPI rank memory allocation (min/avg/max) = 5.441 | 5.816 | 6.074 Mbytes
Step PotEng KinEng TotEng v_fx v_fy v_fz 
    3079   -1152449.2            0   -1152449.2 -0.0019553768  0.022679341  0.014126867 
    3271   -1152449.2            0   -1152449.2 -1.4925382e-06 5.5845641e-08 3.3253672e-06 
Loop time of 2.26098 on 104 procs for 192 steps with 288751 atoms

99.9% CPU use with 104 MPI tasks x 1 OpenMP threads

Minimization stats:
  Stopping criterion = energy tolerance
  Energy initial, next-to-last, final = 
     -1152449.23886272  -1152449.24074229  -1152449.24074229
  Force two-norm initial, final = 0.17520351 0.00011983491
  Force max component initial, final = 0.11582598 1.4299158e-05
  Final line search alpha, max atom move = 1.0000000 1.4299158e-05
  Iterations, force evaluations = 192 384

MPI task timing breakdown:
Section |  min time  |  avg time  |  max time  |%varavg| %total
---------------------------------------------------------------
Pair    | 0.57686    | 1.6158     | 2.1319     |  34.7 | 71.46
Neigh   | 0          | 0          | 0          |   0.0 |  0.00
Comm    | 0.036799   | 0.37196    | 1.091      |  49.7 | 16.45
Output  | 0          | 0          | 0          |   0.0 |  0.00
Modify  | 2.247e-05  | 0.0031746  | 0.0067915  |   2.7 |  0.14
Other   |            | 0.2701     |            |       | 11.95

Nlocal:        2776.45 ave        3955 max           0 min
Histogram: 8 4 4 0 4 12 8 0 30 34
Nghost:        3879.12 ave        5424 max         232 min
Histogram: 8 0 8 0 16 0 8 8 16 40
Neighs:        79213.6 ave      115289 max           0 min
Histogram: 8 4 4 0 10 6 8 8 24 32

Total # of neighbors = 8238212
Ave neighs/atom = 28.530506
Neighbor list builds = 0
Dangerous builds = 0
The dot product: 3.00037904329478e-08
Setting atom values ...
  1 settings made for x
  1 settings made for y
  1 settings made for z
Setting up cg style minimization ...
  Unit style    : metal
  Current step  : 3271
Per MPI rank memory allocation (min/avg/max) = 5.441 | 5.816 | 6.074 Mbytes
Step PotEng KinEng TotEng v_fx v_fy v_fz 
    3271   -1152449.2            0   -1152449.2 -0.0040782997  0.019852718  0.015656043 
    3459   -1152449.2            0   -1152449.2 5.9301569e-06 2.6731821e-06 -1.138216e-05 
Loop time of 2.2132 on 104 procs for 188 steps with 288751 atoms

99.9% CPU use with 104 MPI tasks x 1 OpenMP threads

Minimization stats:
  Stopping criterion = energy tolerance
  Energy initial, next-to-last, final = 
     -1152449.21580236  -1152449.21782228  -1152449.21782228
  Force two-norm initial, final = 0.17423903 0.00013870979
  Force max component initial, final = 0.11864401 1.7370579e-05
  Final line search alpha, max atom move = 1.0000000 1.7370579e-05
  Iterations, force evaluations = 188 376

MPI task timing breakdown:
Section |  min time  |  avg time  |  max time  |%varavg| %total
---------------------------------------------------------------
Pair    | 0.56502    | 1.5881     | 2.0813     |  34.2 | 71.76
Neigh   | 0          | 0          | 0          |   0.0 |  0.00
Comm    | 0.035951   | 0.36809    | 1.0728     |  49.2 | 16.63
Output  | 0          | 0          | 0          |   0.0 |  0.00
Modify  | 2.2342e-05 | 0.0031198  | 0.0067012  |   2.6 |  0.14
Other   |            | 0.2539     |            |       | 11.47

Nlocal:        2776.45 ave        3956 max           0 min
Histogram: 8 4 4 0 4 12 8 0 30 34
Nghost:        3879.12 ave        5424 max         232 min
Histogram: 8 0 8 0 16 0 8 8 16 40
Neighs:        79213.6 ave      115324 max           0 min
Histogram: 8 4 4 0 10 6 8 8 24 32

Total # of neighbors = 8238211
Ave neighs/atom = 28.530502
Neighbor list builds = 0
Dangerous builds = 0
The dot product: -1.17492525601866e-07
Setting atom values ...
  1 settings made for x
  1 settings made for y
  1 settings made for z
Setting up cg style minimization ...
  Unit style    : metal
  Current step  : 3459
Per MPI rank memory allocation (min/avg/max) = 5.441 | 5.816 | 6.074 Mbytes
Step PotEng KinEng TotEng v_fx v_fy v_fz 
    3459   -1152449.2            0   -1152449.2 -0.0085881217  0.021684626  0.023030751 
    3643   -1152449.2            0   -1152449.2 -9.2982059e-08 -1.437941e-06 -2.4446897e-07 
Loop time of 2.16365 on 104 procs for 184 steps with 288751 atoms

99.9% CPU use with 104 MPI tasks x 1 OpenMP threads

Minimization stats:
  Stopping criterion = energy tolerance
  Energy initial, next-to-last, final = 
       -1152449.192066  -1152449.19428572  -1152449.19428572
  Force two-norm initial, final = 0.17436369 0.00014051394
  Force max component initial, final = 0.12119295 1.3155291e-05
  Final line search alpha, max atom move = 1.0000000 1.3155291e-05
  Iterations, force evaluations = 184 368

MPI task timing breakdown:
Section |  min time  |  avg time  |  max time  |%varavg| %total
---------------------------------------------------------------
Pair    | 0.55316    | 1.5507     | 2.0389     |  34.0 | 71.67
Neigh   | 0          | 0          | 0          |   0.0 |  0.00
Comm    | 0.033251   | 0.35645    | 1.0582     |  49.2 | 16.47
Output  | 0          | 0          | 0          |   0.0 |  0.00
Modify  | 2.2067e-05 | 0.0030562  | 0.0065946  |   2.6 |  0.14
Other   |            | 0.2535     |            |       | 11.72

Nlocal:        2776.45 ave        3956 max           0 min
Histogram: 8 4 4 0 4 12 8 0 30 34
Nghost:        3879.08 ave        5424 max         232 min
Histogram: 8 0 8 0 16 0 8 8 16 40
Neighs:        79213.6 ave      115322 max           0 min
Histogram: 8 4 4 0 10 6 8 8 24 32

Total # of neighbors = 8238212
Ave neighs/atom = 28.530506
Neighbor list builds = 0
Dangerous builds = 0
The dot product: -1.48811144731332e-08
Setting atom values ...
  1 settings made for x
  1 settings made for y
  1 settings made for z
Setting up cg style minimization ...
  Unit style    : metal
  Current step  : 3643
Per MPI rank memory allocation (min/avg/max) = 5.441 | 5.816 | 6.074 Mbytes
Step PotEng KinEng TotEng v_fx v_fy v_fz 
    3643   -1152449.2            0   -1152449.2 -0.013454644  0.024928703  0.029715405 
    3835   -1152449.2            0   -1152449.2 -7.6160367e-06 -4.156161e-06 1.2594664e-05 
Loop time of 2.2523 on 104 procs for 192 steps with 288751 atoms

99.9% CPU use with 104 MPI tasks x 1 OpenMP threads

Minimization stats:
  Stopping criterion = energy tolerance
  Energy initial, next-to-last, final = 
     -1152449.16788847  -1152449.17007385  -1152449.17007385
  Force two-norm initial, final = 0.17516979 0.00011845331
  Force max component initial, final = 0.12387588 2.6757499e-05
  Final line search alpha, max atom move = 1.0000000 2.6757499e-05
  Iterations, force evaluations = 192 384

MPI task timing breakdown:
Section |  min time  |  avg time  |  max time  |%varavg| %total
---------------------------------------------------------------
Pair    | 0.57714    | 1.6135     | 2.1114     |  34.4 | 71.64
Neigh   | 0          | 0          | 0          |   0.0 |  0.00
Comm    | 0.034468   | 0.36623    | 1.0786     |  50.2 | 16.26
Output  | 0          | 0          | 0          |   0.0 |  0.00
Modify  | 2.2323e-05 | 0.0031751  | 0.0068028  |   2.7 |  0.14
Other   |            | 0.2694     |            |       | 11.96

Nlocal:        2776.45 ave        3956 max           0 min
Histogram: 8 4 4 0 4 12 8 0 30 34
Nghost:        3879.03 ave        5424 max         232 min
Histogram: 8 0 8 0 16 0 8 8 16 40
Neighs:        79213.6 ave      115323 max           0 min
Histogram: 8 4 4 0 10 6 8 8 24 32

Total # of neighbors = 8238215
Ave neighs/atom = 28.530516
Neighbor list builds = 0
Dangerous builds = 0
The dot product: 1.70876130045343e-07
Setting atom values ...
  1 settings made for x
  1 settings made for y
  1 settings made for z
Setting up cg style minimization ...
  Unit style    : metal
  Current step  : 3835
Per MPI rank memory allocation (min/avg/max) = 5.441 | 5.816 | 6.074 Mbytes
Step PotEng KinEng TotEng v_fx v_fy v_fz 
    3835   -1152449.1            0   -1152449.1 -0.014513762  0.023745342  0.028176959 
    4000   -1152449.1            0   -1152449.1 1.4613193e-05 3.5093729e-07 -2.4009737e-05 
    4019   -1152449.1            0   -1152449.1 -1.1801316e-05 -4.0483718e-06 1.8713067e-05 
Loop time of 2.15219 on 104 procs for 184 steps with 288751 atoms

99.9% CPU use with 104 MPI tasks x 1 OpenMP threads

Minimization stats:
  Stopping criterion = energy tolerance
  Energy initial, next-to-last, final = 
     -1152449.14282109  -1152449.14487812  -1152449.14487812
  Force two-norm initial, final = 0.17467202 0.00014284647
  Force max component initial, final = 0.12692997 2.1384639e-05
  Final line search alpha, max atom move = 1.0000000 2.1384639e-05
  Iterations, force evaluations = 184 368

MPI task timing breakdown:
Section |  min time  |  avg time  |  max time  |%varavg| %total
---------------------------------------------------------------
Pair    | 0.55317    | 1.5436     | 2.0252     |  33.8 | 71.72
Neigh   | 0          | 0          | 0          |   0.0 |  0.00
Comm    | 0.030942   | 0.35185    | 1.047      |  49.0 | 16.35
Output  | 0.0002453  | 0.00025195 | 0.0004136  |   0.0 |  0.01
Modify  | 2.1642e-05 | 0.0030444  | 0.006524   |   2.6 |  0.14
Other   |            | 0.2535     |            |       | 11.78

Nlocal:        2776.45 ave        3957 max           0 min
Histogram: 8 4 4 0 4 12 8 2 28 34
Nghost:        3879.00 ave        5424 max         232 min
Histogram: 8 0 8 0 16 0 8 8 16 40
Neighs:        79213.6 ave      115357 max           0 min
Histogram: 8 4 4 0 10 6 8 8 24 32

Total # of neighbors = 8238215
Ave neighs/atom = 28.530516
Neighbor list builds = 0
Dangerous builds = 0
The dot product: 2.56232535262782e-07
Setting atom values ...
  1 settings made for x
  1 settings made for y
  1 settings made for z
Setting up cg style minimization ...
  Unit style    : metal
  Current step  : 4019
Per MPI rank memory allocation (min/avg/max) = 5.441 | 5.816 | 6.074 Mbytes
Step PotEng KinEng TotEng v_fx v_fy v_fz 
    4019   -1152449.1            0   -1152449.1 -0.013540518  0.020289331  0.023751151 
    4207   -1152449.1            0   -1152449.1 1.2620211e-05 1.8648907e-06 -1.9201122e-05 
Loop time of 2.21788 on 104 procs for 188 steps with 288751 atoms

99.9% CPU use with 104 MPI tasks x 1 OpenMP threads

Minimization stats:
  Stopping criterion = energy tolerance
  Energy initial, next-to-last, final = 
     -1152449.11664001  -1152449.11850653  -1152449.11850653
  Force two-norm initial, final = 0.1738268 0.0001137819
  Force max component initial, final = 0.1299073 1.9201122e-05
  Final line search alpha, max atom move = 1.0000000 1.9201122e-05
  Iterations, force evaluations = 188 376

MPI task timing breakdown:
Section |  min time  |  avg time  |  max time  |%varavg| %total
---------------------------------------------------------------
Pair    | 0.56429    | 1.5889     | 2.0883     |  34.3 | 71.64
Neigh   | 0          | 0          | 0          |   0.0 |  0.00
Comm    | 0.033297   | 0.36187    | 1.0735     |  49.6 | 16.32
Output  | 0          | 0          | 0          |   0.0 |  0.00
Modify  | 2.207e-05  | 0.0031147  | 0.0066517  |   2.6 |  0.14
Other   |            | 0.264      |            |       | 11.90

Nlocal:        2776.45 ave        3957 max           0 min
Histogram: 8 4 4 0 4 12 8 2 28 34
Nghost:        3879.00 ave        5424 max         232 min
Histogram: 8 0 8 0 16 0 8 8 16 40
Neighs:        79213.6 ave      115355 max           0 min
Histogram: 8 4 4 0 10 6 8 8 24 32

Total # of neighbors = 8238213
Ave neighs/atom = 28.530509
Neighbor list builds = 0
Dangerous builds = 0
The dot product: -2.42684376675563e-07
Setting atom values ...
  1 settings made for x
  1 settings made for y
  1 settings made for z
Setting up cg style minimization ...
  Unit style    : metal
  Current step  : 4207
Per MPI rank memory allocation (min/avg/max) = 5.441 | 5.816 | 6.074 Mbytes
Step PotEng KinEng TotEng v_fx v_fy v_fz 
    4207   -1152449.1            0   -1152449.1 -0.010924499  0.015850617  0.017801055 
    4367   -1152449.1            0   -1152449.1 5.0357028e-05 9.540554e-06 -7.2605257e-05 
Loop time of 1.87816 on 104 procs for 160 steps with 288751 atoms

99.9% CPU use with 104 MPI tasks x 1 OpenMP threads

Minimization stats:
  Stopping criterion = energy tolerance
  Energy initial, next-to-last, final = 
     -1152449.08911827  -1152449.09085349  -1152449.09085349
  Force two-norm initial, final = 0.17327655 0.00024625442
  Force max component initial, final = 0.13281244 7.2605257e-05
  Final line search alpha, max atom move = 1.0000000 7.2605257e-05
  Iterations, force evaluations = 160 320

MPI task timing breakdown:
Section |  min time  |  avg time  |  max time  |%varavg| %total
---------------------------------------------------------------
Pair    | 0.48333    | 1.3432     | 1.7632     |  31.4 | 71.52
Neigh   | 0          | 0          | 0          |   0.0 |  0.00
Comm    | 0.027441   | 0.30722    | 0.91001    |  45.5 | 16.36
Output  | 0          | 0          | 0          |   0.0 |  0.00
Modify  | 2.0139e-05 | 0.0026517  | 0.0056781  |   2.4 |  0.14
Other   |            | 0.2251     |            |       | 11.98

Nlocal:        2776.45 ave        3958 max           0 min
Histogram: 8 4 4 0 4 12 8 2 28 34
Nghost:        3879.00 ave        5424 max         232 min
Histogram: 8 0 8 0 16 0 8 8 16 40
Neighs:        79213.6 ave      115391 max           0 min
Histogram: 8 4 4 0 10 6 8 8 24 32

Total # of neighbors = 8238213
Ave neighs/atom = 28.530509
Neighbor list builds = 0
Dangerous builds = 0
The dot product: -7.73847084918161e-07
Setting atom values ...
  1 settings made for x
  1 settings made for y
  1 settings made for z
Setting up cg style minimization ...
  Unit style    : metal
  Current step  : 4367
Per MPI rank memory allocation (min/avg/max) = 5.441 | 5.816 | 6.074 Mbytes
Step PotEng KinEng TotEng v_fx v_fy v_fz 
    4367   -1152449.1            0   -1152449.1 -0.0080251511  0.011379989  0.012366808 
    4571   -1152449.1            0   -1152449.1 1.6096407e-05 3.5938053e-06 -2.2258696e-05 
Loop time of 2.39841 on 104 procs for 204 steps with 288751 atoms

99.9% CPU use with 104 MPI tasks x 1 OpenMP threads

Minimization stats:
  Stopping criterion = energy tolerance
  Energy initial, next-to-last, final = 
     -1152449.06025468  -1152449.06191293  -1152449.06191293
  Force two-norm initial, final = 0.17332883 8.6636366e-05
  Force max component initial, final = 0.13550798 2.2654851e-05
  Final line search alpha, max atom move = 1.0000000 2.2654851e-05
  Iterations, force evaluations = 204 408

MPI task timing breakdown:
Section |  min time  |  avg time  |  max time  |%varavg| %total
---------------------------------------------------------------
Pair    | 0.61176    | 1.7256     | 2.2598     |  35.8 | 71.95
Neigh   | 0          | 0          | 0          |   0.0 |  0.00
Comm    | 0.036871   | 0.39424    | 1.1579     |  51.7 | 16.44
Output  | 0          | 0          | 0          |   0.0 |  0.00
Modify  | 2.3847e-05 | 0.0033767  | 0.0072448  |   2.7 |  0.14
Other   |            | 0.2752     |            |       | 11.47

Nlocal:        2776.45 ave        3959 max           0 min
Histogram: 8 4 4 0 4 12 8 2 28 34
Nghost:        3879.00 ave        5425 max         232 min
Histogram: 8 0 8 0 16 0 8 8 16 40
Neighs:        79213.6 ave      115412 max           0 min
Histogram: 8 4 4 0 10 6 8 8 24 32

Total # of neighbors = 8238214
Ave neighs/atom = 28.530512
Neighbor list builds = 0
Dangerous builds = 0
The dot product: -2.02603977628126e-07
Setting atom values ...
  1 settings made for x
  1 settings made for y
  1 settings made for z
Setting up cg style minimization ...
  Unit style    : metal
  Current step  : 4571
Per MPI rank memory allocation (min/avg/max) = 5.441 | 5.816 | 6.074 Mbytes
Step PotEng KinEng TotEng v_fx v_fy v_fz 
    4571     -1152449            0     -1152449 -0.0055336144 0.0074673476 0.0081525466 
    4739     -1152449            0     -1152449 2.4493729e-05 8.3690058e-06 -3.257566e-05 
Loop time of 1.9783 on 104 procs for 168 steps with 288751 atoms

99.9% CPU use with 104 MPI tasks x 1 OpenMP threads

Minimization stats:
  Stopping criterion = energy tolerance
  Energy initial, next-to-last, final = 
     -1152449.03009923   -1152449.0317405   -1152449.0317405
  Force two-norm initial, final = 0.1738679 0.00022533988
  Force max component initial, final = 0.13792052 5.0354518e-05
  Final line search alpha, max atom move = 1.0000000 5.0354518e-05
  Iterations, force evaluations = 168 336

MPI task timing breakdown:
Section |  min time  |  avg time  |  max time  |%varavg| %total
---------------------------------------------------------------
Pair    | 0.50379    | 1.41       | 1.8566     |  32.3 | 71.27
Neigh   | 0          | 0          | 0          |   0.0 |  0.00
Comm    | 0.03193    | 0.32319    | 0.95239    |  46.5 | 16.34
Output  | 0          | 0          | 0          |   0.0 |  0.00
Modify  | 1.9436e-05 | 0.0027848  | 0.0059427  |   2.5 |  0.14
Other   |            | 0.2423     |            |       | 12.25

Nlocal:        2776.45 ave        3960 max           0 min
Histogram: 8 4 4 0 4 12 8 2 28 34
Nghost:        3879.00 ave        5425 max         232 min
Histogram: 8 0 8 0 16 0 8 8 16 40
Neighs:        79213.6 ave      115449 max           0 min
Histogram: 8 4 4 0 10 6 8 8 24 32

Total # of neighbors = 8238218
Ave neighs/atom = 28.530526
Neighbor list builds = 0
Dangerous builds = 0
The dot product: -2.61124290174584e-07
Setting atom values ...
  1 settings made for x
  1 settings made for y
  1 settings made for z
Setting up cg style minimization ...
  Unit style    : metal
  Current step  : 4739
Per MPI rank memory allocation (min/avg/max) = 5.441 | 5.816 | 6.074 Mbytes
Step PotEng KinEng TotEng v_fx v_fy v_fz 
    4739     -1152449            0     -1152449 -0.0036031959 0.0045750424 0.0051177756 
    4904     -1152449            0     -1152449 -1.7339006e-05 -8.7415841e-06 2.2248178e-05 
Loop time of 1.93463 on 104 procs for 165 steps with 288751 atoms

99.9% CPU use with 104 MPI tasks x 1 OpenMP threads

Minimization stats:
  Stopping criterion = energy tolerance
  Energy initial, next-to-last, final = 
     -1152448.99880249  -1152449.00045125  -1152449.00045125
  Force two-norm initial, final = 0.174628 0.00024028626
  Force max component initial, final = 0.14006943 4.0834504e-05
  Final line search alpha, max atom move = 1.0000000 4.0834504e-05
  Iterations, force evaluations = 165 330

MPI task timing breakdown:
Section |  min time  |  avg time  |  max time  |%varavg| %total
---------------------------------------------------------------
Pair    | 0.49505    | 1.3921     | 1.821      |  32.1 | 71.96
Neigh   | 0          | 0          | 0          |   0.0 |  0.00
Comm    | 0.028992   | 0.32201    | 0.94032    |  46.0 | 16.64
Output  | 0          | 0          | 0          |   0.0 |  0.00
Modify  | 1.9263e-05 | 0.0027331  | 0.0058534  |   2.5 |  0.14
Other   |            | 0.2178     |            |       | 11.26

Nlocal:        2776.45 ave        3960 max           0 min
Histogram: 8 4 4 0 4 12 8 2 28 34
Nghost:        3878.89 ave        5425 max         232 min
Histogram: 8 0 8 0 16 0 8 8 16 40
Neighs:        79213.6 ave      115448 max           0 min
Histogram: 8 4 4 0 10 6 8 8 24 32

Total # of neighbors = 8238216
Ave neighs/atom = 28.530519
Neighbor list builds = 0
Dangerous builds = 0
The dot product: 1.60824363182188e-07
Setting atom values ...
  1 settings made for x
  1 settings made for y
  1 settings made for z
Setting up cg style minimization ...
  Unit style    : metal
  Current step  : 4904
Per MPI rank memory allocation (min/avg/max) = 5.441 | 5.816 | 6.074 Mbytes
Step PotEng KinEng TotEng v_fx v_fy v_fz 
    4904     -1152449            0     -1152449 -0.0018739348 0.0025473449 0.0026057592 
    5000     -1152449            0     -1152449 0.00017815329 2.3939296e-05 -0.00022835293 
    5074     -1152449            0     -1152449 1.5855857e-05 5.7154553e-06 -2.0062694e-05 
Loop time of 2.02582 on 104 procs for 170 steps with 288751 atoms

99.9% CPU use with 104 MPI tasks x 1 OpenMP threads

Minimization stats:
  Stopping criterion = energy tolerance
  Energy initial, next-to-last, final = 
     -1152448.96644545  -1152448.96810386  -1152448.96810386
  Force two-norm initial, final = 0.17544199 0.00021176692
  Force max component initial, final = 0.14191526 2.0368567e-05
  Final line search alpha, max atom move = 1.0000000 2.0368567e-05
  Iterations, force evaluations = 170 340

MPI task timing breakdown:
Section |  min time  |  avg time  |  max time  |%varavg| %total
---------------------------------------------------------------
Pair    | 0.50967    | 1.4333     | 1.8911     |  32.7 | 70.75
Neigh   | 0          | 0          | 0          |   0.0 |  0.00
Comm    | 0.034868   | 0.33149    | 0.98532    |  46.8 | 16.36
Output  | 0.00015278 | 0.00016103 | 0.00030981 |   0.0 |  0.01
Modify  | 2.0494e-05 | 0.0028134  | 0.00601    |   2.5 |  0.14
Other   |            | 0.2581     |            |       | 12.74

Nlocal:        2776.45 ave        3960 max           0 min
Histogram: 8 4 4 0 4 12 8 2 28 34
Nghost:        3878.88 ave        5425 max         232 min
Histogram: 8 0 8 0 16 0 8 8 16 40
Neighs:        79213.6 ave      115449 max           0 min
Histogram: 8 4 4 0 10 6 8 8 24 32

Total # of neighbors = 8238218
Ave neighs/atom = 28.530526
Neighbor list builds = 0
Dangerous builds = 0
The dot product: -1.38642485269041e-07
Setting atom values ...
  1 settings made for x
  1 settings made for y
  1 settings made for z
Setting up cg style minimization ...
  Unit style    : metal
  Current step  : 5074
Per MPI rank memory allocation (min/avg/max) = 5.441 | 5.816 | 6.074 Mbytes
Step PotEng KinEng TotEng v_fx v_fy v_fz 
    5074   -1152448.9            0   -1152448.9 -0.00033075513  0.001328755 0.00051160533 
    5248   -1152448.9            0   -1152448.9 1.443946e-05 5.1673996e-06 -1.7906855e-05 
Loop time of 2.03591 on 104 procs for 174 steps with 288751 atoms

99.9% CPU use with 104 MPI tasks x 1 OpenMP threads

Minimization stats:
  Stopping criterion = energy tolerance
  Energy initial, next-to-last, final = 
     -1152448.93312393  -1152448.93483892  -1152448.93483892
  Force two-norm initial, final = 0.17631852 0.00024272067
  Force max component initial, final = 0.14365861 3.6193757e-05
  Final line search alpha, max atom move = 1.0000000 3.6193757e-05
  Iterations, force evaluations = 174 348

MPI task timing breakdown:
Section |  min time  |  avg time  |  max time  |%varavg| %total
---------------------------------------------------------------
Pair    | 0.52226    | 1.4653     | 1.9223     |  32.8 | 71.97
Neigh   | 0          | 0          | 0          |   0.0 |  0.00
Comm    | 0.030033   | 0.33408    | 0.98796    |  47.9 | 16.41
Output  | 0          | 0          | 0          |   0.0 |  0.00
Modify  | 2.0746e-05 | 0.002884   | 0.006162   |   2.5 |  0.14
Other   |            | 0.2336     |            |       | 11.47

Nlocal:        2776.45 ave        3960 max           0 min
Histogram: 8 4 4 0 4 12 8 2 28 34
Nghost:        3878.87 ave        5425 max         232 min
Histogram: 8 0 8 0 16 0 8 8 16 40
Neighs:        79213.6 ave      115448 max           0 min
Histogram: 8 4 4 0 10 6 8 8 24 32

Total # of neighbors = 8238215
Ave neighs/atom = 28.530516
Neighbor list builds = 0
Dangerous builds = 0
The dot product: -1.18994354703249e-07
Setting atom values ...
  1 settings made for x
  1 settings made for y
  1 settings made for z
Setting up cg style minimization ...
  Unit style    : metal
  Current step  : 5248
Per MPI rank memory allocation (min/avg/max) = 5.441 | 5.816 | 6.074 Mbytes
Step PotEng KinEng TotEng v_fx v_fy v_fz 
    5248   -1152448.9            0   -1152448.9 0.0010584318 0.00067120997 -0.0012684086 
    5428   -1152448.9            0   -1152448.9 1.0909439e-05 5.0130784e-06 -1.3204269e-05 
Loop time of 2.10296 on 104 procs for 180 steps with 288751 atoms

99.9% CPU use with 104 MPI tasks x 1 OpenMP threads

Minimization stats:
  Stopping criterion = energy tolerance
  Energy initial, next-to-last, final = 
     -1152448.89898708  -1152448.90062539  -1152448.90062539
  Force two-norm initial, final = 0.17706164 0.0001779065
  Force max component initial, final = 0.1451078 2.9204735e-05
  Final line search alpha, max atom move = 1.0000000 2.9204735e-05
  Iterations, force evaluations = 180 360

MPI task timing breakdown:
Section |  min time  |  avg time  |  max time  |%varavg| %total
---------------------------------------------------------------
Pair    | 0.54014    | 1.5123     | 1.9855     |  33.5 | 71.91
Neigh   | 0          | 0          | 0          |   0.0 |  0.00
Comm    | 0.030345   | 0.34508    | 1.0285     |  48.7 | 16.41
Output  | 0          | 0          | 0          |   0.0 |  0.00
Modify  | 2.1869e-05 | 0.0029773  | 0.0063839  |   2.6 |  0.14
Other   |            | 0.2426     |            |       | 11.54

Nlocal:        2776.45 ave        3960 max           0 min
Histogram: 8 4 4 0 4 12 8 2 28 34
Nghost:        3878.85 ave        5425 max         232 min
Histogram: 8 0 8 0 16 0 8 8 16 40
Neighs:        79213.6 ave      115447 max           0 min
Histogram: 8 4 4 0 10 6 8 8 24 32

Total # of neighbors = 8238214
Ave neighs/atom = 28.530512
Neighbor list builds = 0
Dangerous builds = 0
The dot product: -7.50056535423029e-08
Setting atom values ...
  1 settings made for x
  1 settings made for y
  1 settings made for z
Setting up cg style minimization ...
  Unit style    : metal
  Current step  : 5428
Per MPI rank memory allocation (min/avg/max) = 5.441 | 5.816 | 6.074 Mbytes
Step PotEng KinEng TotEng v_fx v_fy v_fz 
    5428   -1152448.9            0   -1152448.9 0.0035115355 0.00028429919 -0.0042764483 
    5634   -1152448.9            0   -1152448.9 -1.134755e-05 -3.6578955e-06 1.3633371e-05 
Loop time of 2.41544 on 104 procs for 206 steps with 288751 atoms

99.9% CPU use with 104 MPI tasks x 1 OpenMP threads

Minimization stats:
  Stopping criterion = energy tolerance
  Energy initial, next-to-last, final = 
     -1152448.86374767  -1152448.86535773  -1152448.86535773
  Force two-norm initial, final = 0.17829062 8.6892755e-05
  Force max component initial, final = 0.1467902 1.9600773e-05
  Final line search alpha, max atom move = 1.0000000 1.9600773e-05
  Iterations, force evaluations = 206 412

MPI task timing breakdown:
Section |  min time  |  avg time  |  max time  |%varavg| %total
---------------------------------------------------------------
Pair    | 0.61993    | 1.734      | 2.2733     |  35.7 | 71.79
Neigh   | 0          | 0          | 0          |   0.0 |  0.00
Comm    | 0.037515   | 0.39464    | 1.167      |  52.0 | 16.34
Output  | 0          | 0          | 0          |   0.0 |  0.00
Modify  | 2.4471e-05 | 0.0034087  | 0.0072982  |   2.7 |  0.14
Other   |            | 0.2834     |            |       | 11.73

Nlocal:        2776.45 ave        3959 max           0 min
Histogram: 8 4 4 0 4 12 8 2 28 34
Nghost:        3878.86 ave        5425 max         232 min
Histogram: 8 0 8 0 16 0 8 8 16 40
Neighs:        79213.6 ave      115423 max           0 min
Histogram: 8 4 4 0 10 6 8 8 24 32

Total # of neighbors = 8238214
Ave neighs/atom = 28.530512
Neighbor list builds = 0
Dangerous builds = 0
The dot product: 6.37548120051763e-08
Setting atom values ...
  1 settings made for x
  1 settings made for y
  1 settings made for z
Setting up cg style minimization ...
  Unit style    : metal
  Current step  : 5634
Per MPI rank memory allocation (min/avg/max) = 5.441 | 5.816 | 6.074 Mbytes
Step PotEng KinEng TotEng v_fx v_fy v_fz 
    5634   -1152448.8            0   -1152448.8 0.0060207796 0.00022346883 -0.0072640741 
    5843   -1152448.8            0   -1152448.8 5.3944013e-06 -1.1954754e-06 -6.6031567e-06 
Loop time of 2.46193 on 104 procs for 209 steps with 288751 atoms

99.9% CPU use with 104 MPI tasks x 1 OpenMP threads

Minimization stats:
  Stopping criterion = energy tolerance
  Energy initial, next-to-last, final = 
     -1152448.82743512  -1152448.82914788  -1152448.82914788
  Force two-norm initial, final = 0.17956145 8.1559214e-05
  Force max component initial, final = 0.14835959 1.7986463e-05
  Final line search alpha, max atom move = 1.0000000 1.7986463e-05
  Iterations, force evaluations = 209 418

MPI task timing breakdown:
Section |  min time  |  avg time  |  max time  |%varavg| %total
---------------------------------------------------------------
Pair    | 0.62842    | 1.7565     | 2.2982     |  35.8 | 71.34
Neigh   | 0          | 0          | 0          |   0.0 |  0.00
Comm    | 0.039391   | 0.40282    | 1.2068     |  52.1 | 16.36
Output  | 0          | 0          | 0          |   0.0 |  0.00
Modify  | 2.4209e-05 | 0.0034553  | 0.0073593  |   2.8 |  0.14
Other   |            | 0.2992     |            |       | 12.15

Nlocal:        2776.45 ave        3959 max           0 min
Histogram: 8 4 4 0 4 12 8 2 28 34
Nghost:        3878.82 ave        5425 max         232 min
Histogram: 8 0 8 0 16 0 8 8 16 40
Neighs:        79213.6 ave      115424 max           0 min
Histogram: 8 4 4 0 10 6 8 8 24 32

Total # of neighbors = 8238216
Ave neighs/atom = 28.530519
Neighbor list builds = 0
Dangerous builds = 0
The dot product: -2.72059246882209e-08
Setting atom values ...
  1 settings made for x
  1 settings made for y
  1 settings made for z
Setting up cg style minimization ...
  Unit style    : metal
  Current step  : 5843
Per MPI rank memory allocation (min/avg/max) = 5.441 | 5.816 | 6.074 Mbytes
Step PotEng KinEng TotEng v_fx v_fy v_fz 
    5843   -1152448.8            0   -1152448.8 0.0077998795 0.00047581101 -0.009300415 
    6000   -1152448.8            0   -1152448.8 -5.37015e-05 -8.9819899e-06 6.3642313e-05 
    6048   -1152448.8            0   -1152448.8 -1.8140498e-05 -3.562983e-06 2.146236e-05 
Loop time of 2.41166 on 104 procs for 205 steps with 288751 atoms

99.9% CPU use with 104 MPI tasks x 1 OpenMP threads

Minimization stats:
  Stopping criterion = energy tolerance
  Energy initial, next-to-last, final = 
     -1152448.79040923  -1152448.79203299  -1152448.79203299
  Force two-norm initial, final = 0.18013887 8.9059118e-05
  Force max component initial, final = 0.14940513 2.1926809e-05
  Final line search alpha, max atom move = 1.0000000 2.1926809e-05
  Iterations, force evaluations = 205 410

MPI task timing breakdown:
Section |  min time  |  avg time  |  max time  |%varavg| %total
---------------------------------------------------------------
Pair    | 0.61513    | 1.7306     | 2.272      |  35.8 | 71.76
Neigh   | 0          | 0          | 0          |   0.0 |  0.00
Comm    | 0.036091   | 0.39633    | 1.1634     |  51.8 | 16.43
Output  | 0.00023032 | 0.00024277 | 0.00042105 |   0.0 |  0.01
Modify  | 2.4261e-05 | 0.0033947  | 0.0072525  |   2.7 |  0.14
Other   |            | 0.281      |            |       | 11.65

Nlocal:        2776.45 ave        3959 max           0 min
Histogram: 8 4 4 0 4 12 8 2 28 34
Nghost:        3878.84 ave        5425 max         232 min
Histogram: 8 0 8 0 16 0 8 8 16 40
Neighs:        79213.6 ave      115424 max           0 min
Histogram: 8 4 4 0 10 6 8 8 24 32

Total # of neighbors = 8238213
Ave neighs/atom = 28.530509
Neighbor list builds = 0
Dangerous builds = 0
The dot product: 6.40206326252416e-08
Setting atom values ...
  1 settings made for x
  1 settings made for y
  1 settings made for z
Setting up cg style minimization ...
  Unit style    : metal
  Current step  : 6048
Per MPI rank memory allocation (min/avg/max) = 5.441 | 5.816 | 6.074 Mbytes
Step PotEng KinEng TotEng v_fx v_fy v_fz 
    6048   -1152448.8            0   -1152448.8  0.010812169 0.0010272804 -0.012777594 
    6229   -1152448.8            0   -1152448.8 -2.711995e-05 -6.6067987e-06 3.1770861e-05 
Loop time of 2.12025 on 104 procs for 181 steps with 288751 atoms

99.9% CPU use with 104 MPI tasks x 1 OpenMP threads

Minimization stats:
  Stopping criterion = energy tolerance
  Energy initial, next-to-last, final = 
     -1152448.75227747  -1152448.75390636  -1152448.75390636
  Force two-norm initial, final = 0.18116252 0.00017956214
  Force max component initial, final = 0.15076241 3.8330562e-05
  Final line search alpha, max atom move = 1.0000000 3.8330562e-05
  Iterations, force evaluations = 181 362

MPI task timing breakdown:
Section |  min time  |  avg time  |  max time  |%varavg| %total
---------------------------------------------------------------
Pair    | 0.54264    | 1.5195     | 2.0008     |  33.6 | 71.66
Neigh   | 0          | 0          | 0          |   0.0 |  0.00
Comm    | 0.031736   | 0.34763    | 1.0195     |  48.4 | 16.40
Output  | 0          | 0          | 0          |   0.0 |  0.00
Modify  | 2.1311e-05 | 0.0029979  | 0.0063999  |   2.6 |  0.14
Other   |            | 0.2501     |            |       | 11.80

Nlocal:        2776.45 ave        3959 max           0 min
Histogram: 8 4 4 0 4 12 8 2 28 34
Nghost:        3878.81 ave        5425 max         232 min
Histogram: 8 0 8 0 16 0 8 8 16 40
Neighs:        79213.6 ave      115423 max           0 min
Histogram: 8 4 4 0 10 6 8 8 24 32

Total # of neighbors = 8238212
Ave neighs/atom = 28.530506
Neighbor list builds = 0
Dangerous builds = 0
The dot product: 5.77386209818444e-08
Setting atom values ...
  1 settings made for x
  1 settings made for y
  1 settings made for z
Setting up cg style minimization ...
  Unit style    : metal
  Current step  : 6229
Per MPI rank memory allocation (min/avg/max) = 5.441 | 5.816 | 6.074 Mbytes
Step PotEng KinEng TotEng v_fx v_fy v_fz 
    6229   -1152448.7            0   -1152448.7  0.013618784 0.0018802395 -0.015988939 
    6412   -1152448.7            0   -1152448.7 3.6136047e-05 6.8447631e-06 -4.2294496e-05 
Loop time of 2.14992 on 104 procs for 183 steps with 288751 atoms

99.9% CPU use with 104 MPI tasks x 1 OpenMP threads

Minimization stats:
  Stopping criterion = energy tolerance
  Energy initial, next-to-last, final = 
     -1152448.71321327  -1152448.71500259  -1152448.71500259
  Force two-norm initial, final = 0.18165596 0.000162165
  Force max component initial, final = 0.15184714 4.4944427e-05
  Final line search alpha, max atom move = 1.0000000 4.4944427e-05
  Iterations, force evaluations = 183 366

MPI task timing breakdown:
Section |  min time  |  avg time  |  max time  |%varavg| %total
---------------------------------------------------------------
Pair    | 0.55541    | 1.5473     | 2.0205     |  33.6 | 71.97
Neigh   | 0          | 0          | 0          |   0.0 |  0.00
Comm    | 0.037972   | 0.35395    | 1.0453     |  48.8 | 16.46
Output  | 0          | 0          | 0          |   0.0 |  0.00
Modify  | 2.1631e-05 | 0.0030284  | 0.0064703  |   2.6 |  0.14
Other   |            | 0.2457     |            |       | 11.43

Nlocal:        2776.45 ave        3958 max           0 min
Histogram: 8 4 4 0 4 12 8 2 28 34
Nghost:        3878.82 ave        5425 max         232 min
Histogram: 8 0 8 0 16 0 8 8 16 40
Neighs:        79213.6 ave      115397 max           0 min
Histogram: 8 4 4 0 10 6 8 8 24 32

Total # of neighbors = 8238212
Ave neighs/atom = 28.530506
Neighbor list builds = 0
Dangerous builds = 0
The dot product: -5.15102125308987e-08
Setting atom values ...
  1 settings made for x
  1 settings made for y
  1 settings made for z
Setting up cg style minimization ...
  Unit style    : metal
  Current step  : 6412
Per MPI rank memory allocation (min/avg/max) = 5.441 | 5.816 | 6.074 Mbytes
Step PotEng KinEng TotEng v_fx v_fy v_fz 
    6412   -1152448.7            0   -1152448.7  0.015605441 0.0025594404 -0.018244098 
    6595   -1152448.7            0   -1152448.7 -9.7158154e-07 4.853742e-06 1.4973548e-06 
Loop time of 2.13857 on 104 procs for 183 steps with 288751 atoms

99.9% CPU use with 104 MPI tasks x 1 OpenMP threads

Minimization stats:
  Stopping criterion = energy tolerance
  Energy initial, next-to-last, final = 
     -1152448.67383793   -1152448.6755825   -1152448.6755825
  Force two-norm initial, final = 0.18061969 0.00015928198
  Force max component initial, final = 0.15194401 2.7064570e-05
  Final line search alpha, max atom move = 1.0000000 2.7064570e-05
  Iterations, force evaluations = 183 366

MPI task timing breakdown:
Section |  min time  |  avg time  |  max time  |%varavg| %total
---------------------------------------------------------------
Pair    | 0.54954    | 1.5365     | 2.0185     |  33.7 | 71.85
Neigh   | 0          | 0          | 0          |   0.0 |  0.00
Comm    | 0.031154   | 0.35065    | 1.0416     |  49.0 | 16.40
Output  | 0          | 0          | 0          |   0.0 |  0.00
Modify  | 2.153e-05  | 0.0030311  | 0.0065299  |   2.6 |  0.14
Other   |            | 0.2484     |            |       | 11.62

Nlocal:        2776.45 ave        3958 max           0 min
Histogram: 8 4 4 0 4 12 8 2 28 34
Nghost:        3878.79 ave        5425 max         232 min
Histogram: 8 0 8 0 16 0 8 8 16 40
Neighs:        79213.5 ave      115386 max           0 min
Histogram: 8 4 4 0 10 6 8 8 24 32

Total # of neighbors = 8238205
Ave neighs/atom = 28.530481
Neighbor list builds = 0
Dangerous builds = 0
The dot product: -5.74801737783939e-09
Setting atom values ...
  1 settings made for x
  1 settings made for y
  1 settings made for z
Setting up cg style minimization ...
  Unit style    : metal
  Current step  : 6595
Per MPI rank memory allocation (min/avg/max) = 5.441 | 5.816 | 6.074 Mbytes
Step PotEng KinEng TotEng v_fx v_fy v_fz 
    6595   -1152448.6            0   -1152448.6  0.018281652 0.0037757233  -0.02132588 
    6819   -1152448.6            0   -1152448.6 -1.1948971e-06 -3.5148015e-06 1.1504867e-06 
Loop time of 2.62715 on 104 procs for 224 steps with 288751 atoms

99.9% CPU use with 104 MPI tasks x 1 OpenMP threads

Minimization stats:
  Stopping criterion = energy tolerance
  Energy initial, next-to-last, final = 
     -1152448.63408676  -1152448.63607373  -1152448.63607373
  Force two-norm initial, final = 0.179676 0.0001167662
  Force max component initial, final = 0.15172849 1.6779489e-05
  Final line search alpha, max atom move = 1.0000000 1.6779489e-05
  Iterations, force evaluations = 224 448

MPI task timing breakdown:
Section |  min time  |  avg time  |  max time  |%varavg| %total
---------------------------------------------------------------
Pair    | 0.67259    | 1.8854     | 2.4687     |  37.3 | 71.77
Neigh   | 0          | 0          | 0          |   0.0 |  0.00
Comm    | 0.039728   | 0.42928    | 1.2624     |  54.1 | 16.34
Output  | 0          | 0          | 0          |   0.0 |  0.00
Modify  | 2.6731e-05 | 0.0037004  | 0.0079231  |   2.9 |  0.14
Other   |            | 0.3087     |            |       | 11.75

Nlocal:        2776.45 ave        3958 max           0 min
Histogram: 8 4 4 0 4 12 8 2 28 34
Nghost:        3878.73 ave        5425 max         232 min
Histogram: 8 0 8 0 16 0 8 8 16 40
Neighs:        79213.5 ave      115385 max           0 min
Histogram: 8 4 4 0 10 6 8 8 24 32

Total # of neighbors = 8238200
Ave neighs/atom = 28.530464
Neighbor list builds = 0
Dangerous builds = 0
The dot product: 4.21115543663142e-09
Setting atom values ...
  1 settings made for x
  1 settings made for y
  1 settings made for z
Setting up cg style minimization ...
  Unit style    : metal
  Current step  : 6819
Per MPI rank memory allocation (min/avg/max) = 5.441 | 5.816 | 6.074 Mbytes
Step PotEng KinEng TotEng v_fx v_fy v_fz 
    6819   -1152448.6            0   -1152448.6  0.020964132 0.0014193264 -0.024716621 
    7000   -1152448.6            0   -1152448.6 -5.6795297e-05 -7.1634761e-06 6.6703238e-05 
    7015   -1152448.6            0   -1152448.6 -2.8995388e-05 -5.6810106e-06 3.3896171e-05 
Loop time of 2.29885 on 104 procs for 196 steps with 288751 atoms

99.9% CPU use with 104 MPI tasks x 1 OpenMP threads

Minimization stats:
  Stopping criterion = energy tolerance
  Energy initial, next-to-last, final = 
     -1152448.59530764  -1152448.59745381  -1152448.59745381
  Force two-norm initial, final = 0.1778059 0.00017662845
  Force max component initial, final = 0.14921626 3.9194219e-05
  Final line search alpha, max atom move = 1.0000000 3.9194219e-05
  Iterations, force evaluations = 196 392

MPI task timing breakdown:
Section |  min time  |  avg time  |  max time  |%varavg| %total
---------------------------------------------------------------
Pair    | 0.58787    | 1.6466     | 2.1652     |  34.9 | 71.63
Neigh   | 0          | 0          | 0          |   0.0 |  0.00
Comm    | 0.033748   | 0.37685    | 1.1177     |  50.5 | 16.39
Output  | 0.00016226 | 0.00016931 | 0.00033027 |   0.0 |  0.01
Modify  | 2.2851e-05 | 0.0032453  | 0.0069428  |   2.7 |  0.14
Other   |            | 0.272      |            |       | 11.83

Nlocal:        2776.45 ave        3957 max           0 min
Histogram: 8 4 4 0 4 12 8 2 28 34
Nghost:        3878.73 ave        5425 max         232 min
Histogram: 8 0 8 0 16 0 8 8 16 40
Neighs:        79213.5 ave      115352 max           0 min
Histogram: 8 4 4 0 10 6 8 8 24 32

Total # of neighbors = 8238205
Ave neighs/atom = 28.530481
Neighbor list builds = 0
Dangerous builds = 0
The dot product: -1.67370333862176e-08
Setting atom values ...
  1 settings made for x
  1 settings made for y
  1 settings made for z
Setting up cg style minimization ...
  Unit style    : metal
  Current step  : 7015
Per MPI rank memory allocation (min/avg/max) = 5.441 | 5.816 | 6.074 Mbytes
Step PotEng KinEng TotEng v_fx v_fy v_fz 
    7015   -1152448.6            0   -1152448.6  0.021987903 -0.00050750082 -0.026124009 
    7285   -1152448.6            0   -1152448.6 -3.9954111e-06 -4.9002183e-07 4.6993845e-06 
Loop time of 3.18068 on 104 procs for 270 steps with 288751 atoms

99.9% CPU use with 104 MPI tasks x 1 OpenMP threads

Minimization stats:
  Stopping criterion = energy tolerance
  Energy initial, next-to-last, final = 
     -1152448.55834804  -1152448.57009769  -1152448.57009769
  Force two-norm initial, final = 0.18450882 2.4349888e-05
  Force max component initial, final = 0.14661757 5.8904352e-06
  Final line search alpha, max atom move = 1.0000000 5.8904352e-06
  Iterations, force evaluations = 270 540

MPI task timing breakdown:
Section |  min time  |  avg time  |  max time  |%varavg| %total
---------------------------------------------------------------
Pair    | 0.81512    | 2.2783     | 2.9879     |  40.9 | 71.63
Neigh   | 1.0393e-05 | 0.0029383  | 0.0043891  |   2.2 |  0.09
Comm    | 0.053836   | 0.5215     | 1.5377     |  59.4 | 16.40
Output  | 0          | 0          | 0          |   0.0 |  0.00
Modify  | 3.1821e-05 | 0.004469   | 0.0095668  |   3.1 |  0.14
Other   |            | 0.3734     |            |       | 11.74

Nlocal:        2776.45 ave        3957 max           0 min
Histogram: 8 4 4 0 4 12 8 2 28 34
Nghost:        3878.71 ave        5425 max         232 min
Histogram: 8 0 8 0 16 0 8 8 16 40
Neighs:        79213.4 ave      115351 max           0 min
Histogram: 8 4 4 0 10 6 8 8 24 32

Total # of neighbors = 8238195
Ave neighs/atom = 28.530447
Neighbor list builds = 1
Dangerous builds = 0
The dot product: 8.76842609548866e-08
Setting atom values ...
  1 settings made for x
  1 settings made for y
  1 settings made for z
Setting up cg style minimization ...
  Unit style    : metal
  Current step  : 7285
Per MPI rank memory allocation (min/avg/max) = 5.441 | 5.816 | 6.074 Mbytes
Step PotEng KinEng TotEng v_fx v_fy v_fz 
    7285   -1152448.5            0   -1152448.5  0.014513621 0.0020491461 -0.016423962 
    7628   -1152448.5            0   -1152448.5 -3.9950856e-05 -5.1738494e-06 4.5249005e-05 
[...]

Nlocal:        2776.45 ave        3951 max           0 min
Histogram: 8 4 4 0 4 12 8 0 30 34
Nghost:        3879.22 ave        5424 max         232 min
Histogram: 8 0 8 0 16 0 8 8 16 40
Neighs:        79213.6 ave      115096 max           0 min
Histogram: 8 4 4 0 10 6 8 8 23 33

Total # of neighbors = 8238212
Ave neighs/atom = 28.530506
Neighbor list builds = 0
Dangerous builds = 0
The dot product: -3.89161680905723e-08
Setting atom values ...
  1 settings made for x
  1 settings made for y
  1 settings made for z
Setting up cg style minimization ...
  Unit style    : metal
  Current step  : 20070
Per MPI rank memory allocation (min/avg/max) = 5.441 | 5.816 | 6.074 Mbytes
Step PotEng KinEng TotEng v_fx v_fy v_fz 
   20070   -1152448.1            0   -1152448.1 -0.028494297 -0.0059361024  0.011446246 
   20263   -1152448.1            0   -1152448.1 -3.2832767e-07 1.7252719e-05 1.4848652e-05 
Loop time of 2.2557 on 104 procs for 193 steps with 288751 atoms

99.9% CPU use with 104 MPI tasks x 1 OpenMP threads

Minimization stats:
  Stopping criterion = energy tolerance
  Energy initial, next-to-last, final = 
     -1152448.07168921  -1152448.07255701  -1152448.07255701
  Force two-norm initial, final = 0.12407447 7.6573314e-05
  Force max component initial, final = 0.053554346 3.0654051e-05
  Final line search alpha, max atom move = 1.0000000 3.0654051e-05
  Iterations, force evaluations = 193 386

MPI task timing breakdown:
Section |  min time  |  avg time  |  max time  |%varavg| %total
---------------------------------------------------------------
Pair    | 0.57684    | 1.627      | 2.1198     |  34.8 | 72.13
Neigh   | 0          | 0          | 0          |   0.0 |  0.00
Comm    | 0.039572   | 0.37722    | 1.1503     |  50.3 | 16.72
Output  | 0          | 0          | 0          |   0.0 |  0.00
Modify  | 2.3135e-05 | 0.0032027  | 0.0067875  |   2.7 |  0.14
Other   |            | 0.2483     |            |       | 11.01

Nlocal:        2776.45 ave        3951 max           0 min
Histogram: 8 4 4 0 4 12 8 0 30 34
Nghost:        3879.22 ave        5424 max         232 min
Histogram: 8 0 8 0 16 0 8 8 16 40
Neighs:        79213.6 ave      115097 max           0 min
Histogram: 8 4 4 0 10 6 8 8 24 32

Total # of neighbors = 8238215
Ave neighs/atom = 28.530516
Neighbor list builds = 0
Dangerous builds = 0
The dot product: -5.0623982318392e-09
Setting atom values ...
  1 settings made for x
  1 settings made for y
  1 settings made for z
Setting up cg style minimization ...
  Unit style    : metal
  Current step  : 20263
Per MPI rank memory allocation (min/avg/max) = 5.441 | 5.816 | 6.074 Mbytes
Step PotEng KinEng TotEng v_fx v_fy v_fz 
   20263   -1152448.1            0   -1152448.1 -0.031037439 -0.0018874903  0.016413295 
   20458   -1152448.1            0   -1152448.1 4.7342618e-06 -4.9527348e-06 -6.9551196e-06 
Loop time of 2.27882 on 104 procs for 195 steps with 288751 atoms

99.9% CPU use with 104 MPI tasks x 1 OpenMP threads

Minimization stats:
  Stopping criterion = energy tolerance
  Energy initial, next-to-last, final = 
     -1152448.05133667  -1152448.05217058  -1152448.05217058
  Force two-norm initial, final = 0.12285658 7.4772689e-05
  Force max component initial, final = 0.053498272 7.5570035e-06
  Final line search alpha, max atom move = 1.0000000 7.5570035e-06
  Iterations, force evaluations = 195 390

MPI task timing breakdown:
Section |  min time  |  avg time  |  max time  |%varavg| %total
---------------------------------------------------------------
Pair    | 0.5843     | 1.6407     | 2.1456     |  34.8 | 72.00
Neigh   | 0          | 0          | 0          |   0.0 |  0.00
Comm    | 0.035553   | 0.37365    | 1.1235     |  50.6 | 16.40
Output  | 0          | 0          | 0          |   0.0 |  0.00
Modify  | 2.3126e-05 | 0.0032357  | 0.0068629  |   2.7 |  0.14
Other   |            | 0.2612     |            |       | 11.46

Nlocal:        2776.45 ave        3951 max           0 min
Histogram: 8 4 4 0 4 12 8 0 30 34
Nghost:        3879.22 ave        5424 max         232 min
Histogram: 8 0 8 0 16 0 8 8 16 40
Neighs:        79213.6 ave      115095 max           0 min
Histogram: 8 4 4 0 10 6 8 8 24 32

Total # of neighbors = 8238216
Ave neighs/atom = 28.530519
Neighbor list builds = 0
Dangerous builds = 0
The dot product: -2.46242389334462e-08
Setting atom values ...
  1 settings made for x
  1 settings made for y
  1 settings made for z
Setting up cg style minimization ...
  Unit style    : metal
  Current step  : 20458
Per MPI rank memory allocation (min/avg/max) = 5.441 | 5.816 | 6.074 Mbytes
Step PotEng KinEng TotEng v_fx v_fy v_fz 
   20458     -1152448            0     -1152448  -0.03653027 0.0047687149  0.025354058 
   20821   -1152448.8            0   -1152448.8 -2.0029655e-06 1.3447431e-06 2.3109587e-06 
Loop time of 4.27873 on 104 procs for 363 steps with 288751 atoms

99.9% CPU use with 104 MPI tasks x 1 OpenMP threads

Minimization stats:
  Stopping criterion = energy tolerance
  Energy initial, next-to-last, final = 
     -1152448.03056625  -1152448.79939224  -1152448.79939224
  Force two-norm initial, final = 0.12507946 6.7227360e-05
  Force max component initial, final = 0.053312769 1.3449932e-05
  Final line search alpha, max atom move = 1.0000000 1.3449932e-05
  Iterations, force evaluations = 363 724

MPI task timing breakdown:
Section |  min time  |  avg time  |  max time  |%varavg| %total
---------------------------------------------------------------
Pair    | 1.1249     | 3.0562     | 3.9889     |  46.7 | 71.43
Neigh   | 0.00010081 | 0.029356   | 0.042944   |   7.1 |  0.69
Comm    | 0.064861   | 0.70121    | 2.0898     |  68.8 | 16.39
Output  | 0          | 0          | 0          |   0.0 |  0.00
Modify  | 4.2711e-05 | 0.0060127  | 0.012807   |   3.7 |  0.14
Other   |            | 0.486      |            |       | 11.36

Nlocal:        2776.45 ave        3941 max           0 min
Histogram: 8 4 4 0 4 12 8 0 28 36
Nghost:        3879.16 ave        5425 max         232 min
Histogram: 8 0 8 0 16 0 8 8 16 40
Neighs:        79213.3 ave      114887 max           0 min
Histogram: 8 4 4 0 10 6 8 8 23 33

Total # of neighbors = 8238181
Ave neighs/atom = 28.530398
Neighbor list builds = 10
Dangerous builds = 0
The dot product: 1.10081867845819e-06
Setting atom values ...
  1 settings made for x
  1 settings made for y
  1 settings made for z
Setting up cg style minimization ...
  Unit style    : metal
  Current step  : 20821
Per MPI rank memory allocation (min/avg/max) = 5.441 | 5.816 | 6.074 Mbytes
Step PotEng KinEng TotEng v_fx v_fy v_fz 
   20821   -1152448.8            0   -1152448.8 0.0024888496  -0.20663541  -0.26207911 
   21000   -1152448.9            0   -1152448.9 -0.00011286338 -5.0958583e-05 1.6539054e-05 
   21131   -1152448.9            0   -1152448.9 1.3639576e-06 -1.2054014e-07 -1.1274889e-06 
Loop time of 3.5911 on 104 procs for 310 steps with 288751 atoms

99.9% CPU use with 104 MPI tasks x 1 OpenMP threads

Minimization stats:
  Stopping criterion = energy tolerance
  Energy initial, next-to-last, final = 
     -1152448.83443733  -1152448.85241933  -1152448.85241933
  Force two-norm initial, final = 0.37370101 7.6748066e-06
  Force max component initial, final = 0.26207911 1.9514002e-06
  Final line search alpha, max atom move = 1.0000000 1.9514002e-06
  Iterations, force evaluations = 310 620

MPI task timing breakdown:
Section |  min time  |  avg time  |  max time  |%varavg| %total
---------------------------------------------------------------
Pair    | 0.93252    | 2.6009     | 3.3765     |  43.6 | 72.43
Neigh   | 1.0167e-05 | 0.0029498  | 0.0043364  |   2.2 |  0.08
Comm    | 0.057038   | 0.58926    | 1.7876     |  64.3 | 16.41
Output  | 0.00017119 | 0.00018113 | 0.00036553 |   0.0 |  0.01
Modify  | 3.5849e-05 | 0.0051368  | 0.010874   |   3.4 |  0.14
Other   |            | 0.3926     |            |       | 10.93

Nlocal:        2776.45 ave        3931 max           0 min
Histogram: 8 4 4 0 4 12 8 0 26 38
Nghost:        3879.01 ave        5423 max         232 min
Histogram: 8 0 8 0 16 0 8 8 16 40
Neighs:        79213.3 ave      114524 max           0 min
Histogram: 8 4 4 0 8 8 8 8 20 36

Total # of neighbors = 8238186
Ave neighs/atom = 28.530415
Neighbor list builds = 1
Dangerous builds = 0
The dot product: 8.49365340811413e-08
Setting atom values ...
  1 settings made for x
  1 settings made for y
  1 settings made for z
Setting up cg style minimization ...
  Unit style    : metal
  Current step  : 21131
Per MPI rank memory allocation (min/avg/max) = 5.441 | 5.816 | 6.074 Mbytes
Step PotEng KinEng TotEng v_fx v_fy v_fz 
   21131   -1152448.9            0   -1152448.9  -0.00168032  0.052794858  0.062042461 
   21257   -1152448.9            0   -1152448.9 -1.250897e-05 -2.4119241e-05 -1.9299072e-05 
Loop time of 1.47928 on 104 procs for 126 steps with 288751 atoms

99.9% CPU use with 104 MPI tasks x 1 OpenMP threads

Minimization stats:
  Stopping criterion = energy tolerance
  Energy initial, next-to-last, final = 
     -1152448.88620015   -1152448.8882076   -1152448.8882076
  Force two-norm initial, final = 0.18908313 0.00014552204
  Force max component initial, final = 0.10544352 3.8569959e-05
  Final line search alpha, max atom move = 1.0000000 3.8569959e-05
  Iterations, force evaluations = 126 252

MPI task timing breakdown:
Section |  min time  |  avg time  |  max time  |%varavg| %total
---------------------------------------------------------------
Pair    | 0.37854    | 1.0624     | 1.3958     |  28.0 | 71.82
Neigh   | 0          | 0          | 0          |   0.0 |  0.00
Comm    | 0.024009   | 0.24316    | 0.73035    |  40.6 | 16.44
Output  | 0          | 0          | 0          |   0.0 |  0.00
Modify  | 1.5048e-05 | 0.0020954  | 0.0044557  |   2.1 |  0.14
Other   |            | 0.1716     |            |       | 11.60

Nlocal:        2776.45 ave        3930 max           0 min
Histogram: 8 4 4 0 4 12 8 0 26 38
Nghost:        3879.14 ave        5425 max         232 min
Histogram: 8 0 8 0 16 0 8 8 16 40
Neighs:        79213.3 ave      114498 max           0 min
Histogram: 8 4 4 0 8 8 8 8 20 36

Total # of neighbors = 8238183
Ave neighs/atom = 28.530405
Neighbor list builds = 0
Dangerous builds = 0
The dot product: -5.98766928428906e-07
Setting atom values ...
  1 settings made for x
  1 settings made for y
  1 settings made for z
Setting up cg style minimization ...
  Unit style    : metal
  Current step  : 21257
Per MPI rank memory allocation (min/avg/max) = 5.441 | 5.816 | 6.074 Mbytes
Step PotEng KinEng TotEng v_fx v_fy v_fz 
   21257   -1152448.9            0   -1152448.9 -0.0047964079 -0.0027671534 4.4654875e-05 
   21443   -1152448.9            0   -1152448.9 -3.1684103e-05 2.0876121e-06 2.4193575e-05 
Loop time of 2.17085 on 104 procs for 186 steps with 288751 atoms

99.9% CPU use with 104 MPI tasks x 1 OpenMP threads

Minimization stats:
  Stopping criterion = energy tolerance
  Energy initial, next-to-last, final = 
      -1152448.9203694  -1152448.92172057  -1152448.92172057
  Force two-norm initial, final = 0.16964935 0.0001437099
  Force max component initial, final = 0.1039603 4.7275048e-05
  Final line search alpha, max atom move = 1.0000000 4.7275048e-05
  Iterations, force evaluations = 186 372

MPI task timing breakdown:
Section |  min time  |  avg time  |  max time  |%varavg| %total
---------------------------------------------------------------
Pair    | 0.55899    | 1.5613     | 2.0248     |  33.9 | 71.92
Neigh   | 0          | 0          | 0          |   0.0 |  0.00
Comm    | 0.039966   | 0.35386    | 1.0552     |  50.0 | 16.30
Output  | 0          | 0          | 0          |   0.0 |  0.00
Modify  | 2.2015e-05 | 0.0030915  | 0.0065409  |   2.6 |  0.14
Other   |            | 0.2526     |            |       | 11.63

Nlocal:        2776.45 ave        3930 max           0 min
Histogram: 8 4 4 0 4 12 8 0 26 38
Nghost:        3879.14 ave        5425 max         232 min
Histogram: 8 0 8 0 16 0 8 8 16 40
Neighs:        79213.3 ave      114499 max           0 min
Histogram: 8 4 4 0 8 8 8 8 20 36

Total # of neighbors = 8238184
Ave neighs/atom = 28.530409
Neighbor list builds = 0
Dangerous builds = 0
The dot product: -6.16471671537679e-08
Setting atom values ...
  1 settings made for x
  1 settings made for y
  1 settings made for z
Setting up cg style minimization ...
  Unit style    : metal
  Current step  : 21443
Per MPI rank memory allocation (min/avg/max) = 5.441 | 5.816 | 6.074 Mbytes
Step PotEng KinEng TotEng v_fx v_fy v_fz 
   21443     -1152449            0     -1152449 -0.0047601542 0.0082786737  0.012948878 
   21627     -1152449            0     -1152449 1.8977269e-05 4.1973953e-06 -8.090423e-06 
Loop time of 2.15615 on 104 procs for 184 steps with 288751 atoms

99.9% CPU use with 104 MPI tasks x 1 OpenMP threads

Minimization stats:
  Stopping criterion = energy tolerance
  Energy initial, next-to-last, final = 
     -1152448.95222851  -1152448.95357103  -1152448.95357103
  Force two-norm initial, final = 0.16981446 0.00013235378
  Force max component initial, final = 0.10328974 1.8977269e-05
  Final line search alpha, max atom move = 1.0000000 1.8977269e-05
  Iterations, force evaluations = 184 368

MPI task timing breakdown:
Section |  min time  |  avg time  |  max time  |%varavg| %total
---------------------------------------------------------------
Pair    | 0.55245    | 1.55       | 2.0356     |  33.8 | 71.89
Neigh   | 0          | 0          | 0          |   0.0 |  0.00
Comm    | 0.036613   | 0.35842    | 1.0679     |  48.7 | 16.62
Output  | 0          | 0          | 0          |   0.0 |  0.00
Modify  | 2.1896e-05 | 0.0030531  | 0.0064879  |   2.6 |  0.14
Other   |            | 0.2447     |            |       | 11.35

Nlocal:        2776.45 ave        3930 max           0 min
Histogram: 8 4 4 0 4 12 8 0 26 38
Nghost:        3879.16 ave        5425 max         232 min
Histogram: 8 0 8 0 16 0 8 8 16 40
Neighs:        79213.3 ave      114488 max           0 min
Histogram: 8 4 4 0 8 8 8 8 20 36

Total # of neighbors = 8238185
Ave neighs/atom = 28.530412
Neighbor list builds = 0
Dangerous builds = 0
The dot product: 6.46819458475882e-09
Setting atom values ...
  1 settings made for x
  1 settings made for y
  1 settings made for z
Setting up cg style minimization ...
  Unit style    : metal
  Current step  : 21627
Per MPI rank memory allocation (min/avg/max) = 5.441 | 5.816 | 6.074 Mbytes
Step PotEng KinEng TotEng v_fx v_fy v_fz 
   21627     -1152449            0     -1152449 -0.0063237919 0.0070028245   0.01253597 
   21797     -1152449            0     -1152449 -3.1961768e-05 -3.2259577e-05 -1.5889164e-05 
Loop time of 1.99474 on 104 procs for 170 steps with 288751 atoms

99.9% CPU use with 104 MPI tasks x 1 OpenMP threads

Minimization stats:
  Stopping criterion = energy tolerance
  Energy initial, next-to-last, final = 
     -1152448.98244371   -1152448.9837839   -1152448.9837839
  Force two-norm initial, final = 0.16906644 0.00024184496
  Force max component initial, final = 0.10236935 4.7592437e-05
  Final line search alpha, max atom move = 1.0000000 4.7592437e-05
  Iterations, force evaluations = 170 340

MPI task timing breakdown:
Section |  min time  |  avg time  |  max time  |%varavg| %total
---------------------------------------------------------------
Pair    | 0.5116     | 1.4305     | 1.8675     |  32.3 | 71.71
Neigh   | 0          | 0          | 0          |   0.0 |  0.00
Comm    | 0.036253   | 0.32536    | 0.96487    |  47.3 | 16.31
Output  | 0          | 0          | 0          |   0.0 |  0.00
Modify  | 2.0203e-05 | 0.0028277  | 0.0059818  |   2.5 |  0.14
Other   |            | 0.2361     |            |       | 11.84

Nlocal:        2776.45 ave        3930 max           0 min
Histogram: 8 4 4 0 4 12 8 0 26 38
Nghost:        3879.15 ave        5425 max         232 min
Histogram: 8 0 8 0 16 0 8 8 16 40
Neighs:        79213.3 ave      114489 max           0 min
Histogram: 8 4 4 0 8 8 8 8 20 36

Total # of neighbors = 8238187
Ave neighs/atom = 28.530419
Neighbor list builds = 0
Dangerous builds = 0
The dot product: -2.78273489757045e-08
Setting atom values ...
  1 settings made for x
  1 settings made for y
  1 settings made for z
Setting up cg style minimization ...
  Unit style    : metal
  Current step  : 21797
Per MPI rank memory allocation (min/avg/max) = 5.441 | 5.816 | 6.074 Mbytes
Step PotEng KinEng TotEng v_fx v_fy v_fz 
   21797     -1152449            0     -1152449 -0.007517793 0.0078320281  0.014330725 
   22000     -1152449            0     -1152449 -1.2355487e-05 -4.1705601e-07 7.9774826e-06 
   22017     -1152449            0     -1152449 5.1098988e-06 1.2215325e-06 -2.0697592e-06 
Loop time of 2.58403 on 104 procs for 220 steps with 288751 atoms

99.9% CPU use with 104 MPI tasks x 1 OpenMP threads

Minimization stats:
  Stopping criterion = energy tolerance
  Energy initial, next-to-last, final = 
     -1152449.01102542  -1152449.01236566  -1152449.01236566
  Force two-norm initial, final = 0.16865461 3.7765531e-05
  Force max component initial, final = 0.10150924 5.8069098e-06
  Final line search alpha, max atom move = 1.0000000 5.8069098e-06
  Iterations, force evaluations = 220 440

MPI task timing breakdown:
Section |  min time  |  avg time  |  max time  |%varavg| %total
---------------------------------------------------------------
Pair    | 0.68749    | 1.8651     | 2.405      |  36.4 | 72.18
Neigh   | 0          | 0          | 0          |   0.0 |  0.00
Comm    | 0.049331   | 0.43175    | 1.3186     |  53.5 | 16.71
Output  | 0.00025516 | 0.00026371 | 0.00048474 |   0.0 |  0.01
Modify  | 2.6877e-05 | 0.0036448  | 0.0077188  |   2.8 |  0.14
Other   |            | 0.2832     |            |       | 10.96

Nlocal:        2776.45 ave        3931 max           0 min
Histogram: 8 4 4 0 4 12 8 0 26 38
Nghost:        3879.18 ave        5425 max         232 min
Histogram: 8 0 8 0 16 0 8 8 16 40
Neighs:        79213.4 ave      114538 max           0 min
Histogram: 8 4 4 0 8 8 8 8 20 36

Total # of neighbors = 8238189
Ave neighs/atom = 28.530426
Neighbor list builds = 0
Dangerous builds = 0
The dot product: -6.37869675529617e-11
Setting up cg style minimization ...
  Unit style    : metal
  Current step  : 22017
Per MPI rank memory allocation (min/avg/max) = 5.441 | 5.816 | 6.074 Mbytes
Step PotEng KinEng TotEng v_fx v_fy v_fz 
   22017     -1152449            0     -1152449  -0.56423666   0.96509584  -0.82344271 
   22275   -1152449.3            0   -1152449.3 3.7626269e-05 2.3357372e-06 -2.9066781e-05 
Loop time of 2.99379 on 104 procs for 258 steps with 288751 atoms

99.9% CPU use with 104 MPI tasks x 1 OpenMP threads

Minimization stats:
  Stopping criterion = energy tolerance
  Energy initial, next-to-last, final = 
     -1152449.01236566  -1152449.26566397  -1152449.26566397
  Force two-norm initial, final = 1.3884635 0.00014552374
  Force max component initial, final = 0.96509584 3.7626269e-05
  Final line search alpha, max atom move = 1.0000000 3.7626269e-05
  Iterations, force evaluations = 258 516

MPI task timing breakdown:
Section |  min time  |  avg time  |  max time  |%varavg| %total
---------------------------------------------------------------
Pair    | 0.77597    | 2.1674     | 2.8164     |  39.8 | 72.40
Neigh   | 1.0245e-05 | 0.00294    | 0.0043056  |   2.2 |  0.10
Comm    | 0.04794    | 0.49311    | 1.4838     |  58.4 | 16.47
Output  | 0          | 0          | 0          |   0.0 |  0.00
Modify  | 2.8927e-05 | 0.0027852  | 0.0070809  |   3.3 |  0.09
Other   |            | 0.3275     |            |       | 10.94

Nlocal:        2776.45 ave        3931 max           0 min
Histogram: 8 4 4 0 4 12 8 0 26 38
Nghost:        3879.18 ave        5425 max         232 min
Histogram: 8 0 8 0 16 0 8 8 16 40
Neighs:        79213.4 ave      114539 max           0 min
Histogram: 8 4 4 0 8 8 8 8 20 36

Total # of neighbors = 8238191
Ave neighs/atom = 28.530433
Neighbor list builds = 1
Dangerous builds = 0
