LAMMPS (29 Oct 2020)
OMP_NUM_THREADS environment is not set. Defaulting to 1 thread. (../comm.cpp:94)
  using 1 OpenMP thread(s) per MPI task
Reading data file ...
  orthogonal box = (-122.39241 -121.13707 -37.090501) to (122.39241 121.13707 37.090501)
  13 by 4 by 1 MPI processor grid
  reading atoms ...
  288751 atoms
  read_data CPU = 0.445 seconds
199981 atoms in group inner
88770 atoms in group outer
1 atoms in group carbon
Neighbor list info ...
  update every 1 steps, delay 0 steps, check yes
  max neighbors/atom: 2000, page size: 100000
  master list distance cutoff = 5.6
  ghost atom cutoff = 5.6
  binsize = 2.8, bins = 88 87 27
  1 neighbor lists, perpetual/occasional/extra = 1 0 0
  (1) pair eam/alloy, perpetual
      attributes: half, newton on
      pair build: half/bin/atomonly/newton
      stencil: half/bin/3d/newton
      bin: standard
Setting up cg style minimization ...
  Unit style    : metal
  Current step  : 0
Per MPI rank memory allocation (min/avg/max) = 5.465 | 6.344 | 6.728 Mbytes
Step v_fx v_fy v_fz PotEng KinEng TotEng 
       0    26.318182  -0.81656845   -7.8872645   -1152441.8            0   -1152441.8 
     274 1.3427081e-05 -2.4488807e-06 -1.2121126e-05     -1152449            0     -1152449 
Loop time of 6.07275 on 52 procs for 274 steps with 288751 atoms

99.9% CPU use with 52 MPI tasks x 1 OpenMP threads

Minimization stats:
  Stopping criterion = linesearch alpha is zero
  Energy initial, next-to-last, final = 
     -1152441.83918442    -1152448.972189    -1152448.972189
  Force two-norm initial, final = 45.061962 9.5269440e-05
  Force max component initial, final = 33.929170 2.6034736e-05
  Final line search alpha, max atom move = 0.5 1.3017368e-05
  Iterations, force evaluations = 274 545

MPI task timing breakdown:
Section |  min time  |  avg time  |  max time  |%varavg| %total
---------------------------------------------------------------
Pair    | 1.6322     | 4.3855     | 5.7169     |  56.7 | 72.22
Neigh   | 0.00017354 | 0.05436    | 0.082411   |   9.9 |  0.90
Comm    | 0.089326   | 0.97177    | 3.071      |  88.1 | 16.00
Output  | 0          | 0          | 0          |   0.0 |  0.00
Modify  | 7.9308e-05 | 0.0059948  | 0.015423   |   4.8 |  0.10
Other   |            | 0.6552     |            |       | 10.79

Nlocal:        5552.90 ave        7902 max           0 min
Histogram: 4 2 2 0 2 6 4 0 15 17
Nghost:        6213.65 ave        8769 max         412 min
Histogram: 4 0 4 0 8 0 4 5 7 20
Neighs:       158427.0 ave      230297 max           0 min
Histogram: 4 2 2 0 5 3 4 4 12 16

Total # of neighbors = 8238211
Ave neighs/atom = 28.530502
Neighbor list builds = 9
Dangerous builds = 0
3.51 -0.01 -24.97 3.40235389263071 -0.0107010649987008 -25.2432199353331
Total wall time: 0:00:06
