LAMMPS (29 Oct 2020)
OMP_NUM_THREADS environment is not set. Defaulting to 1 thread. (../comm.cpp:94)
  using 1 OpenMP thread(s) per MPI task
OMP_NUM_THREADS environment is not set. Defaulting to 1 thread. (../comm.cpp:94)
  using 1 OpenMP thread(s) per MPI task
Reading data file ...
  orthogonal box = (-122.39241 -121.13707 -37.090501) to (122.39241 121.13707 37.090501)
  13 by 4 by 1 MPI processor grid
  reading atoms ...
  288751 atoms
  read_data CPU = 0.432 seconds
199981 atoms in group inner
88770 atoms in group outer
1 atoms in group carbon
Neighbor list info ...
  update every 1 steps, delay 0 steps, check yes
  max neighbors/atom: 2000, page size: 100000
  master list distance cutoff = 5.6
  ghost atom cutoff = 5.6
  binsize = 2.8, bins = 88 87 27
  1 neighbor lists, perpetual/occasional/extra = 1 0 0
  (1) pair eam/alloy, perpetual
      attributes: half, newton on
      pair build: half/bin/atomonly/newton
      stencil: half/bin/3d/newton
      bin: standard
Setting up cg style minimization ...
  Unit style    : metal
  Current step  : 0
Per MPI rank memory allocation (min/avg/max) = 5.465 | 6.344 | 6.728 Mbytes
Step v_fx v_fy v_fz PotEng KinEng TotEng 
       0    0.3224723  -0.48422844  -0.49269377   -1152447.8            0   -1152447.8 
     148 3.2995078e-05 -1.9668413e-06 8.6222349e-06   -1152449.5            0   -1152449.5 
Loop time of 3.32395 on 52 procs for 148 steps with 288751 atoms

99.8% CPU use with 52 MPI tasks x 1 OpenMP threads

Minimization stats:
  Stopping criterion = energy tolerance
  Energy initial, next-to-last, final = 
     -1152447.84698335  -1152449.45035281  -1152449.45035281
  Force two-norm initial, final = 9.7882989 0.00020892393
  Force max component initial, final = 5.2457620 3.2995078e-05
  Final line search alpha, max atom move = 1.0000000 3.2995078e-05
  Iterations, force evaluations = 148 295

MPI task timing breakdown:
Section |  min time  |  avg time  |  max time  |%varavg| %total
---------------------------------------------------------------
Pair    | 0.85955    | 2.3741     | 3.1082     |  42.1 | 71.43
Neigh   | 7.0116e-05 | 0.012854   | 0.020314   |   4.9 |  0.39
Comm    | 0.053389   | 0.53856    | 1.7084     |  64.5 | 16.20
Output  | 0          | 0          | 0          |   0.0 |  0.00
Modify  | 4.248e-05  | 0.00329    | 0.0082302  |   3.5 |  0.10
Other   |            | 0.3951     |            |       | 11.89

Nlocal:        5552.90 ave        7909 max           0 min
Histogram: 4 2 2 0 2 6 4 0 15 17
Nghost:        6213.54 ave        8769 max         412 min
Histogram: 4 0 4 0 8 0 4 5 7 20
Neighs:       158427.0 ave      230538 max           0 min
Histogram: 4 2 2 0 5 3 4 4 12 16

Total # of neighbors = 8238222
Ave neighs/atom = 28.530540
Neighbor list builds = 2
Dangerous builds = 0
Setting atom values ...
  1 settings made for x
  1 settings made for y
  1 settings made for z
Setting up cg style minimization ...
  Unit style    : metal
  Current step  : 148
Per MPI rank memory allocation (min/avg/max) = 5.465 | 6.344 | 6.728 Mbytes
Step PotEng KinEng TotEng v_fx v_fy v_fz 
     148   -1152449.4            0   -1152449.4 0.00027113873 -0.0096987924 -0.008723543 
     294   -1152449.5            0   -1152449.5 1.3091928e-05 -8.2502236e-06 -2.7659931e-05 
Loop time of 3.2506 on 52 procs for 146 steps with 288751 atoms

99.8% CPU use with 52 MPI tasks x 1 OpenMP threads

Minimization stats:
  Stopping criterion = energy tolerance
  Energy initial, next-to-last, final = 
     -1152449.44959044  -1152449.45008247  -1152449.45008247
  Force two-norm initial, final = 0.10176901 0.00021214657
  Force max component initial, final = 0.051576651 2.7659931e-05
  Final line search alpha, max atom move = 1.0000000 2.7659931e-05
  Iterations, force evaluations = 146 292

MPI task timing breakdown:
Section |  min time  |  avg time  |  max time  |%varavg| %total
---------------------------------------------------------------
Pair    | 0.83826    | 2.335      | 3.0506     |  41.9 | 71.83
Neigh   | 0          | 0          | 0          |   0.0 |  0.00
Comm    | 0.046583   | 0.52265    | 1.6557     |  64.6 | 16.08
Output  | 0          | 0          | 0          |   0.0 |  0.00
Modify  | 5.7251e-05 | 0.0049243  | 0.010458   |   3.2 |  0.15
Other   |            | 0.388      |            |       | 11.94

Nlocal:        5552.90 ave        7913 max           0 min
Histogram: 4 2 2 0 2 6 4 1 14 17
Nghost:        6213.54 ave        8769 max         412 min
Histogram: 4 0 4 0 8 0 4 5 7 20
Neighs:       158427.0 ave      230665 max           0 min
Histogram: 4 2 2 0 5 3 4 4 12 16

Total # of neighbors = 8238197
Ave neighs/atom = 28.530454
Neighbor list builds = 0
Dangerous builds = 0
Setting atom values ...
  1 settings made for x
  1 settings made for y
  1 settings made for z
Setting up cg style minimization ...
  Unit style    : metal
  Current step  : 294
Per MPI rank memory allocation (min/avg/max) = 5.465 | 6.344 | 6.728 Mbytes
Step PotEng KinEng TotEng v_fx v_fy v_fz 
     294   -1152449.4            0   -1152449.4 -0.00051112188 -0.020430414 -0.018585719 
     469   -1152449.4            0   -1152449.4 3.0304247e-05 -7.3841499e-07 -5.6213596e-05 
Loop time of 3.92443 on 52 procs for 175 steps with 288751 atoms

99.8% CPU use with 52 MPI tasks x 1 OpenMP threads

Minimization stats:
  Stopping criterion = linesearch alpha is zero
  Energy initial, next-to-last, final = 
     -1152449.44665126  -1152449.44825768  -1152449.44825768
  Force two-norm initial, final = 0.18518195 0.00021851382
  Force max component initial, final = 0.093865315 5.6213596e-05
  Final line search alpha, max atom move = 0.25 1.4053399e-05
  Iterations, force evaluations = 175 353

MPI task timing breakdown:
Section |  min time  |  avg time  |  max time  |%varavg| %total
---------------------------------------------------------------
Pair    | 1.0015     | 2.8082     | 3.6839     |  46.2 | 71.56
Neigh   | 0          | 0          | 0          |   0.0 |  0.00
Comm    | 0.056223   | 0.6316     | 1.9973     |  70.7 | 16.09
Output  | 0          | 0          | 0          |   0.0 |  0.00
Modify  | 6.5144e-05 | 0.0059311  | 0.012579   |   3.6 |  0.15
Other   |            | 0.4787     |            |       | 12.20

Nlocal:        5552.90 ave        7913 max           0 min
Histogram: 4 2 2 0 2 6 4 1 14 17
Nghost:        6213.54 ave        8769 max         412 min
Histogram: 4 0 4 0 8 0 4 5 7 20
Neighs:       158427.0 ave      230672 max           0 min
Histogram: 4 2 2 0 5 3 4 4 12 16

Total # of neighbors = 8238198
Ave neighs/atom = 28.530457
Neighbor list builds = 0
Dangerous builds = 0
The dot product: 1.17892189814339e-07
Setting atom values ...
  1 settings made for x
  1 settings made for y
  1 settings made for z
Setting up cg style minimization ...
  Unit style    : metal
  Current step  : 469
Per MPI rank memory allocation (min/avg/max) = 5.465 | 6.344 | 6.728 Mbytes
Step PotEng KinEng TotEng v_fx v_fy v_fz 
     469   -1152449.4            0   -1152449.4 -0.0022743016  -0.02659312 -0.024877245 
     578   -1152449.4            0   -1152449.4 -1.9404635e-05 2.7003193e-06 4.4868234e-05 
Loop time of 2.43549 on 52 procs for 109 steps with 288751 atoms

99.9% CPU use with 52 MPI tasks x 1 OpenMP threads

Minimization stats:
  Stopping criterion = energy tolerance
  Energy initial, next-to-last, final = 
     -1152449.44328204  -1152449.44489489  -1152449.44489489
  Force two-norm initial, final = 0.18665156 0.00035228622
  Force max component initial, final = 0.092377425 6.9742562e-05
  Final line search alpha, max atom move = 1.0000000 6.9742562e-05
  Iterations, force evaluations = 109 218

MPI task timing breakdown:
Section |  min time  |  avg time  |  max time  |%varavg| %total
---------------------------------------------------------------
Pair    | 0.62965    | 1.7495     | 2.2881     |  36.3 | 71.83
Neigh   | 0          | 0          | 0          |   0.0 |  0.00
Comm    | 0.035414   | 0.39216    | 1.2476     |  55.9 | 16.10
Output  | 0          | 0          | 0          |   0.0 |  0.00
Modify  | 4.1761e-05 | 0.0036965  | 0.0079153  |   2.8 |  0.15
Other   |            | 0.2902     |            |       | 11.91

Nlocal:        5552.90 ave        7912 max           0 min
Histogram: 4 2 2 0 2 6 4 0 15 17
Nghost:        6213.54 ave        8769 max         412 min
Histogram: 4 0 4 0 8 0 4 5 7 20
Neighs:       158427.0 ave      230645 max           0 min
Histogram: 4 2 2 0 5 3 4 4 12 16

Total # of neighbors = 8238196
Ave neighs/atom = 28.530450
Neighbor list builds = 0
Dangerous builds = 0
The dot product: -1.61554172721883e-07
Setting atom values ...
  1 settings made for x
  1 settings made for y
  1 settings made for z
Setting up cg style minimization ...
  Unit style    : metal
  Current step  : 578
Per MPI rank memory allocation (min/avg/max) = 5.465 | 6.344 | 6.728 Mbytes
Step PotEng KinEng TotEng v_fx v_fy v_fz 
     578   -1152449.4            0   -1152449.4 -0.0069316317  -0.03156482 -0.026816067 
     698   -1152449.4            0   -1152449.4 2.6650543e-05 -3.1745101e-06 -7.4510836e-05 
Loop time of 2.66048 on 52 procs for 120 steps with 288751 atoms

99.9% CPU use with 52 MPI tasks x 1 OpenMP threads

Minimization stats:
  Stopping criterion = energy tolerance
  Energy initial, next-to-last, final = 
     -1152449.43858328   -1152449.4402061   -1152449.4402061
  Force two-norm initial, final = 0.18710241 0.00024739321
  Force max component initial, final = 0.088867335 7.4510836e-05
  Final line search alpha, max atom move = 1.0000000 7.4510836e-05
  Iterations, force evaluations = 120 240

MPI task timing breakdown:
Section |  min time  |  avg time  |  max time  |%varavg| %total
---------------------------------------------------------------
Pair    | 0.6732     | 1.9147     | 2.505      |  38.3 | 71.97
Neigh   | 0          | 0          | 0          |   0.0 |  0.00
Comm    | 0.04018    | 0.42912    | 1.3682     |  58.8 | 16.13
Output  | 0          | 0          | 0          |   0.0 |  0.00
Modify  | 4.7027e-05 | 0.0040199  | 0.0085228  |   2.9 |  0.15
Other   |            | 0.3126     |            |       | 11.75

Nlocal:        5552.90 ave        7911 max           0 min
Histogram: 4 2 2 0 2 6 4 0 15 17
Nghost:        6213.54 ave        8769 max         412 min
Histogram: 4 0 4 0 8 0 4 5 7 20
Neighs:       158427.0 ave      230607 max           0 min
Histogram: 4 2 2 0 5 3 4 4 12 16

Total # of neighbors = 8238195
Ave neighs/atom = 28.530447
Neighbor list builds = 0
Dangerous builds = 0
The dot product: 3.04778589390899e-07
Setting atom values ...
  1 settings made for x
  1 settings made for y
  1 settings made for z
Setting up cg style minimization ...
  Unit style    : metal
  Current step  : 698
Per MPI rank memory allocation (min/avg/max) = 5.465 | 6.344 | 6.728 Mbytes
Step PotEng KinEng TotEng v_fx v_fy v_fz 
     698   -1152449.4            0   -1152449.4  -0.01127755  -0.03239539 -0.023727045 
     848   -1152449.4            0   -1152449.4 1.2969028e-05 2.4755086e-06 -3.6782474e-05 
Loop time of 3.34694 on 52 procs for 150 steps with 288751 atoms

99.9% CPU use with 52 MPI tasks x 1 OpenMP threads

Minimization stats:
  Stopping criterion = energy tolerance
  Energy initial, next-to-last, final = 
     -1152449.43258102  -1152449.43418187  -1152449.43418187
  Force two-norm initial, final = 0.18572277 0.000108592
  Force max component initial, final = 0.084873182 3.6782474e-05
  Final line search alpha, max atom move = 1.0000000 3.6782474e-05
  Iterations, force evaluations = 150 300

MPI task timing breakdown:
Section |  min time  |  avg time  |  max time  |%varavg| %total
---------------------------------------------------------------
Pair    | 0.86034    | 2.3957     | 3.1489     |  42.6 | 71.58
Neigh   | 0          | 0          | 0          |   0.0 |  0.00
Comm    | 0.047592   | 0.53627    | 1.6941     |  65.3 | 16.02
Output  | 0          | 0          | 0          |   0.0 |  0.00
Modify  | 5.7544e-05 | 0.0050664  | 0.010801   |   3.3 |  0.15
Other   |            | 0.4099     |            |       | 12.25

Nlocal:        5552.90 ave        7909 max           0 min
Histogram: 4 2 2 0 2 6 4 0 15 17
Nghost:        6213.54 ave        8769 max         412 min
Histogram: 4 0 4 0 8 0 4 5 7 20
Neighs:       158427.0 ave      230537 max           0 min
Histogram: 4 2 2 0 5 3 4 4 12 16

Total # of neighbors = 8238197
Ave neighs/atom = 28.530454
Neighbor list builds = 0
Dangerous builds = 0
The dot product: 1.25486720473257e-07
Setting atom values ...
  1 settings made for x
  1 settings made for y
  1 settings made for z
Setting up cg style minimization ...
  Unit style    : metal
  Current step  : 848
Per MPI rank memory allocation (min/avg/max) = 5.465 | 6.344 | 6.728 Mbytes
Step PotEng KinEng TotEng v_fx v_fy v_fz 
     848   -1152449.4            0   -1152449.4 -0.013820728 -0.030674086 -0.018309465 
     961   -1152449.4            0   -1152449.4 -1.2577449e-05  4.91289e-06 5.8383223e-05 
Loop time of 2.50175 on 52 procs for 113 steps with 288751 atoms

99.9% CPU use with 52 MPI tasks x 1 OpenMP threads

Minimization stats:
  Stopping criterion = energy tolerance
  Energy initial, next-to-last, final = 
     -1152449.42520885  -1152449.42677692  -1152449.42677692
  Force two-norm initial, final = 0.1836685 0.00019862781
  Force max component initial, final = 0.081424557 5.8383223e-05
  Final line search alpha, max atom move = 1.0000000 5.8383223e-05
  Iterations, force evaluations = 113 226

MPI task timing breakdown:
Section |  min time  |  avg time  |  max time  |%varavg| %total
---------------------------------------------------------------
Pair    | 0.63295    | 1.8012     | 2.3613     |  37.2 | 72.00
Neigh   | 0          | 0          | 0          |   0.0 |  0.00
Comm    | 0.034929   | 0.40396    | 1.2833     |  57.0 | 16.15
Output  | 0          | 0          | 0          |   0.0 |  0.00
Modify  | 4.1286e-05 | 0.0037873  | 0.0080756  |   2.8 |  0.15
Other   |            | 0.2928     |            |       | 11.71

Nlocal:        5552.90 ave        7907 max           0 min
Histogram: 4 2 2 0 2 6 4 0 15 17
Nghost:        6213.54 ave        8769 max         412 min
Histogram: 4 0 4 0 8 0 4 5 7 20
Neighs:       158427.0 ave      230466 max           0 min
Histogram: 4 2 2 0 5 3 4 4 12 16

Total # of neighbors = 8238198
Ave neighs/atom = 28.530457
Neighbor list builds = 0
Dangerous builds = 0
The dot product: -1.73468209260943e-07
Setting atom values ...
  1 settings made for x
  1 settings made for y
  1 settings made for z
Setting up cg style minimization ...
  Unit style    : metal
  Current step  : 961
Per MPI rank memory allocation (min/avg/max) = 5.465 | 6.344 | 6.728 Mbytes
Step PotEng KinEng TotEng v_fx v_fy v_fz 
     961   -1152449.4            0   -1152449.4 -0.014513093 -0.027654583 -0.012649343 
    1000   -1152449.4            0   -1152449.4 -2.2325154e-05 -3.6757706e-05 -3.9833583e-06 
    1081   -1152449.4            0   -1152449.4 3.1472625e-06 -4.8637013e-06 -2.6320993e-05 
Loop time of 2.67917 on 52 procs for 120 steps with 288751 atoms

99.8% CPU use with 52 MPI tasks x 1 OpenMP threads

Minimization stats:
  Stopping criterion = energy tolerance
  Energy initial, next-to-last, final = 
     -1152449.41641592    -1152449.417953    -1152449.417953
  Force two-norm initial, final = 0.18159073 0.00014554101
  Force max component initial, final = 0.078980625 2.6320993e-05
  Final line search alpha, max atom move = 1.0000000 2.6320993e-05
  Iterations, force evaluations = 120 240

MPI task timing breakdown:
Section |  min time  |  avg time  |  max time  |%varavg| %total
---------------------------------------------------------------
Pair    | 0.69354    | 1.9228     | 2.5129     |  38.0 | 71.77
Neigh   | 0          | 0          | 0          |   0.0 |  0.00
Comm    | 0.039467   | 0.42965    | 1.3607     |  58.6 | 16.04
Output  | 0.00039064 | 0.00039494 | 0.00053536 |   0.0 |  0.01
Modify  | 4.5837e-05 | 0.0040688  | 0.0086994  |   3.0 |  0.15
Other   |            | 0.3223     |            |       | 12.03

Nlocal:        5552.90 ave        7906 max           0 min
Histogram: 4 2 2 0 2 6 4 0 15 17
Nghost:        6213.54 ave        8769 max         412 min
Histogram: 4 0 4 0 8 0 4 5 7 20
Neighs:       158427.0 ave      230430 max           0 min
Histogram: 4 2 2 0 5 3 4 4 12 16

Total # of neighbors = 8238199
Ave neighs/atom = 28.530461
Neighbor list builds = 0
Dangerous builds = 0
The dot product: 5.61784316884488e-08
Setting atom values ...
  1 settings made for x
  1 settings made for y
  1 settings made for z
Setting up cg style minimization ...
  Unit style    : metal
  Current step  : 1081
Per MPI rank memory allocation (min/avg/max) = 5.465 | 6.344 | 6.728 Mbytes
Step PotEng KinEng TotEng v_fx v_fy v_fz 
    1081   -1152449.4            0   -1152449.4 -0.013560394  -0.02360195 -0.0076285454 
    1188   -1152449.4            0   -1152449.4 -8.7869933e-06 4.4309517e-06 5.3134193e-05 
Loop time of 2.38435 on 52 procs for 107 steps with 288751 atoms

99.9% CPU use with 52 MPI tasks x 1 OpenMP threads

Minimization stats:
  Stopping criterion = energy tolerance
  Energy initial, next-to-last, final = 
     -1152449.40616924  -1152449.40768871  -1152449.40768871
  Force two-norm initial, final = 0.17971399 0.00024003871
  Force max component initial, final = 0.077733303 5.3134193e-05
  Final line search alpha, max atom move = 1.0000000 5.3134193e-05
  Iterations, force evaluations = 107 214

MPI task timing breakdown:
Section |  min time  |  avg time  |  max time  |%varavg| %total
---------------------------------------------------------------
Pair    | 0.5994     | 1.7057     | 2.2334     |  36.2 | 71.54
Neigh   | 0          | 0          | 0          |   0.0 |  0.00
Comm    | 0.033069   | 0.38335    | 1.2162     |  55.3 | 16.08
Output  | 0          | 0          | 0          |   0.0 |  0.00
Modify  | 4.0062e-05 | 0.0035823  | 0.0075908  |   2.8 |  0.15
Other   |            | 0.2917     |            |       | 12.23

Nlocal:        5552.90 ave        7904 max           0 min
Histogram: 4 2 2 0 2 6 4 0 15 17
Nghost:        6213.54 ave        8769 max         412 min
Histogram: 4 0 4 0 8 0 4 5 7 20
Neighs:       158427.0 ave      230352 max           0 min
Histogram: 4 2 2 0 5 3 4 4 12 16

Total # of neighbors = 8238202
Ave neighs/atom = 28.530471
Neighbor list builds = 0
Dangerous builds = 0
The dot product: -5.15951730932721e-08
Setting atom values ...
  1 settings made for x
  1 settings made for y
  1 settings made for z
Setting up cg style minimization ...
  Unit style    : metal
  Current step  : 1188
Per MPI rank memory allocation (min/avg/max) = 5.465 | 6.344 | 6.728 Mbytes
Step PotEng KinEng TotEng v_fx v_fy v_fz 
    1188   -1152449.4            0   -1152449.4 -0.010717914 -0.017576036 -0.0028661138 
    1292   -1152449.4            0   -1152449.4 2.0074026e-05 1.0759728e-05 -6.2178088e-05 
Loop time of 2.32995 on 52 procs for 104 steps with 288751 atoms

99.8% CPU use with 52 MPI tasks x 1 OpenMP threads

Minimization stats:
  Stopping criterion = energy tolerance
  Energy initial, next-to-last, final = 
     -1152449.39446889  -1152449.39599991  -1152449.39599991
  Force two-norm initial, final = 0.17805677 0.00028358509
  Force max component initial, final = 0.077605621 6.2178088e-05
  Final line search alpha, max atom move = 1.0000000 6.2178088e-05
  Iterations, force evaluations = 104 208

MPI task timing breakdown:
Section |  min time  |  avg time  |  max time  |%varavg| %total
---------------------------------------------------------------
Pair    | 0.59691    | 1.6665     | 2.1758     |  35.5 | 71.52
Neigh   | 0          | 0          | 0          |   0.0 |  0.00
Comm    | 0.035459   | 0.37713    | 1.1933     |  54.5 | 16.19
Output  | 0          | 0          | 0          |   0.0 |  0.00
Modify  | 4.1093e-05 | 0.0035178  | 0.0074656  |   2.7 |  0.15
Other   |            | 0.2828     |            |       | 12.14

Nlocal:        5552.90 ave        7902 max           0 min
Histogram: 4 2 2 0 2 6 4 0 15 17
Nghost:        6213.54 ave        8769 max         412 min
Histogram: 4 0 4 0 8 0 4 5 7 20
Neighs:       158427.0 ave      230289 max           0 min
Histogram: 4 2 2 0 5 3 4 4 12 16

Total # of neighbors = 8238203
Ave neighs/atom = 28.530474
Neighbor list builds = 0
Dangerous builds = 0
The dot product: 2.91812479891654e-08
Setting atom values ...
  1 settings made for x
  1 settings made for y
  1 settings made for z
Setting up cg style minimization ...
  Unit style    : metal
  Current step  : 1292
Per MPI rank memory allocation (min/avg/max) = 5.465 | 6.344 | 6.728 Mbytes
Step PotEng KinEng TotEng v_fx v_fy v_fz 
    1292   -1152449.4            0   -1152449.4 -0.006132979 -0.0091374856 0.0020424468 
    1399   -1152449.4            0   -1152449.4 5.9564242e-06 -3.4922825e-06 -3.8444537e-05 
Loop time of 2.36586 on 52 procs for 107 steps with 288751 atoms

99.9% CPU use with 52 MPI tasks x 1 OpenMP threads

Minimization stats:
  Stopping criterion = energy tolerance
  Energy initial, next-to-last, final = 
     -1152449.38136323  -1152449.38295924  -1152449.38295924
  Force two-norm initial, final = 0.17690671 0.00032696239
  Force max component initial, final = 0.078909648 7.9983123e-05
  Final line search alpha, max atom move = 1.0000000 7.9983123e-05
  Iterations, force evaluations = 107 214

MPI task timing breakdown:
Section |  min time  |  avg time  |  max time  |%varavg| %total
---------------------------------------------------------------
Pair    | 0.61507    | 1.7089     | 2.2329     |  35.8 | 72.23
Neigh   | 0          | 0          | 0          |   0.0 |  0.00
Comm    | 0.033931   | 0.37955    | 1.2146     |  55.5 | 16.04
Output  | 0          | 0          | 0          |   0.0 |  0.00
Modify  | 4.3642e-05 | 0.003607   | 0.007601   |   2.8 |  0.15
Other   |            | 0.2738     |            |       | 11.57

Nlocal:        5552.90 ave        7896 max           0 min
Histogram: 4 2 2 0 2 6 4 0 14 18
Nghost:        6213.50 ave        8769 max         412 min
Histogram: 4 0 4 0 8 0 4 5 7 20
Neighs:       158427.0 ave      230062 max           0 min
Histogram: 4 2 2 0 5 3 4 4 12 16

Total # of neighbors = 8238203
Ave neighs/atom = 28.530474
Neighbor list builds = 0
Dangerous builds = 0
The dot product: -9.07132522805238e-08
Setting atom values ...
  1 settings made for x
  1 settings made for y
  1 settings made for z
Setting up cg style minimization ...
  Unit style    : metal
  Current step  : 1399
Per MPI rank memory allocation (min/avg/max) = 5.465 | 6.344 | 6.728 Mbytes
Step PotEng KinEng TotEng v_fx v_fy v_fz 
    1399   -1152449.4            0   -1152449.4 -0.00033380128 0.0030095753 0.0093856418 
    1552   -1152449.4            0   -1152449.4 -2.6672077e-05 -6.8690762e-06 0.00010195325 
Loop time of 3.39423 on 52 procs for 153 steps with 288751 atoms

99.8% CPU use with 52 MPI tasks x 1 OpenMP threads

Minimization stats:
  Stopping criterion = energy tolerance
  Energy initial, next-to-last, final = 
     -1152449.36698029  -1152449.36886139  -1152449.36886139
  Force two-norm initial, final = 0.17675702 0.00030890516
  Force max component initial, final = 0.08171673 0.00010195325
  Final line search alpha, max atom move = 1.0000000 0.00010195325
  Iterations, force evaluations = 153 306

MPI task timing breakdown:
Section |  min time  |  avg time  |  max time  |%varavg| %total
---------------------------------------------------------------
Pair    | 0.86429    | 2.4379     | 3.1926     |  43.1 | 71.82
Neigh   | 0          | 0          | 0          |   0.0 |  0.00
Comm    | 0.051302   | 0.54801    | 1.7441     |  66.1 | 16.15
Output  | 0          | 0          | 0          |   0.0 |  0.00
Modify  | 5.8929e-05 | 0.0051324  | 0.010915   |   3.3 |  0.15
Other   |            | 0.4032     |            |       | 11.88

Nlocal:        5552.90 ave        7894 max           0 min
Histogram: 4 2 2 0 2 6 4 0 14 18
Nghost:        6213.50 ave        8769 max         412 min
Histogram: 4 0 4 0 8 0 4 5 7 20
Neighs:       158427.0 ave      230011 max           0 min
Histogram: 4 2 2 0 5 3 4 4 12 16

Total # of neighbors = 8238205
Ave neighs/atom = 28.530481
Neighbor list builds = 0
Dangerous builds = 0
The dot product: 5.0728858749752e-07
Setting atom values ...
  1 settings made for x
  1 settings made for y
  1 settings made for z
Setting up cg style minimization ...
  Unit style    : metal
  Current step  : 1552
Per MPI rank memory allocation (min/avg/max) = 5.465 | 6.344 | 6.728 Mbytes
Step PotEng KinEng TotEng v_fx v_fy v_fz 
    1552   -1152449.4            0   -1152449.4 0.0056014547  0.022525791  0.023710214 
    1701   -1152449.4            0   -1152449.4 -1.6924763e-05 4.2422652e-07 6.7516125e-05 
Loop time of 3.29192 on 52 procs for 149 steps with 288751 atoms

99.9% CPU use with 52 MPI tasks x 1 OpenMP threads

Minimization stats:
  Stopping criterion = energy tolerance
  Energy initial, next-to-last, final = 
     -1152449.35178873  -1152449.35391316  -1152449.35391316
  Force two-norm initial, final = 0.17934876 0.0003741371
  Force max component initial, final = 0.086836189 6.7516125e-05
  Final line search alpha, max atom move = 1.0000000 6.7516125e-05
  Iterations, force evaluations = 149 298

MPI task timing breakdown:
Section |  min time  |  avg time  |  max time  |%varavg| %total
---------------------------------------------------------------
Pair    | 0.83609    | 2.3755     | 3.1067     |  42.7 | 72.16
Neigh   | 0          | 0          | 0          |   0.0 |  0.00
Comm    | 0.046672   | 0.53139    | 1.695      |  65.7 | 16.14
Output  | 0          | 0          | 0          |   0.0 |  0.00
Modify  | 5.9542e-05 | 0.0049837  | 0.010596   |   3.3 |  0.15
Other   |            | 0.3801     |            |       | 11.55

Nlocal:        5552.90 ave        7894 max           0 min
Histogram: 4 2 2 0 2 6 4 0 14 18
Nghost:        6213.52 ave        8769 max         412 min
Histogram: 4 0 4 0 8 0 4 5 7 20
Neighs:       158427.0 ave      230011 max           0 min
Histogram: 4 2 2 0 5 3 4 4 12 16

Total # of neighbors = 8238204
Ave neighs/atom = 28.530478
Neighbor list builds = 0
Dangerous builds = 0
The dot product: 5.95094816930854e-07
Setting atom values ...
  1 settings made for x
  1 settings made for y
  1 settings made for z
Setting up cg style minimization ...
  Unit style    : metal
  Current step  : 1701
Per MPI rank memory allocation (min/avg/max) = 5.465 | 6.344 | 6.728 Mbytes
Step PotEng KinEng TotEng v_fx v_fy v_fz 
    1701   -1152449.3            0   -1152449.3 0.0072673259  0.037684771  0.031220917 
    1897   -1152449.3            0   -1152449.3 -1.8119206e-06 -1.875491e-06 3.3409441e-06 
Loop time of 4.35357 on 52 procs for 196 steps with 288751 atoms

99.9% CPU use with 52 MPI tasks x 1 OpenMP threads

Minimization stats:
  Stopping criterion = energy tolerance
  Energy initial, next-to-last, final = 
     -1152449.33585089  -1152449.33815234  -1152449.33815234
  Force two-norm initial, final = 0.1828906 0.00012292801
  Force max component initial, final = 0.093508366 1.5441202e-05
  Final line search alpha, max atom move = 1.0000000 1.5441202e-05
  Iterations, force evaluations = 196 392

MPI task timing breakdown:
Section |  min time  |  avg time  |  max time  |%varavg| %total
---------------------------------------------------------------
Pair    | 1.1258     | 3.1297     | 4.105      |  48.6 | 71.89
Neigh   | 0          | 0          | 0          |   0.0 |  0.00
Comm    | 0.064879   | 0.69716    | 2.2159     |  75.0 | 16.01
Output  | 0          | 0          | 0          |   0.0 |  0.00
Modify  | 7.1732e-05 | 0.0066076  | 0.014048   |   3.7 |  0.15
Other   |            | 0.5201     |            |       | 11.95

Nlocal:        5552.90 ave        7896 max           0 min
Histogram: 4 2 2 0 2 6 4 0 14 18
Nghost:        6213.52 ave        8769 max         412 min
Histogram: 4 0 4 0 8 0 4 5 7 20
Neighs:       158427.0 ave      230078 max           0 min
Histogram: 4 2 2 0 5 3 4 4 12 16

Total # of neighbors = 8238205
Ave neighs/atom = 28.530481
Neighbor list builds = 0
Dangerous builds = 0
The dot product: -2.94545301153016e-10
Setting atom values ...
  1 settings made for x
  1 settings made for y
  1 settings made for z
Setting up cg style minimization ...
  Unit style    : metal
  Current step  : 1897
Per MPI rank memory allocation (min/avg/max) = 5.465 | 6.344 | 6.728 Mbytes
Step PotEng KinEng TotEng v_fx v_fy v_fz 
    1897   -1152449.3            0   -1152449.3 0.0057737447  0.042149269  0.028702414 
    2000   -1152449.3            0   -1152449.3 6.6491342e-05 4.0987009e-06 -0.0001931724 
    2082   -1152449.3            0   -1152449.3 2.1906687e-05 1.2677798e-07 -6.4975324e-05 
Loop time of 4.08681 on 52 procs for 185 steps with 288751 atoms

99.9% CPU use with 52 MPI tasks x 1 OpenMP threads

Minimization stats:
  Stopping criterion = energy tolerance
  Energy initial, next-to-last, final = 
     -1152449.31902018  -1152449.32120864  -1152449.32120864
  Force two-norm initial, final = 0.18311948 0.00018401193
  Force max component initial, final = 0.099858566 6.4975324e-05
  Final line search alpha, max atom move = 1.0000000 6.4975324e-05
  Iterations, force evaluations = 185 370

MPI task timing breakdown:
Section |  min time  |  avg time  |  max time  |%varavg| %total
---------------------------------------------------------------
Pair    | 1.0362     | 2.9442     | 3.8532     |  47.5 | 72.04
Neigh   | 0          | 0          | 0          |   0.0 |  0.00
Comm    | 0.056449   | 0.65957    | 2.1045     |  73.0 | 16.14
Output  | 0.00025192 | 0.00025564 | 0.00039939 |   0.0 |  0.01
Modify  | 6.8179e-05 | 0.0061818  | 0.013158   |   3.6 |  0.15
Other   |            | 0.4766     |            |       | 11.66

Nlocal:        5552.90 ave        7900 max           0 min
Histogram: 4 2 2 0 2 6 4 0 14 18
Nghost:        6213.63 ave        8769 max         412 min
Histogram: 4 0 4 0 8 0 4 5 7 20
Neighs:       158427.0 ave      230229 max           0 min
Histogram: 4 2 2 0 5 3 4 4 12 16

Total # of neighbors = 8238204
Ave neighs/atom = 28.530478
Neighbor list builds = 0
Dangerous builds = 0
The dot product: -5.27216396056985e-07
Setting atom values ...
  1 settings made for x
  1 settings made for y
  1 settings made for z
Setting up cg style minimization ...
  Unit style    : metal
  Current step  : 2082
Per MPI rank memory allocation (min/avg/max) = 5.465 | 6.344 | 6.728 Mbytes
Step PotEng KinEng TotEng v_fx v_fy v_fz 
    2082   -1152449.3            0   -1152449.3   0.00387675  0.039039549  0.021899019 
    2272   -1152449.3            0   -1152449.3 1.088318e-05 -2.4730024e-06 -3.1512027e-05 
Loop time of 4.22886 on 52 procs for 190 steps with 288751 atoms

99.9% CPU use with 52 MPI tasks x 1 OpenMP threads

Minimization stats:
  Stopping criterion = linesearch alpha is zero
  Energy initial, next-to-last, final = 
     -1152449.30088897  -1152449.30295027  -1152449.30295027
  Force two-norm initial, final = 0.18109443 0.00015119451
  Force max component initial, final = 0.10520797 3.7001614e-05
  Final line search alpha, max atom move = 0.5 1.8500807e-05
  Iterations, force evaluations = 190 381

MPI task timing breakdown:
Section |  min time  |  avg time  |  max time  |%varavg| %total
---------------------------------------------------------------
Pair    | 1.098      | 3.0395     | 3.982      |  47.8 | 71.88
Neigh   | 0          | 0          | 0          |   0.0 |  0.00
Comm    | 0.059838   | 0.67903    | 2.152      |  73.6 | 16.06
Output  | 0          | 0          | 0          |   0.0 |  0.00
Modify  | 7.2282e-05 | 0.0064524  | 0.013694   |   3.7 |  0.15
Other   |            | 0.5038     |            |       | 11.91

Nlocal:        5552.90 ave        7904 max           0 min
Histogram: 4 2 2 0 2 6 4 0 15 17
Nghost:        6213.63 ave        8769 max         412 min
Histogram: 4 0 4 0 8 0 4 5 7 20
Neighs:       158427.0 ave      230386 max           0 min
Histogram: 4 2 2 0 5 3 4 4 12 16

Total # of neighbors = 8238209
Ave neighs/atom = 28.530495
Neighbor list builds = 0
Dangerous builds = 0
The dot product: -2.68155813176039e-07
Setting atom values ...
  1 settings made for x
  1 settings made for y
  1 settings made for z
Setting up cg style minimization ...
  Unit style    : metal
  Current step  : 2272
Per MPI rank memory allocation (min/avg/max) = 5.465 | 6.344 | 6.728 Mbytes
Step PotEng KinEng TotEng v_fx v_fy v_fz 
    2272   -1152449.3            0   -1152449.3 0.0019628827  0.033487907  0.016920977 
    2468   -1152449.3            0   -1152449.3 -2.4281235e-06 3.263758e-06 8.2346081e-06 
Loop time of 4.35742 on 52 procs for 196 steps with 288751 atoms

99.9% CPU use with 52 MPI tasks x 1 OpenMP threads

Minimization stats:
  Stopping criterion = energy tolerance
  Energy initial, next-to-last, final = 
     -1152449.28142486   -1152449.2834252   -1152449.2834252
  Force two-norm initial, final = 0.17883264 0.00011869113
  Force max component initial, final = 0.10940768 1.3306974e-05
  Final line search alpha, max atom move = 1.0000000 1.3306974e-05
  Iterations, force evaluations = 196 392

MPI task timing breakdown:
Section |  min time  |  avg time  |  max time  |%varavg| %total
---------------------------------------------------------------
Pair    | 1.1286     | 3.1226     | 4.0924     |  48.3 | 71.66
Neigh   | 0          | 0          | 0          |   0.0 |  0.00
Comm    | 0.066172   | 0.70097    | 2.2379     |  74.6 | 16.09
Output  | 0          | 0          | 0          |   0.0 |  0.00
Modify  | 7.6648e-05 | 0.0066159  | 0.014051   |   3.8 |  0.15
Other   |            | 0.5272     |            |       | 12.10

Nlocal:        5552.90 ave        7906 max           0 min
Histogram: 4 2 2 0 2 6 4 0 15 17
Nghost:        6213.63 ave        8769 max         412 min
Histogram: 4 0 4 0 8 0 4 5 7 20
Neighs:       158427.0 ave      230464 max           0 min
Histogram: 4 2 2 0 5 3 4 4 12 16

Total # of neighbors = 8238212
Ave neighs/atom = 28.530506
Neighbor list builds = 0
Dangerous builds = 0
The dot product: 9.81238229739083e-08
Setting atom values ...
  1 settings made for x
  1 settings made for y
  1 settings made for z
Setting up cg style minimization ...
  Unit style    : metal
  Current step  : 2468
Per MPI rank memory allocation (min/avg/max) = 5.465 | 6.344 | 6.728 Mbytes
Step PotEng KinEng TotEng v_fx v_fy v_fz 
    2468   -1152449.3            0   -1152449.3 -0.00024217285  0.027827863    0.0151702 
    2649   -1152449.3            0   -1152449.3 -1.5753129e-05 -1.2756332e-06 3.6365479e-05 
Loop time of 4.01404 on 52 procs for 181 steps with 288751 atoms

99.9% CPU use with 52 MPI tasks x 1 OpenMP threads

Minimization stats:
  Stopping criterion = energy tolerance
  Energy initial, next-to-last, final = 
     -1152449.26076455  -1152449.26268225  -1152449.26268225
  Force two-norm initial, final = 0.17684548 0.00019314574
  Force max component initial, final = 0.11282473 3.6365479e-05
  Final line search alpha, max atom move = 1.0000000 3.6365479e-05
  Iterations, force evaluations = 181 362

MPI task timing breakdown:
Section |  min time  |  avg time  |  max time  |%varavg| %total
---------------------------------------------------------------
Pair    | 1.0417     | 2.8945     | 3.7852     |  46.7 | 72.11
Neigh   | 0          | 0          | 0          |   0.0 |  0.00
Comm    | 0.056517   | 0.64738    | 2.0631     |  72.1 | 16.13
Output  | 0          | 0          | 0          |   0.0 |  0.00
Modify  | 6.9242e-05 | 0.0061228  | 0.013071   |   3.6 |  0.15
Other   |            | 0.4661     |            |       | 11.61

Nlocal:        5552.90 ave        7906 max           0 min
Histogram: 4 2 2 0 2 6 4 0 15 17
Nghost:        6213.63 ave        8769 max         412 min
Histogram: 4 0 4 0 8 0 4 5 7 20
Neighs:       158427.0 ave      230472 max           0 min
Histogram: 4 2 2 0 5 3 4 4 12 16

Total # of neighbors = 8238217
Ave neighs/atom = 28.530523
Neighbor list builds = 0
Dangerous builds = 0
The dot product: 2.81138450121283e-07
Setting atom values ...
  1 settings made for x
  1 settings made for y
  1 settings made for z
Setting up cg style minimization ...
  Unit style    : metal
  Current step  : 2649
Per MPI rank memory allocation (min/avg/max) = 5.465 | 6.344 | 6.728 Mbytes
Step PotEng KinEng TotEng v_fx v_fy v_fz 
    2649   -1152449.2            0   -1152449.2 -0.0019650694  0.022702517  0.014162532 
    2811   -1152449.2            0   -1152449.2 2.7912729e-05 1.2283877e-06 -6.1211547e-05 
Loop time of 3.59102 on 52 procs for 162 steps with 288751 atoms

99.9% CPU use with 52 MPI tasks x 1 OpenMP threads

Minimization stats:
  Stopping criterion = energy tolerance
  Energy initial, next-to-last, final = 
     -1152449.23885705  -1152449.24073691  -1152449.24073691
  Force two-norm initial, final = 0.17520905 0.00029248699
  Force max component initial, final = 0.11582211 6.1211547e-05
  Final line search alpha, max atom move = 1.0000000 6.1211547e-05
  Iterations, force evaluations = 162 324

MPI task timing breakdown:
Section |  min time  |  avg time  |  max time  |%varavg| %total
---------------------------------------------------------------
Pair    | 0.9306     | 2.5823     | 3.3889     |  44.0 | 71.91
Neigh   | 0          | 0          | 0          |   0.0 |  0.00
Comm    | 0.049976   | 0.57524    | 1.8303     |  67.8 | 16.02
Output  | 0          | 0          | 0          |   0.0 |  0.00
Modify  | 5.8052e-05 | 0.0054631  | 0.01164    |   3.4 |  0.15
Other   |            | 0.428      |            |       | 11.92

Nlocal:        5552.90 ave        7907 max           0 min
Histogram: 4 2 2 0 2 6 4 0 15 17
Nghost:        6213.63 ave        8769 max         412 min
Histogram: 4 0 4 0 8 0 4 5 7 20
Neighs:       158427.0 ave      230518 max           0 min
Histogram: 4 2 2 0 5 3 4 4 12 16

Total # of neighbors = 8238212
Ave neighs/atom = 28.530506
Neighbor list builds = 0
Dangerous builds = 0
The dot product: -5.36015223978438e-07
Setting atom values ...
  1 settings made for x
  1 settings made for y
  1 settings made for z
Setting up cg style minimization ...
  Unit style    : metal
  Current step  : 2811
Per MPI rank memory allocation (min/avg/max) = 5.465 | 6.344 | 6.728 Mbytes
Step PotEng KinEng TotEng v_fx v_fy v_fz 
    2811   -1152449.2            0   -1152449.2 -0.004033061  0.019879806  0.015575049 
    2976   -1152449.2            0   -1152449.2 -1.2085046e-05 1.0089493e-06 2.5529229e-05 
Loop time of 3.66211 on 52 procs for 165 steps with 288751 atoms

99.9% CPU use with 52 MPI tasks x 1 OpenMP threads

Minimization stats:
  Stopping criterion = energy tolerance
  Energy initial, next-to-last, final = 
     -1152449.21579658  -1152449.21781665  -1152449.21781665
  Force two-norm initial, final = 0.17423014 0.0002581821
  Force max component initial, final = 0.11865312 3.6798974e-05
  Final line search alpha, max atom move = 1.0000000 3.6798974e-05
  Iterations, force evaluations = 165 330

MPI task timing breakdown:
Section |  min time  |  avg time  |  max time  |%varavg| %total
---------------------------------------------------------------
Pair    | 0.95058    | 2.6402     | 3.4505     |  44.5 | 72.09
Neigh   | 0          | 0          | 0          |   0.0 |  0.00
Comm    | 0.05205    | 0.5926     | 1.8901     |  68.7 | 16.18
Output  | 0          | 0          | 0          |   0.0 |  0.00
Modify  | 6.7908e-05 | 0.0055849  | 0.01192    |   3.4 |  0.15
Other   |            | 0.4237     |            |       | 11.57

Nlocal:        5552.90 ave        7908 max           0 min
Histogram: 4 2 2 0 2 6 4 0 15 17
Nghost:        6213.63 ave        8769 max         412 min
Histogram: 4 0 4 0 8 0 4 5 7 20
Neighs:       158427.0 ave      230548 max           0 min
Histogram: 4 2 2 0 5 3 4 4 12 16

Total # of neighbors = 8238211
Ave neighs/atom = 28.530502
Neighbor list builds = 0
Dangerous builds = 0
The dot product: 3.11761037303113e-07
Setting atom values ...
  1 settings made for x
  1 settings made for y
  1 settings made for z
Setting up cg style minimization ...
  Unit style    : metal
  Current step  : 2976
Per MPI rank memory allocation (min/avg/max) = 5.465 | 6.344 | 6.728 Mbytes
Step PotEng KinEng TotEng v_fx v_fy v_fz 
    2976   -1152449.2            0   -1152449.2 -0.0086031071    0.0216971  0.023067338 
    3000   -1152449.2            0   -1152449.2 6.1446741e-05 2.8674858e-05 -0.00011052662 
    3156   -1152449.2            0   -1152449.2 -3.9116828e-06 -4.4569241e-06 6.2590265e-06 
Loop time of 4.00811 on 52 procs for 180 steps with 288751 atoms

99.9% CPU use with 52 MPI tasks x 1 OpenMP threads

Minimization stats:
  Stopping criterion = energy tolerance
  Energy initial, next-to-last, final = 
     -1152449.19205987  -1152449.19427988  -1152449.19427988
  Force two-norm initial, final = 0.17437242 0.00016303469
  Force max component initial, final = 0.12118399 2.7665548e-05
  Final line search alpha, max atom move = 1.0000000 2.7665548e-05
  Iterations, force evaluations = 180 360

MPI task timing breakdown:
Section |  min time  |  avg time  |  max time  |%varavg| %total
---------------------------------------------------------------
Pair    | 1.0341     | 2.8762     | 3.761      |  46.6 | 71.76
Neigh   | 0          | 0          | 0          |   0.0 |  0.00
Comm    | 0.058791   | 0.64216    | 2.0476     |  71.8 | 16.02
Output  | 0.00020939 | 0.0002133  | 0.00035785 |   0.0 |  0.01
Modify  | 6.9858e-05 | 0.0060636  | 0.012863   |   3.6 |  0.15
Other   |            | 0.4835     |            |       | 12.06

Nlocal:        5552.90 ave        7908 max           0 min
Histogram: 4 2 2 0 2 6 4 0 15 17
Nghost:        6213.58 ave        8769 max         412 min
Histogram: 4 0 4 0 8 0 4 5 7 20
Neighs:       158427.0 ave      230561 max           0 min
Histogram: 4 2 2 0 5 3 4 4 12 16

Total # of neighbors = 8238212
Ave neighs/atom = 28.530506
Neighbor list builds = 0
Dangerous builds = 0
The dot product: 6.29635979671336e-08
Setting atom values ...
  1 settings made for x
  1 settings made for y
  1 settings made for z
Setting up cg style minimization ...
  Unit style    : metal
  Current step  : 3156
Per MPI rank memory allocation (min/avg/max) = 5.465 | 6.344 | 6.728 Mbytes
Step PotEng KinEng TotEng v_fx v_fy v_fz 
    3156   -1152449.2            0   -1152449.2 -0.013472041  0.024929005  0.029749452 
    3358   -1152449.2            0   -1152449.2 9.5430399e-06 2.0657198e-06 -1.6509373e-05 
Loop time of 4.51787 on 52 procs for 202 steps with 288751 atoms

99.9% CPU use with 52 MPI tasks x 1 OpenMP threads

Minimization stats:
  Stopping criterion = linesearch alpha is zero
  Energy initial, next-to-last, final = 
     -1152449.16788213  -1152449.17006794  -1152449.17006794
  Force two-norm initial, final = 0.17516862 0.00010097199
  Force max component initial, final = 0.1238567 1.6509373e-05
  Final line search alpha, max atom move = 0.5 8.2546864e-06
  Iterations, force evaluations = 202 405

MPI task timing breakdown:
Section |  min time  |  avg time  |  max time  |%varavg| %total
---------------------------------------------------------------
Pair    | 1.1583     | 3.2287     | 4.2581     |  49.5 | 71.46
Neigh   | 0          | 0          | 0          |   0.0 |  0.00
Comm    | 0.066907   | 0.72586    | 2.2921     |  75.5 | 16.07
Output  | 0          | 0          | 0          |   0.0 |  0.00
Modify  | 7.2778e-05 | 0.0068492  | 0.014649   |   3.8 |  0.15
Other   |            | 0.5565     |            |       | 12.32

Nlocal:        5552.90 ave        7907 max           0 min
Histogram: 4 2 2 0 2 6 4 0 15 17
Nghost:        6213.54 ave        8769 max         412 min
Histogram: 4 0 4 0 8 0 4 5 7 20
Neighs:       158427.0 ave      230526 max           0 min
Histogram: 4 2 2 0 5 3 4 4 12 16

Total # of neighbors = 8238215
Ave neighs/atom = 28.530516
Neighbor list builds = 0
Dangerous builds = 0
The dot product: -2.49152149502717e-07
Setting atom values ...
  1 settings made for x
  1 settings made for y
  1 settings made for z
Setting up cg style minimization ...
  Unit style    : metal
  Current step  : 3358
Per MPI rank memory allocation (min/avg/max) = 5.465 | 6.344 | 6.728 Mbytes
Step PotEng KinEng TotEng v_fx v_fy v_fz 
    3358   -1152449.1            0   -1152449.1  -0.01451219  0.023750946  0.028176601 
    3577   -1152449.1            0   -1152449.1 -6.5767917e-06 -5.6944728e-08 1.0824086e-05 
Loop time of 4.84078 on 52 procs for 219 steps with 288751 atoms

99.9% CPU use with 52 MPI tasks x 1 OpenMP threads

Minimization stats:
  Stopping criterion = linesearch alpha is zero
  Energy initial, next-to-last, final = 
     -1152449.14281465  -1152449.14487217  -1152449.14487217
  Force two-norm initial, final = 0.17468714 5.7639138e-05
  Force max component initial, final = 0.12696302 1.7386458e-05
  Final line search alpha, max atom move = 0.5 8.6932291e-06
  Iterations, force evaluations = 219 439

MPI task timing breakdown:
Section |  min time  |  avg time  |  max time  |%varavg| %total
---------------------------------------------------------------
Pair    | 1.226      | 3.4895     | 4.5716     |  51.8 | 72.09
Neigh   | 0          | 0          | 0          |   0.0 |  0.00
Comm    | 0.067438   | 0.78131    | 2.4919     |  79.6 | 16.14
Output  | 0          | 0          | 0          |   0.0 |  0.00
Modify  | 8.4675e-05 | 0.0073265  | 0.015589   |   4.0 |  0.15
Other   |            | 0.5626     |            |       | 11.62

Nlocal:        5552.90 ave        7909 max           0 min
Histogram: 4 2 2 0 2 6 4 0 15 17
Nghost:        6213.50 ave        8769 max         412 min
Histogram: 4 0 4 0 8 0 4 5 7 20
Neighs:       158427.0 ave      230588 max           0 min
Histogram: 4 2 2 0 5 3 4 4 12 16

Total # of neighbors = 8238215
Ave neighs/atom = 28.530516
Neighbor list builds = 0
Dangerous builds = 0
The dot product: 1.62911538089487e-07
Setting atom values ...
  1 settings made for x
  1 settings made for y
  1 settings made for z
Setting up cg style minimization ...
  Unit style    : metal
  Current step  : 3577
Per MPI rank memory allocation (min/avg/max) = 5.465 | 6.344 | 6.728 Mbytes
Step PotEng KinEng TotEng v_fx v_fy v_fz 
    3577   -1152449.1            0   -1152449.1 -0.013551022  0.020289233  0.023767323 
    3767   -1152449.1            0   -1152449.1 -2.1870835e-05 -3.82275e-06 3.3190679e-05 
Loop time of 4.26977 on 52 procs for 190 steps with 288751 atoms

99.9% CPU use with 52 MPI tasks x 1 OpenMP threads

Minimization stats:
  Stopping criterion = linesearch alpha is zero
  Energy initial, next-to-last, final = 
     -1152449.11663357   -1152449.1185004   -1152449.1185004
  Force two-norm initial, final = 0.17384162 0.00012226536
  Force max component initial, final = 0.12993048 3.3190679e-05
  Final line search alpha, max atom move = 0.5 1.6595340e-05
  Iterations, force evaluations = 190 383

MPI task timing breakdown:
Section |  min time  |  avg time  |  max time  |%varavg| %total
---------------------------------------------------------------
Pair    | 1.0987     | 3.0619     | 4.0265     |  48.2 | 71.71
Neigh   | 0          | 0          | 0          |   0.0 |  0.00
Comm    | 0.060605   | 0.68193    | 2.1725     |  74.3 | 15.97
Output  | 0          | 0          | 0          |   0.0 |  0.00
Modify  | 7.1175e-05 | 0.0064652  | 0.013776   |   3.7 |  0.15
Other   |            | 0.5195     |            |       | 12.17

Nlocal:        5552.90 ave        7909 max           0 min
Histogram: 4 2 2 0 2 6 4 0 15 17
Nghost:        6213.58 ave        8770 max         412 min
Histogram: 4 0 4 0 8 0 4 5 7 20
Neighs:       158427.0 ave      230595 max           0 min
Histogram: 4 2 2 0 5 3 4 4 12 16

Total # of neighbors = 8238213
Ave neighs/atom = 28.530509
Neighbor list builds = 0
Dangerous builds = 0
The dot product: 4.163833564822e-07
Setting atom values ...
  1 settings made for x
  1 settings made for y
  1 settings made for z
Setting up cg style minimization ...
  Unit style    : metal
  Current step  : 3767
Per MPI rank memory allocation (min/avg/max) = 5.465 | 6.344 | 6.728 Mbytes
Step PotEng KinEng TotEng v_fx v_fy v_fz 
    3767   -1152449.1            0   -1152449.1 -0.010955736  0.015855012  0.017847247 
    3948   -1152449.1            0   -1152449.1 8.7141761e-06 5.2180467e-07 -1.2693011e-05 
Loop time of 4.03349 on 52 procs for 181 steps with 288751 atoms

99.9% CPU use with 52 MPI tasks x 1 OpenMP threads

Minimization stats:
  Stopping criterion = linesearch alpha is zero
  Energy initial, next-to-last, final = 
     -1152449.08911195  -1152449.09084725  -1152449.09084725
  Force two-norm initial, final = 0.17327674 0.00014208394
  Force max component initial, final = 0.13279578 1.8013549e-05
  Final line search alpha, max atom move = 0.5 9.0067743e-06
  Iterations, force evaluations = 181 363

MPI task timing breakdown:
Section |  min time  |  avg time  |  max time  |%varavg| %total
---------------------------------------------------------------
Pair    | 1.0281     | 2.8854     | 3.7826     |  46.9 | 71.54
Neigh   | 0          | 0          | 0          |   0.0 |  0.00
Comm    | 0.05593    | 0.64939    | 2.0888     |  72.1 | 16.10
Output  | 0          | 0          | 0          |   0.0 |  0.00
Modify  | 6.8568e-05 | 0.0060856  | 0.0129     |   3.6 |  0.15
Other   |            | 0.4927     |            |       | 12.21

Nlocal:        5552.90 ave        7910 max           0 min
Histogram: 4 2 2 0 2 6 4 0 15 17
Nghost:        6213.54 ave        8770 max         412 min
Histogram: 4 0 4 0 8 0 4 5 7 20
Neighs:       158427.0 ave      230618 max           0 min
Histogram: 4 2 2 0 5 3 4 4 12 16

Total # of neighbors = 8238213
Ave neighs/atom = 28.530509
Neighbor list builds = 0
Dangerous builds = 0
The dot product: -1.39625084607772e-07
Setting atom values ...
  1 settings made for x
  1 settings made for y
  1 settings made for z
Setting up cg style minimization ...
  Unit style    : metal
  Current step  : 3948
Per MPI rank memory allocation (min/avg/max) = 5.465 | 6.344 | 6.728 Mbytes
Step PotEng KinEng TotEng v_fx v_fy v_fz 
    3948   -1152449.1            0   -1152449.1 -0.0080781461  0.011371443  0.012440048 
    4000   -1152449.1            0   -1152449.1 0.00034310331 4.5645657e-05 -0.00047741185 
    4135   -1152449.1            0   -1152449.1 2.4544608e-05 3.0846664e-06 -3.4170066e-05 
Loop time of 4.16786 on 52 procs for 187 steps with 288751 atoms

99.9% CPU use with 52 MPI tasks x 1 OpenMP threads

Minimization stats:
  Stopping criterion = linesearch alpha is zero
  Energy initial, next-to-last, final = 
     -1152449.06024826  -1152449.06190641  -1152449.06190641
  Force two-norm initial, final = 0.17331779 0.0001237547
  Force max component initial, final = 0.13547349 3.4170066e-05
  Final line search alpha, max atom move = 0.5 1.7085033e-05
  Iterations, force evaluations = 187 375

MPI task timing breakdown:
Section |  min time  |  avg time  |  max time  |%varavg| %total
---------------------------------------------------------------
Pair    | 1.0732     | 3.0002     | 3.9348     |  47.7 | 71.98
Neigh   | 0          | 0          | 0          |   0.0 |  0.00
Comm    | 0.059189   | 0.67077    | 2.1365     |  73.5 | 16.09
Output  | 0.00020912 | 0.00021927 | 0.00036032 |   0.0 |  0.01
Modify  | 6.8527e-05 | 0.0063152  | 0.013435   |   3.7 |  0.15
Other   |            | 0.4904     |            |       | 11.77

Nlocal:        5552.90 ave        7911 max           0 min
Histogram: 4 2 2 0 2 6 4 0 15 17
Nghost:        6213.58 ave        8770 max         412 min
Histogram: 4 0 4 0 8 0 4 5 7 20
Neighs:       158427.0 ave      230649 max           0 min
Histogram: 4 2 2 0 5 3 4 4 12 16

Total # of neighbors = 8238214
Ave neighs/atom = 28.530512
Neighbor list builds = 0
Dangerous builds = 0
The dot product: -3.16858151334092e-07
Setting atom values ...
  1 settings made for x
  1 settings made for y
  1 settings made for z
Setting up cg style minimization ...
  Unit style    : metal
  Current step  : 4135
Per MPI rank memory allocation (min/avg/max) = 5.465 | 6.344 | 6.728 Mbytes
Step PotEng KinEng TotEng v_fx v_fy v_fz 
    4135     -1152449            0     -1152449 -0.0055140046 0.0074781001 0.0081266719 
    4289     -1152449            0     -1152449 1.2727654e-05 3.9282736e-06 -1.6962339e-05 
Loop time of 3.42606 on 52 procs for 154 steps with 288751 atoms

99.9% CPU use with 52 MPI tasks x 1 OpenMP threads

Minimization stats:
  Stopping criterion = energy tolerance
  Energy initial, next-to-last, final = 
     -1152449.03009265  -1152449.03173371  -1152449.03173371
  Force two-norm initial, final = 0.17386432 0.000317051
  Force max component initial, final = 0.13791707 4.5390857e-05
  Final line search alpha, max atom move = 1.0000000 4.5390857e-05
  Iterations, force evaluations = 154 308

MPI task timing breakdown:
Section |  min time  |  avg time  |  max time  |%varavg| %total
---------------------------------------------------------------
Pair    | 0.8823     | 2.4547     | 3.2317     |  43.1 | 71.65
Neigh   | 0          | 0          | 0          |   0.0 |  0.00
Comm    | 0.047741   | 0.5501     | 1.747      |  66.0 | 16.06
Output  | 0          | 0          | 0          |   0.0 |  0.00
Modify  | 5.9269e-05 | 0.005202   | 0.011049   |   3.3 |  0.15
Other   |            | 0.4161     |            |       | 12.14

Nlocal:        5552.90 ave        7912 max           0 min
Histogram: 4 2 2 0 2 6 4 0 15 17
Nghost:        6213.40 ave        8770 max         412 min
Histogram: 4 0 4 0 8 0 4 5 7 20
Neighs:       158427.0 ave      230672 max           0 min
Histogram: 4 2 2 0 5 3 4 4 12 16

Total # of neighbors = 8238218
Ave neighs/atom = 28.530526
Neighbor list builds = 0
Dangerous builds = 0
The dot product: -1.36524237011771e-07
Setting atom values ...
  1 settings made for x
  1 settings made for y
  1 settings made for z
Setting up cg style minimization ...
  Unit style    : metal
  Current step  : 4289
Per MPI rank memory allocation (min/avg/max) = 5.465 | 6.344 | 6.728 Mbytes
Step PotEng KinEng TotEng v_fx v_fy v_fz 
    4289     -1152449            0     -1152449 -0.0036049294 0.0045808585 0.0051204885 
    4447     -1152449            0     -1152449 -2.907915e-05 -1.2822957e-05 3.7454129e-05 
Loop time of 3.56866 on 52 procs for 158 steps with 288751 atoms

99.9% CPU use with 52 MPI tasks x 1 OpenMP threads

Minimization stats:
  Stopping criterion = linesearch alpha is zero
  Energy initial, next-to-last, final = 
     -1152448.99879553  -1152449.00044434  -1152449.00044434
  Force two-norm initial, final = 0.17462945 0.00030747989
  Force max component initial, final = 0.14007058 6.2713481e-05
  Final line search alpha, max atom move = 0.125 7.8391851e-06
  Iterations, force evaluations = 158 321

MPI task timing breakdown:
Section |  min time  |  avg time  |  max time  |%varavg| %total
---------------------------------------------------------------
Pair    | 0.93614    | 2.5735     | 3.3577     |  43.7 | 72.11
Neigh   | 0          | 0          | 0          |   0.0 |  0.00
Comm    | 0.050457   | 0.57814    | 1.8431     |  67.9 | 16.20
Output  | 0          | 0          | 0          |   0.0 |  0.00
Modify  | 6.4658e-05 | 0.005427   | 0.01159    |   3.4 |  0.15
Other   |            | 0.4116     |            |       | 11.53

Nlocal:        5552.90 ave        7913 max           0 min
Histogram: 4 2 2 0 2 6 4 1 14 17
Nghost:        6213.35 ave        8770 max         412 min
Histogram: 4 0 4 0 8 0 4 5 7 20
Neighs:       158427.0 ave      230708 max           0 min
Histogram: 4 2 2 0 5 3 4 4 12 16

Total # of neighbors = 8238216
Ave neighs/atom = 28.530519
Neighbor list builds = 0
Dangerous builds = 0
The dot product: 2.72526478578849e-07
Setting atom values ...
  1 settings made for x
  1 settings made for y
  1 settings made for z
Setting up cg style minimization ...
  Unit style    : metal
  Current step  : 4447
Per MPI rank memory allocation (min/avg/max) = 5.465 | 6.344 | 6.728 Mbytes
Step PotEng KinEng TotEng v_fx v_fy v_fz 
    4447     -1152449            0     -1152449 -0.0018881454 0.0025435934 0.0026238115 
    4663     -1152449            0     -1152449 -3.9625465e-06 -1.8006535e-06 4.986707e-06 
Loop time of 4.80729 on 52 procs for 216 steps with 288751 atoms

99.9% CPU use with 52 MPI tasks x 1 OpenMP threads

Minimization stats:
  Stopping criterion = linesearch alpha is zero
  Energy initial, next-to-last, final = 
     -1152448.96643841  -1152448.96809688  -1152448.96809688
  Force two-norm initial, final = 0.17543103 7.3184103e-05
  Force max component initial, final = 0.14189779 9.2907819e-06
  Final line search alpha, max atom move = 0.5 4.6453909e-06
  Iterations, force evaluations = 216 433

MPI task timing breakdown:
Section |  min time  |  avg time  |  max time  |%varavg| %total
---------------------------------------------------------------
Pair    | 1.2445     | 3.4584     | 4.5284     |  51.0 | 71.94
Neigh   | 0          | 0          | 0          |   0.0 |  0.00
Comm    | 0.067331   | 0.7719     | 2.4641     |  78.7 | 16.06
Output  | 0          | 0          | 0          |   0.0 |  0.00
Modify  | 8.3014e-05 | 0.0073159  | 0.015547   |   3.9 |  0.15
Other   |            | 0.5697     |            |       | 11.85

Nlocal:        5552.90 ave        7913 max           0 min
Histogram: 4 2 2 0 2 6 4 1 14 17
Nghost:        6213.35 ave        8770 max         412 min
Histogram: 4 0 4 0 8 0 4 5 7 20
Neighs:       158427.0 ave      230711 max           0 min
Histogram: 4 2 2 0 5 3 4 4 12 16

Total # of neighbors = 8238218
Ave neighs/atom = 28.530526
Neighbor list builds = 0
Dangerous builds = 0
The dot product: 3.43754586607407e-08
Setting atom values ...
  1 settings made for x
  1 settings made for y
  1 settings made for z
Setting up cg style minimization ...
  Unit style    : metal
  Current step  : 4663
Per MPI rank memory allocation (min/avg/max) = 5.465 | 6.344 | 6.728 Mbytes
Step PotEng KinEng TotEng v_fx v_fy v_fz 
    4663   -1152448.9            0   -1152448.9 -0.00037176003 0.0013246299 0.00056316416 
    4885   -1152448.9            0   -1152448.9 -1.1842793e-05 -2.0733654e-06 1.4837507e-05 
Loop time of 4.9468 on 52 procs for 222 steps with 288751 atoms

99.9% CPU use with 52 MPI tasks x 1 OpenMP threads

Minimization stats:
  Stopping criterion = linesearch alpha is zero
  Energy initial, next-to-last, final = 
      -1152448.9331167   -1152448.9348318   -1152448.9348318
  Force two-norm initial, final = 0.17630667 6.6595474e-05
  Force max component initial, final = 0.14363928 1.4837507e-05
  Final line search alpha, max atom move = 0.5 7.4187537e-06
  Iterations, force evaluations = 222 445

MPI task timing breakdown:
Section |  min time  |  avg time  |  max time  |%varavg| %total
---------------------------------------------------------------
Pair    | 1.275      | 3.5516     | 4.6711     |  51.9 | 71.80
Neigh   | 0          | 0          | 0          |   0.0 |  0.00
Comm    | 0.069386   | 0.79417    | 2.5158     |  79.6 | 16.05
Output  | 0          | 0          | 0          |   0.0 |  0.00
Modify  | 7.9908e-05 | 0.0074922  | 0.015904   |   4.0 |  0.15
Other   |            | 0.5936     |            |       | 12.00

Nlocal:        5552.90 ave        7911 max           0 min
Histogram: 4 2 2 0 2 6 4 0 15 17
Nghost:        6213.35 ave        8770 max         412 min
Histogram: 4 0 4 0 8 0 4 5 7 20
Neighs:       158427.0 ave      230650 max           0 min
Histogram: 4 2 2 0 5 3 4 4 12 16

Total # of neighbors = 8238215
Ave neighs/atom = 28.530516
Neighbor list builds = 0
Dangerous builds = 0
The dot product: 9.89904264904041e-08
Setting atom values ...
  1 settings made for x
  1 settings made for y
  1 settings made for z
Setting up cg style minimization ...
  Unit style    : metal
  Current step  : 4885
Per MPI rank memory allocation (min/avg/max) = 5.465 | 6.344 | 6.728 Mbytes
Step PotEng KinEng TotEng v_fx v_fy v_fz 
    4885   -1152448.9            0   -1152448.9   0.00101626 0.00066783377 -0.0012161591 
    5000   -1152448.9            0   -1152448.9 -8.2443942e-05 -2.2436213e-05 0.00010083571 
    5049   -1152448.9            0   -1152448.9 6.0171716e-05 7.4475522e-06 -7.4206672e-05 
Loop time of 3.61964 on 52 procs for 164 steps with 288751 atoms

99.9% CPU use with 52 MPI tasks x 1 OpenMP threads

Minimization stats:
  Stopping criterion = energy tolerance
  Energy initial, next-to-last, final = 
     -1152448.89897992  -1152448.90061788  -1152448.90061788
  Force two-norm initial, final = 0.17703519 0.00029490955
  Force max component initial, final = 0.14506995 7.4206672e-05
  Final line search alpha, max atom move = 1.0000000 7.4206672e-05
  Iterations, force evaluations = 164 328

MPI task timing breakdown:
Section |  min time  |  avg time  |  max time  |%varavg| %total
---------------------------------------------------------------
Pair    | 0.91776    | 2.6062     | 3.4177     |  44.7 | 72.00
Neigh   | 0          | 0          | 0          |   0.0 |  0.00
Comm    | 0.050869   | 0.58338    | 1.8643     |  68.8 | 16.12
Output  | 0.0002014  | 0.00020544 | 0.00035332 |   0.0 |  0.01
Modify  | 6.1317e-05 | 0.0054794  | 0.011621   |   3.4 |  0.15
Other   |            | 0.4243     |            |       | 11.72

Nlocal:        5552.90 ave        7912 max           0 min
Histogram: 4 2 2 0 2 6 4 0 15 17
Nghost:        6213.29 ave        8770 max         412 min
Histogram: 4 0 4 0 8 0 4 5 7 20
Neighs:       158427.0 ave      230687 max           0 min
Histogram: 4 2 2 0 5 3 4 4 12 16

Total # of neighbors = 8238214
Ave neighs/atom = 28.530512
Neighbor list builds = 0
Dangerous builds = 0
The dot product: -4.17160927203929e-07
Setting atom values ...
  1 settings made for x
  1 settings made for y
  1 settings made for z
Setting up cg style minimization ...
  Unit style    : metal
  Current step  : 5049
Per MPI rank memory allocation (min/avg/max) = 5.465 | 6.344 | 6.728 Mbytes
Step PotEng KinEng TotEng v_fx v_fy v_fz 
    5049   -1152448.9            0   -1152448.9  0.003586454 0.00028793698 -0.0043676545 
    5220   -1152448.9            0   -1152448.9 3.6050505e-05 5.846232e-06 -4.3702592e-05 
Loop time of 3.85534 on 52 procs for 171 steps with 288751 atoms

99.9% CPU use with 52 MPI tasks x 1 OpenMP threads

Minimization stats:
  Stopping criterion = energy tolerance
  Energy initial, next-to-last, final = 
     -1152448.86373993  -1152448.86535003  -1152448.86535003
  Force two-norm initial, final = 0.17829547 0.00021262364
  Force max component initial, final = 0.14678769 4.3702592e-05
  Final line search alpha, max atom move = 1.0000000 4.3702592e-05
  Iterations, force evaluations = 171 342

MPI task timing breakdown:
Section |  min time  |  avg time  |  max time  |%varavg| %total
---------------------------------------------------------------
Pair    | 0.98044    | 2.7339     | 3.6118     |  45.5 | 70.91
Neigh   | 0          | 0          | 0          |   0.0 |  0.00
Comm    | 0.057631   | 0.61748    | 1.941      |  69.3 | 16.02
Output  | 0          | 0          | 0          |   0.0 |  0.00
Modify  | 6.7138e-05 | 0.0057737  | 0.012302   |   3.5 |  0.15
Other   |            | 0.4982     |            |       | 12.92

Nlocal:        5552.90 ave        7911 max           0 min
Histogram: 4 2 2 0 2 6 4 0 15 17
Nghost:        6213.27 ave        8770 max         412 min
Histogram: 4 0 4 0 8 0 4 5 7 20
Neighs:       158427.0 ave      230669 max           0 min
Histogram: 4 2 2 0 5 3 4 4 12 16

Total # of neighbors = 8238214
Ave neighs/atom = 28.530512
Neighbor list builds = 0
Dangerous builds = 0
The dot product: -2.01909699492124e-07
Setting atom values ...
  1 settings made for x
  1 settings made for y
  1 settings made for z
Setting up cg style minimization ...
  Unit style    : metal
  Current step  : 5220
Per MPI rank memory allocation (min/avg/max) = 5.465 | 6.344 | 6.728 Mbytes
Step PotEng KinEng TotEng v_fx v_fy v_fz 
    5220   -1152448.8            0   -1152448.8 0.0060873536 0.00022725347 -0.007344225 
    5405   -1152448.8            0   -1152448.8 -1.386112e-05 -3.1592309e-06 1.6543612e-05 
Loop time of 4.13703 on 52 procs for 185 steps with 288751 atoms

99.9% CPU use with 52 MPI tasks x 1 OpenMP threads

Minimization stats:
  Stopping criterion = linesearch alpha is zero
  Energy initial, next-to-last, final = 
     -1152448.82742703  -1152448.82914003  -1152448.82914003
  Force two-norm initial, final = 0.1795936 0.00024494824
  Force max component initial, final = 0.14839447 1.6543612e-05
  Final line search alpha, max atom move = 0.125 2.0679515e-06
  Iterations, force evaluations = 185 375

MPI task timing breakdown:
Section |  min time  |  avg time  |  max time  |%varavg| %total
---------------------------------------------------------------
Pair    | 1.0736     | 2.9816     | 3.906      |  47.4 | 72.07
Neigh   | 0          | 0          | 0          |   0.0 |  0.00
Comm    | 0.059969   | 0.66688    | 2.1272     |  73.2 | 16.12
Output  | 0          | 0          | 0          |   0.0 |  0.00
Modify  | 6.9979e-05 | 0.0063014  | 0.013301   |   3.7 |  0.15
Other   |            | 0.4823     |            |       | 11.66

Nlocal:        5552.90 ave        7910 max           0 min
Histogram: 4 2 2 0 2 6 4 0 15 17
Nghost:        6213.23 ave        8770 max         412 min
Histogram: 4 0 4 0 8 0 4 5 7 20
Neighs:       158427.0 ave      230633 max           0 min
Histogram: 4 2 2 0 5 3 4 4 12 16

Total # of neighbors = 8238216
Ave neighs/atom = 28.530519
Neighbor list builds = 0
Dangerous builds = 0
The dot product: 7.08296600333882e-08
Setting atom values ...
  1 settings made for x
  1 settings made for y
  1 settings made for z
Setting up cg style minimization ...
  Unit style    : metal
  Current step  : 5405
Per MPI rank memory allocation (min/avg/max) = 5.465 | 6.344 | 6.728 Mbytes
Step PotEng KinEng TotEng v_fx v_fy v_fz 
    5405   -1152448.8            0   -1152448.8 0.0078018037 0.00047297159 -0.0093031563 
    5594   -1152448.8            0   -1152448.8 6.0004742e-06 1.0795998e-08 -7.1793254e-06 
Loop time of 4.21949 on 52 procs for 189 steps with 288751 atoms

99.9% CPU use with 52 MPI tasks x 1 OpenMP threads

Minimization stats:
  Stopping criterion = energy tolerance
  Energy initial, next-to-last, final = 
     -1152448.79040103  -1152448.79202501  -1152448.79202501
  Force two-norm initial, final = 0.18014108 0.00013406431
  Force max component initial, final = 0.14940908 1.0717962e-05
  Final line search alpha, max atom move = 1.0000000 1.0717962e-05
  Iterations, force evaluations = 189 380

MPI task timing breakdown:
Section |  min time  |  avg time  |  max time  |%varavg| %total
---------------------------------------------------------------
Pair    | 1.0913     | 3.0414     | 3.9793     |  48.0 | 72.08
Neigh   | 0          | 0          | 0          |   0.0 |  0.00
Comm    | 0.058952   | 0.67774    | 2.1682     |  74.2 | 16.06
Output  | 0          | 0          | 0          |   0.0 |  0.00
Modify  | 6.9522e-05 | 0.0064122  | 0.013617   |   3.7 |  0.15
Other   |            | 0.494      |            |       | 11.71

Nlocal:        5552.90 ave        7909 max           0 min
Histogram: 4 2 2 0 2 6 4 0 15 17
Nghost:        6213.23 ave        8770 max         412 min
Histogram: 4 0 4 0 8 0 4 5 7 20
Neighs:       158427.0 ave      230583 max           0 min
Histogram: 4 2 2 0 5 3 4 4 12 16

Total # of neighbors = 8238213
Ave neighs/atom = 28.530509
Neighbor list builds = 0
Dangerous builds = 0
The dot product: -2.08086699072149e-08
Setting atom values ...
  1 settings made for x
  1 settings made for y
  1 settings made for z
Setting up cg style minimization ...
  Unit style    : metal
  Current step  : 5594
Per MPI rank memory allocation (min/avg/max) = 5.465 | 6.344 | 6.728 Mbytes
Step PotEng KinEng TotEng v_fx v_fy v_fz 
    5594   -1152448.8            0   -1152448.8  0.010829124 0.0010287893 -0.012797821 
    5755   -1152448.8            0   -1152448.8 2.4608562e-06 1.8641475e-06 -2.7953893e-06 
Loop time of 3.55917 on 52 procs for 161 steps with 288751 atoms

99.9% CPU use with 52 MPI tasks x 1 OpenMP threads

Minimization stats:
  Stopping criterion = energy tolerance
  Energy initial, next-to-last, final = 
     -1152448.75226926  -1152448.75389814  -1152448.75389814
  Force two-norm initial, final = 0.18117708 0.00028037983
  Force max component initial, final = 0.15077789 2.1612960e-05
  Final line search alpha, max atom move = 1.0000000 2.1612960e-05
  Iterations, force evaluations = 161 322

MPI task timing breakdown:
Section |  min time  |  avg time  |  max time  |%varavg| %total
---------------------------------------------------------------
Pair    | 0.9297     | 2.5654     | 3.3589     |  43.8 | 72.08
Neigh   | 0          | 0          | 0          |   0.0 |  0.00
Comm    | 0.050025   | 0.57137    | 1.8221     |  67.7 | 16.05
Output  | 0          | 0          | 0          |   0.0 |  0.00
Modify  | 5.6468e-05 | 0.0054302  | 0.011508   |   3.4 |  0.15
Other   |            | 0.4169     |            |       | 11.71

Nlocal:        5552.90 ave        7908 max           0 min
Histogram: 4 2 2 0 2 6 4 0 15 17
Nghost:        6213.23 ave        8770 max         412 min
Histogram: 4 0 4 0 8 0 4 5 7 20
Neighs:       158427.0 ave      230562 max           0 min
Histogram: 4 2 2 0 5 3 4 4 12 16

Total # of neighbors = 8238212
Ave neighs/atom = 28.530506
Neighbor list builds = 0
Dangerous builds = 0
The dot product: -5.84498360257927e-09
Setting atom values ...
  1 settings made for x
  1 settings made for y
  1 settings made for z
Setting up cg style minimization ...
  Unit style    : metal
  Current step  : 5755
Per MPI rank memory allocation (min/avg/max) = 5.465 | 6.344 | 6.728 Mbytes
Step PotEng KinEng TotEng v_fx v_fy v_fz 
    5755   -1152448.7            0   -1152448.7  0.013654538 0.0018838158 -0.016031417 
    5970   -1152448.7            0   -1152448.7 -1.326998e-05 -3.779595e-06 1.5442846e-05 
Loop time of 4.78278 on 52 procs for 215 steps with 288751 atoms

99.9% CPU use with 52 MPI tasks x 1 OpenMP threads

Minimization stats:
  Stopping criterion = linesearch alpha is zero
  Energy initial, next-to-last, final = 
      -1152448.7132047  -1152448.71499442  -1152448.71499442
  Force two-norm initial, final = 0.18167313 9.0631387e-05
  Force max component initial, final = 0.15186093 2.3074550e-05
  Final line search alpha, max atom move = 0.5 1.1537275e-05
  Iterations, force evaluations = 215 431

MPI task timing breakdown:
Section |  min time  |  avg time  |  max time  |%varavg| %total
---------------------------------------------------------------
Pair    | 1.2331     | 3.4427     | 4.5157     |  51.1 | 71.98
Neigh   | 0          | 0          | 0          |   0.0 |  0.00
Comm    | 0.067123   | 0.76892    | 2.4488     |  78.6 | 16.08
Output  | 0          | 0          | 0          |   0.0 |  0.00
Modify  | 8.6539e-05 | 0.0072796  | 0.015447   |   3.9 |  0.15
Other   |            | 0.5638     |            |       | 11.79

Nlocal:        5552.90 ave        7906 max           0 min
Histogram: 4 2 2 0 2 6 4 0 15 17
Nghost:        6213.17 ave        8770 max         412 min
Histogram: 4 0 4 0 8 0 4 5 7 20
Neighs:       158427.0 ave      230481 max           0 min
Histogram: 4 2 2 0 5 3 4 4 12 16

Total # of neighbors = 8238212
Ave neighs/atom = 28.530506
Neighbor list builds = 0
Dangerous builds = 0
The dot product: 2.03574905701739e-08
Setting atom values ...
  1 settings made for x
  1 settings made for y
  1 settings made for z
Setting up cg style minimization ...
  Unit style    : metal
  Current step  : 5970
Per MPI rank memory allocation (min/avg/max) = 5.465 | 6.344 | 6.728 Mbytes
Step PotEng KinEng TotEng v_fx v_fy v_fz 
    5970   -1152448.7            0   -1152448.7  0.015518977 0.0025526013 -0.018141822 
    6000   -1152448.7            0   -1152448.7 0.00090987438 0.00017434922 -0.0010618707 
    6116   -1152448.7            0   -1152448.7 8.5515559e-07 -4.3720895e-06 -1.3251035e-06 
Loop time of 3.26765 on 52 procs for 146 steps with 288751 atoms

99.9% CPU use with 52 MPI tasks x 1 OpenMP threads

Minimization stats:
  Stopping criterion = linesearch alpha is zero
  Energy initial, next-to-last, final = 
     -1152448.67383059  -1152448.67557409  -1152448.67557409
  Force two-norm initial, final = 0.18055251 0.00015896675
  Force max component initial, final = 0.15188149 2.1639171e-05
  Final line search alpha, max atom move = 0.25 5.4097929e-06
  Iterations, force evaluations = 146 295

MPI task timing breakdown:
Section |  min time  |  avg time  |  max time  |%varavg| %total
---------------------------------------------------------------
Pair    | 0.8444     | 2.3504     | 3.0825     |  42.1 | 71.93
Neigh   | 0          | 0          | 0          |   0.0 |  0.00
Comm    | 0.049218   | 0.52618    | 1.6771     |  64.8 | 16.10
Output  | 0.00020843 | 0.000212   | 0.00034968 |   0.0 |  0.01
Modify  | 5.5337e-05 | 0.0049665  | 0.010521   |   3.3 |  0.15
Other   |            | 0.3858     |            |       | 11.81

Nlocal:        5552.90 ave        7906 max           0 min
Histogram: 4 2 2 0 2 6 4 0 15 17
Nghost:        6213.13 ave        8770 max         412 min
Histogram: 4 0 4 0 8 0 4 5 7 20
Neighs:       158427.0 ave      230476 max           0 min
Histogram: 4 2 2 0 5 3 4 4 12 16

Total # of neighbors = 8238205
Ave neighs/atom = 28.530481
Neighbor list builds = 0
Dangerous builds = 0
The dot product: 5.18959192062752e-09
Setting atom values ...
  1 settings made for x
  1 settings made for y
  1 settings made for z
Setting up cg style minimization ...
  Unit style    : metal
  Current step  : 6116
Per MPI rank memory allocation (min/avg/max) = 5.465 | 6.344 | 6.728 Mbytes
Step PotEng KinEng TotEng v_fx v_fy v_fz 
    6116   -1152448.6            0   -1152448.6  0.018308564 0.0037672714 -0.021358413 
    6300   -1152448.6            0   -1152448.6 4.5806475e-06 -4.74863e-06 -5.7675513e-06 
Loop time of 4.12294 on 52 procs for 184 steps with 288751 atoms

99.9% CPU use with 52 MPI tasks x 1 OpenMP threads

Minimization stats:
  Stopping criterion = linesearch alpha is zero
  Energy initial, next-to-last, final = 
     -1152448.63407846  -1152448.63606541  -1152448.63606541
  Force two-norm initial, final = 0.179656 0.00021361852
  Force max component initial, final = 0.15168925 2.0474788e-05
  Final line search alpha, max atom move = 0.25 5.1186969e-06
  Iterations, force evaluations = 184 371

MPI task timing breakdown:
Section |  min time  |  avg time  |  max time  |%varavg| %total
---------------------------------------------------------------
Pair    | 1.0622     | 2.9607     | 3.891      |  47.3 | 71.81
Neigh   | 0          | 0          | 0          |   0.0 |  0.00
Comm    | 0.058383   | 0.66265    | 2.1016     |  72.7 | 16.07
Output  | 0          | 0          | 0          |   0.0 |  0.00
Modify  | 7.5221e-05 | 0.0062608  | 0.013278   |   3.6 |  0.15
Other   |            | 0.4933     |            |       | 11.97

Nlocal:        5552.90 ave        7905 max           0 min
Histogram: 4 2 2 0 2 6 4 0 15 17
Nghost:        6213.13 ave        8770 max         412 min
Histogram: 4 0 4 0 8 0 4 5 7 20
Neighs:       158427.0 ave      230446 max           0 min
Histogram: 4 2 2 0 5 3 4 4 12 16

Total # of neighbors = 8238200
Ave neighs/atom = 28.530464
Neighbor list builds = 0
Dangerous builds = 0
The dot product: 1.2516463932618e-08
Setting atom values ...
  1 settings made for x
  1 settings made for y
  1 settings made for z
Setting up cg style minimization ...
  Unit style    : metal
  Current step  : 6300
Per MPI rank memory allocation (min/avg/max) = 5.465 | 6.344 | 6.728 Mbytes
Step PotEng KinEng TotEng v_fx v_fy v_fz 
    6300   -1152448.6            0   -1152448.6  0.020941461 0.0014076308 -0.024689482 
    6514   -1152448.6            0   -1152448.6 7.1677256e-06 -3.0203268e-07 -8.5115673e-06 
Loop time of 4.76523 on 52 procs for 214 steps with 288751 atoms

99.9% CPU use with 52 MPI tasks x 1 OpenMP threads

Minimization stats:
  Stopping criterion = linesearch alpha is zero
  Energy initial, next-to-last, final = 
     -1152448.59530652  -1152448.59744586  -1152448.59744586
  Force two-norm initial, final = 0.17777197 9.0896078e-05
  Force max component initial, final = 0.14919587 8.5115673e-06
  Final line search alpha, max atom move = 0.5 4.2557836e-06
  Iterations, force evaluations = 214 429

MPI task timing breakdown:
Section |  min time  |  avg time  |  max time  |%varavg| %total
---------------------------------------------------------------
Pair    | 1.2367     | 3.4211     | 4.4771     |  50.7 | 71.79
Neigh   | 0          | 0          | 0          |   0.0 |  0.00
Comm    | 0.070992   | 0.76211    | 2.4351     |  78.3 | 15.99
Output  | 0          | 0          | 0          |   0.0 |  0.00
Modify  | 8.3303e-05 | 0.0072474  | 0.015292   |   3.9 |  0.15
Other   |            | 0.5748     |            |       | 12.06

Nlocal:        5552.90 ave        7903 max           0 min
Histogram: 4 2 2 0 2 6 4 0 15 17
Nghost:        6213.13 ave        8770 max         412 min
Histogram: 4 0 4 0 8 0 4 5 7 20
Neighs:       158427.0 ave      230368 max           0 min
Histogram: 4 2 2 0 5 3 4 4 12 16

Total # of neighbors = 8238205
Ave neighs/atom = 28.530481
Neighbor list builds = 0
Dangerous builds = 0
The dot product: 7.49812334765409e-09
Setting atom values ...
  1 settings made for x
  1 settings made for y
  1 settings made for z
Setting up cg style minimization ...
  Unit style    : metal
  Current step  : 6514
Per MPI rank memory allocation (min/avg/max) = 5.465 | 6.344 | 6.728 Mbytes
Step PotEng KinEng TotEng v_fx v_fy v_fz 
    6514   -1152448.6            0   -1152448.6  0.022036605 -0.00050286926 -0.026180679 
    6791   -1152448.6            0   -1152448.6 3.1839954e-07 -7.3346416e-08 -3.8367823e-07 
Loop time of 6.17468 on 52 procs for 277 steps with 288751 atoms

99.9% CPU use with 52 MPI tasks x 1 OpenMP threads

Minimization stats:
  Stopping criterion = linesearch alpha is zero
  Energy initial, next-to-last, final = 
     -1152448.55834082  -1152448.57009284  -1152448.57009284
  Force two-norm initial, final = 0.18456408 1.7938712e-05
  Force max component initial, final = 0.14666028 4.6320618e-07
  Final line search alpha, max atom move = 0.5 2.3160309e-07
  Iterations, force evaluations = 277 555

MPI task timing breakdown:
Section |  min time  |  avg time  |  max time  |%varavg| %total
---------------------------------------------------------------
Pair    | 1.6041     | 4.4382     | 5.8045     |  57.7 | 71.88
Neigh   | 1.8972e-05 | 0.0057823  | 0.008655   |   3.2 |  0.09
Comm    | 0.08802    | 0.98872    | 3.151      |  89.3 | 16.01
Output  | 0          | 0          | 0          |   0.0 |  0.00
Modify  | 0.00010636 | 0.0093736  | 0.020053   |   4.5 |  0.15
Other   |            | 0.7326     |            |       | 11.86

Nlocal:        5552.90 ave        7902 max           0 min
Histogram: 4 2 2 0 2 6 4 0 15 17
Nghost:        6213.23 ave        8770 max         412 min
Histogram: 4 0 4 0 8 0 4 5 7 20
Neighs:       158427.0 ave      230347 max           0 min
Histogram: 4 2 2 0 5 3 4 4 12 16

Total # of neighbors = 8238195
Ave neighs/atom = 28.530447
Neighbor list builds = 1
Dangerous builds = 0
The dot product: -6.80143740081269e-09
Setting atom values ...
  1 settings made for x
  1 settings made for y
  1 settings made for z
Setting up cg style minimization ...
  Unit style    : metal
  Current step  : 6791
Per MPI rank memory allocation (min/avg/max) = 5.465 | 6.344 | 6.728 Mbytes
Step PotEng KinEng TotEng v_fx v_fy v_fz 
    6791   -1152448.5            0   -1152448.5  0.014523188 0.0020525838 -0.016434295 
    7000   -1152448.5            0   -1152448.5 -0.0001333505 -1.1599079e-05 0.0001515139 
    7146   -1152448.5            0   -1152448.5 -3.9044515e-05 -4.5512456e-06 4.4264545e-05 
Loop time of 7.84044 on 52 procs for 355 steps with 288751 atoms

99.9% CPU use with 52 MPI tasks x 1 OpenMP threads

Minimization stats:
  Stopping criterion = energy tolerance
  Energy initial, next-to-last, final = 
[...]
Nghost:        6213.60 ave        8770 max         412 min
Histogram: 4 0 4 0 8 0 4 5 7 20
Neighs:       158426.0 ave      230877 max           0 min
Histogram: 4 2 2 0 5 3 4 4 12 16

Total # of neighbors = 8238174
Ave neighs/atom = 28.530374
Neighbor list builds = 0
Dangerous builds = 0
The dot product: -7.50700845661634e-09
Setting atom values ...
  1 settings made for x
  1 settings made for y
  1 settings made for z
Setting up cg style minimization ...
  Unit style    : metal
  Current step  : 25812
Per MPI rank memory allocation (min/avg/max) = 5.465 | 6.344 | 6.728 Mbytes
Step PotEng KinEng TotEng v_fx v_fy v_fz 
   25812   -1152449.1            0   -1152449.1 -0.00090752536 0.0072731696 0.0096722958 
   25988   -1152449.1            0   -1152449.1 2.9040564e-06  2.63008e-06 1.1767781e-06 
Loop time of 3.93445 on 52 procs for 176 steps with 288751 atoms

99.9% CPU use with 52 MPI tasks x 1 OpenMP threads

Minimization stats:
  Stopping criterion = linesearch alpha is zero
  Energy initial, next-to-last, final = 
     -1152449.10684896  -1152449.10820809  -1152449.10820809
  Force two-norm initial, final = 0.16202841 0.00011081203
  Force max component initial, final = 0.094539656 2.2448556e-05
  Final line search alpha, max atom move = 0.5 1.1224278e-05
  Iterations, force evaluations = 176 353

MPI task timing breakdown:
Section |  min time  |  avg time  |  max time  |%varavg| %total
---------------------------------------------------------------
Pair    | 1.0037     | 2.8077     | 3.7195     |  46.2 | 71.36
Neigh   | 0          | 0          | 0          |   0.0 |  0.00
Comm    | 0.058163   | 0.63158    | 1.9583     |  70.1 | 16.05
Output  | 0          | 0          | 0          |   0.0 |  0.00
Modify  | 6.5504e-05 | 0.0059812  | 0.012717   |   3.6 |  0.15
Other   |            | 0.4892     |            |       | 12.43

Nlocal:        5552.90 ave        7921 max           0 min
Histogram: 4 2 2 0 3 5 4 2 13 17
Nghost:        6213.60 ave        8770 max         412 min
Histogram: 4 0 4 0 8 0 4 5 7 20
Neighs:       158426.0 ave      230877 max           0 min
Histogram: 4 2 2 0 5 3 4 4 12 16

Total # of neighbors = 8238172
Ave neighs/atom = 28.530367
Neighbor list builds = 0
Dangerous builds = 0
The dot product: 8.42394857650613e-09
Setting atom values ...
  1 settings made for x
  1 settings made for y
  1 settings made for z
Setting up cg style minimization ...
  Unit style    : metal
  Current step  : 25988
Per MPI rank memory allocation (min/avg/max) = 5.465 | 6.344 | 6.728 Mbytes
Step PotEng KinEng TotEng v_fx v_fy v_fz 
   25988   -1152449.1            0   -1152449.1 -0.0010623652 0.0061405297 0.0083877396 
   26000   -1152449.1            0   -1152449.1 0.00068450853 0.00051224792 0.00014475785 
   26158   -1152449.1            0   -1152449.1 1.0190298e-05 -8.7057275e-06 -1.8125177e-05 
Loop time of 3.80413 on 52 procs for 170 steps with 288751 atoms

99.8% CPU use with 52 MPI tasks x 1 OpenMP threads

Minimization stats:
  Stopping criterion = energy tolerance
  Energy initial, next-to-last, final = 
     -1152449.08705905  -1152449.08845546  -1152449.08845546
  Force two-norm initial, final = 0.16180879 0.00015818929
  Force max component initial, final = 0.095373582 3.4735912e-05
  Final line search alpha, max atom move = 1.0000000 3.4735912e-05
  Iterations, force evaluations = 170 340

MPI task timing breakdown:
Section |  min time  |  avg time  |  max time  |%varavg| %total
---------------------------------------------------------------
Pair    | 0.96972    | 2.7093     | 3.5857     |  45.2 | 71.22
Neigh   | 0          | 0          | 0          |   0.0 |  0.00
Comm    | 0.060131   | 0.61351    | 1.904      |  68.7 | 16.13
Output  | 0.00021345 | 0.00021752 | 0.00038354 |   0.0 |  0.01
Modify  | 6.1793e-05 | 0.0057462  | 0.012137   |   3.5 |  0.15
Other   |            | 0.4754     |            |       | 12.50

Nlocal:        5552.90 ave        7921 max           0 min
Histogram: 4 2 2 0 3 5 4 2 13 17
Nghost:        6213.60 ave        8770 max         412 min
Histogram: 4 0 4 0 8 0 4 5 7 20
Neighs:       158426.0 ave      230892 max           0 min
Histogram: 4 2 2 0 5 3 4 4 12 16

Total # of neighbors = 8238172
Ave neighs/atom = 28.530367
Neighbor list builds = 0
Dangerous builds = 0
The dot product: -1.81270387717875e-08
Setting atom values ...
  1 settings made for x
  1 settings made for y
  1 settings made for z
Setting up cg style minimization ...
  Unit style    : metal
  Current step  : 26158
Per MPI rank memory allocation (min/avg/max) = 5.465 | 6.344 | 6.728 Mbytes
Step PotEng KinEng TotEng v_fx v_fy v_fz 
   26158   -1152449.1            0   -1152449.1 -0.0011751056  0.005187336 0.0072925891 
   26356   -1152449.1            0   -1152449.1 2.5105165e-06 2.2612908e-06 1.0102834e-06 
Loop time of 4.43618 on 52 procs for 198 steps with 288751 atoms

99.9% CPU use with 52 MPI tasks x 1 OpenMP threads

Minimization stats:
  Stopping criterion = linesearch alpha is zero
  Energy initial, next-to-last, final = 
     -1152449.06626219  -1152449.06764824  -1152449.06764824
  Force two-norm initial, final = 0.16179548 6.9028072e-05
  Force max component initial, final = 0.09608583 9.3048681e-06
  Final line search alpha, max atom move = 0.5 4.6524341e-06
  Iterations, force evaluations = 198 397

MPI task timing breakdown:
Section |  min time  |  avg time  |  max time  |%varavg| %total
---------------------------------------------------------------
Pair    | 1.136      | 3.1596     | 4.1922     |  48.9 | 71.22
Neigh   | 0          | 0          | 0          |   0.0 |  0.00
Comm    | 0.067119   | 0.7118     | 2.2089     |  74.3 | 16.05
Output  | 0          | 0          | 0          |   0.0 |  0.00
Modify  | 7.459e-05  | 0.006719   | 0.014181   |   3.8 |  0.15
Other   |            | 0.5581     |            |       | 12.58

Nlocal:        5552.90 ave        7921 max           0 min
Histogram: 4 2 2 0 3 5 4 2 13 17
Nghost:        6213.60 ave        8770 max         412 min
Histogram: 4 0 4 0 8 0 4 5 7 20
Neighs:       158426.0 ave      230897 max           0 min
Histogram: 4 2 2 0 5 3 4 4 12 16

Total # of neighbors = 8238171
Ave neighs/atom = 28.530364
Neighbor list builds = 0
Dangerous builds = 0
The dot product: 6.96853522634202e-09
Setting atom values ...
  1 settings made for x
  1 settings made for y
  1 settings made for z
Setting up cg style minimization ...
  Unit style    : metal
  Current step  : 26356
Per MPI rank memory allocation (min/avg/max) = 5.465 | 6.344 | 6.728 Mbytes
Step PotEng KinEng TotEng v_fx v_fy v_fz 
   26356     -1152449            0     -1152449 -0.0011585791 0.0043049967 0.0061891391 
   26555     -1152449            0     -1152449 -1.8128058e-05 -6.1967365e-06 5.2878667e-06 
Loop time of 4.44045 on 52 procs for 199 steps with 288751 atoms

99.9% CPU use with 52 MPI tasks x 1 OpenMP threads

Minimization stats:
  Stopping criterion = linesearch alpha is zero
  Energy initial, next-to-last, final = 
     -1152449.04430517  -1152449.04565829  -1152449.04565829
  Force two-norm initial, final = 0.16193994 7.4885411e-05
  Force max component initial, final = 0.096812649 1.8128058e-05
  Final line search alpha, max atom move = 0.5 9.0640288e-06
  Iterations, force evaluations = 199 399

MPI task timing breakdown:
Section |  min time  |  avg time  |  max time  |%varavg| %total
---------------------------------------------------------------
Pair    | 1.1372     | 3.1748     | 4.1981     |  49.1 | 71.50
Neigh   | 0          | 0          | 0          |   0.0 |  0.00
Comm    | 0.06303    | 0.71357    | 2.2131     |  74.5 | 16.07
Output  | 0          | 0          | 0          |   0.0 |  0.00
Modify  | 7.3957e-05 | 0.0067411  | 0.014228   |   3.8 |  0.15
Other   |            | 0.5453     |            |       | 12.28

Nlocal:        5552.90 ave        7920 max           0 min
Histogram: 4 2 2 0 2 6 4 2 13 17
Nghost:        6213.67 ave        8770 max         412 min
Histogram: 4 0 4 0 8 0 4 5 7 20
Neighs:       158426.0 ave      230872 max           0 min
Histogram: 4 2 2 0 5 3 4 4 12 16

Total # of neighbors = 8238170
Ave neighs/atom = 28.530360
Neighbor list builds = 0
Dangerous builds = 0
The dot product: -2.19377667349219e-08
Setting atom values ...
  1 settings made for x
  1 settings made for y
  1 settings made for z
Setting up cg style minimization ...
  Unit style    : metal
  Current step  : 26555
Per MPI rank memory allocation (min/avg/max) = 5.465 | 6.344 | 6.728 Mbytes
Step PotEng KinEng TotEng v_fx v_fy v_fz 
   26555     -1152449            0     -1152449 -0.00086583708 0.0035181037 0.0050034334 
   26749     -1152449            0     -1152449 -2.6197635e-06 -6.2662171e-07 1.0974276e-06 
Loop time of 4.34181 on 52 procs for 194 steps with 288751 atoms

99.9% CPU use with 52 MPI tasks x 1 OpenMP threads

Minimization stats:
  Stopping criterion = energy tolerance
  Energy initial, next-to-last, final = 
     -1152449.02104529  -1152449.02237784  -1152449.02237784
  Force two-norm initial, final = 0.16218827 8.5837068e-05
  Force max component initial, final = 0.097479198 1.0488045e-05
  Final line search alpha, max atom move = 1.0000000 1.0488045e-05
  Iterations, force evaluations = 194 388

MPI task timing breakdown:
Section |  min time  |  avg time  |  max time  |%varavg| %total
---------------------------------------------------------------
Pair    | 1.1114     | 3.0896     | 4.0967     |  48.4 | 71.16
Neigh   | 0          | 0          | 0          |   0.0 |  0.00
Comm    | 0.064629   | 0.6967     | 2.1577     |  73.1 | 16.05
Output  | 0          | 0          | 0          |   0.0 |  0.00
Modify  | 7.3799e-05 | 0.0065577  | 0.013855   |   3.7 |  0.15
Other   |            | 0.5489     |            |       | 12.64

Nlocal:        5552.90 ave        7920 max           0 min
Histogram: 4 2 2 0 2 6 4 2 13 17
Nghost:        6213.67 ave        8770 max         412 min
Histogram: 4 0 4 0 8 0 4 5 7 20
Neighs:       158426.0 ave      230866 max           0 min
Histogram: 4 2 2 0 5 3 4 4 12 16

Total # of neighbors = 8238171
Ave neighs/atom = 28.530364
Neighbor list builds = 0
Dangerous builds = 0
The dot product: -2.56239239846647e-09
Setting atom values ...
  1 settings made for x
  1 settings made for y
  1 settings made for z
Setting up cg style minimization ...
  Unit style    : metal
  Current step  : 26749
Per MPI rank memory allocation (min/avg/max) = 5.465 | 6.344 | 6.728 Mbytes
Step PotEng KinEng TotEng v_fx v_fy v_fz 
   26749     -1152449            0     -1152449 -0.00024352368 0.0028483995 0.0037255354 
   26953     -1152449            0     -1152449 4.9202829e-06 -1.345718e-06 -5.2033884e-06 
Loop time of 4.53715 on 52 procs for 204 steps with 288751 atoms

99.9% CPU use with 52 MPI tasks x 1 OpenMP threads

Minimization stats:
  Stopping criterion = linesearch alpha is zero
  Energy initial, next-to-last, final = 
     -1152448.99639367  -1152448.99770811  -1152448.99770811
  Force two-norm initial, final = 0.16261599 7.1041970e-05
  Force max component initial, final = 0.09807955 1.1318592e-05
  Final line search alpha, max atom move = 0.5 5.6592960e-06
  Iterations, force evaluations = 204 409

MPI task timing breakdown:
Section |  min time  |  avg time  |  max time  |%varavg| %total
---------------------------------------------------------------
Pair    | 1.1685     | 3.2529     | 4.2871     |  49.6 | 71.69
Neigh   | 0          | 0          | 0          |   0.0 |  0.00
Comm    | 0.064358   | 0.72746    | 2.2696     |  76.1 | 16.03
Output  | 0          | 0          | 0          |   0.0 |  0.00
Modify  | 7.6696e-05 | 0.0069135  | 0.014602   |   3.8 |  0.15
Other   |            | 0.5499     |            |       | 12.12

Nlocal:        5552.90 ave        7920 max           0 min
Histogram: 4 2 2 0 2 6 4 2 13 17
Nghost:        6213.71 ave        8770 max         412 min
Histogram: 4 0 4 0 8 0 4 5 7 20
Neighs:       158426.0 ave      230861 max           0 min
Histogram: 4 2 2 0 5 3 4 4 12 16

Total # of neighbors = 8238173
Ave neighs/atom = 28.530370
Neighbor list builds = 0
Dangerous builds = 0
The dot product: 2.24742340863445e-09
Setting atom values ...
  1 settings made for x
  1 settings made for y
  1 settings made for z
Setting up cg style minimization ...
  Unit style    : metal
  Current step  : 26953
Per MPI rank memory allocation (min/avg/max) = 5.465 | 6.344 | 6.728 Mbytes
Step PotEng KinEng TotEng v_fx v_fy v_fz 
   26953     -1152449            0     -1152449 0.00057604922 0.0022518903  0.002396339 
   27000     -1152449            0     -1152449 4.1853646e-05 -0.00012304223 -0.00018344849 
   27146     -1152449            0     -1152449 1.6012767e-06 6.8480042e-06 7.3950452e-06 
Loop time of 4.30859 on 52 procs for 193 steps with 288751 atoms

99.9% CPU use with 52 MPI tasks x 1 OpenMP threads

Minimization stats:
  Stopping criterion = energy tolerance
  Energy initial, next-to-last, final = 
     -1152448.97024966  -1152448.97154957  -1152448.97154957
  Force two-norm initial, final = 0.1632701 9.8500717e-05
  Force max component initial, final = 0.098674428 1.8311298e-05
  Final line search alpha, max atom move = 1.0000000 1.8311298e-05
  Iterations, force evaluations = 193 386

MPI task timing breakdown:
Section |  min time  |  avg time  |  max time  |%varavg| %total
---------------------------------------------------------------
Pair    | 1.1001     | 3.0721     | 4.0695     |  48.3 | 71.30
Neigh   | 0          | 0          | 0          |   0.0 |  0.00
Comm    | 0.060152   | 0.69376    | 2.1568     |  73.2 | 16.10
Output  | 0.0002021  | 0.00020734 | 0.00038469 |   0.0 |  0.00
Modify  | 6.7672e-05 | 0.006529   | 0.013694   |   3.7 |  0.15
Other   |            | 0.536      |            |       | 12.44

Nlocal:        5552.90 ave        7920 max           0 min
Histogram: 4 2 2 0 2 6 4 2 13 17
Nghost:        6213.67 ave        8770 max         412 min
Histogram: 4 0 4 0 8 0 4 5 7 20
Neighs:       158426.0 ave      230865 max           0 min
Histogram: 4 2 2 0 5 3 4 4 12 16

Total # of neighbors = 8238171
Ave neighs/atom = 28.530364
Neighbor list builds = 0
Dangerous builds = 0
The dot product: 6.99201217769939e-09
Setting atom values ...
  1 settings made for x
  1 settings made for y
  1 settings made for z
Setting up cg style minimization ...
  Unit style    : metal
  Current step  : 27146
Per MPI rank memory allocation (min/avg/max) = 5.465 | 6.344 | 6.728 Mbytes
Step PotEng KinEng TotEng v_fx v_fy v_fz 
   27146   -1152448.9            0   -1152448.9 0.0014203946 0.0017466728  0.001163014 
   27385   -1152448.9            0   -1152448.9 3.5399785e-07 -6.9876103e-07 -1.1251945e-06 
Loop time of 5.34752 on 52 procs for 239 steps with 288751 atoms

99.9% CPU use with 52 MPI tasks x 1 OpenMP threads

Minimization stats:
  Stopping criterion = linesearch alpha is zero
  Energy initial, next-to-last, final = 
     -1152448.94252208  -1152448.94381621  -1152448.94381621
  Force two-norm initial, final = 0.16415924 1.4859002e-05
  Force max component initial, final = 0.099249515 4.4042909e-06
  Final line search alpha, max atom move = 0.5 2.2021455e-06
  Iterations, force evaluations = 239 479

MPI task timing breakdown:
Section |  min time  |  avg time  |  max time  |%varavg| %total
---------------------------------------------------------------
Pair    | 1.3679     | 3.8122     | 5.056      |  53.8 | 71.29
Neigh   | 0          | 0          | 0          |   0.0 |  0.00
Comm    | 0.075872   | 0.85878    | 2.658      |  81.4 | 16.06
Output  | 0          | 0          | 0          |   0.0 |  0.00
Modify  | 8.3843e-05 | 0.0080787  | 0.017041   |   4.1 |  0.15
Other   |            | 0.6685     |            |       | 12.50

Nlocal:        5552.90 ave        7920 max           0 min
Histogram: 4 2 2 0 2 6 4 2 13 17
Nghost:        6213.69 ave        8771 max         412 min
Histogram: 4 0 4 0 8 0 4 5 7 20
Neighs:       158426.0 ave      230864 max           0 min
Histogram: 4 2 2 0 5 3 4 4 12 16

Total # of neighbors = 8238172
Ave neighs/atom = 28.530367
Neighbor list builds = 0
Dangerous builds = 0
The dot product: 1.65976775509322e-10
Setting atom values ...
  1 settings made for x
  1 settings made for y
  1 settings made for z
Setting up cg style minimization ...
  Unit style    : metal
  Current step  : 27385
Per MPI rank memory allocation (min/avg/max) = 5.465 | 6.344 | 6.728 Mbytes
Step PotEng KinEng TotEng v_fx v_fy v_fz 
   27385   -1152448.9            0   -1152448.9 0.0020841648 0.0012918538 0.00012223399 
   27574   -1152448.9            0   -1152448.9 1.8878292e-05 1.2476895e-05 2.074778e-06 
Loop time of 4.25088 on 52 procs for 189 steps with 288751 atoms

99.8% CPU use with 52 MPI tasks x 1 OpenMP threads

Minimization stats:
  Stopping criterion = linesearch alpha is zero
  Energy initial, next-to-last, final = 
     -1152448.91314135  -1152448.91443507  -1152448.91443507
  Force two-norm initial, final = 0.16520777 0.00012065616
  Force max component initial, final = 0.099773589 3.9390475e-05
  Final line search alpha, max atom move = 0.5 1.9695238e-05
  Iterations, force evaluations = 189 379

MPI task timing breakdown:
Section |  min time  |  avg time  |  max time  |%varavg| %total
---------------------------------------------------------------
Pair    | 1.0805     | 3.0265     | 3.9878     |  47.9 | 71.20
Neigh   | 0          | 0          | 0          |   0.0 |  0.00
Comm    | 0.060601   | 0.6821     | 2.1175     |  72.7 | 16.05
Output  | 0          | 0          | 0          |   0.0 |  0.00
Modify  | 6.764e-05  | 0.0064191  | 0.013584   |   3.7 |  0.15
Other   |            | 0.5358     |            |       | 12.61

Nlocal:        5552.90 ave        7920 max           0 min
Histogram: 4 2 2 0 2 6 4 2 13 17
Nghost:        6213.54 ave        8770 max         412 min
Histogram: 4 0 4 0 8 0 4 5 7 20
Neighs:       158426.0 ave      230858 max           0 min
Histogram: 4 2 2 0 5 3 4 4 12 16

Total # of neighbors = 8238170
Ave neighs/atom = 28.530360
Neighbor list builds = 0
Dangerous builds = 0
The dot product: 2.90866093894661e-08
Setting atom values ...
  1 settings made for x
  1 settings made for y
  1 settings made for z
Setting up cg style minimization ...
  Unit style    : metal
  Current step  : 27574
Per MPI rank memory allocation (min/avg/max) = 5.465 | 6.344 | 6.728 Mbytes
Step PotEng KinEng TotEng v_fx v_fy v_fz 
   27574   -1152448.9            0   -1152448.9 0.0023684291 0.00090781809 -0.00055838681 
   27712   -1152448.9            0   -1152448.9 6.2799817e-05 6.6276478e-05 3.7869193e-05 
Loop time of 3.09863 on 52 procs for 138 steps with 288751 atoms

99.9% CPU use with 52 MPI tasks x 1 OpenMP threads

Minimization stats:
  Stopping criterion = energy tolerance
  Energy initial, next-to-last, final = 
     -1152448.88204782  -1152448.88334344  -1152448.88334344
  Force two-norm initial, final = 0.16634026 0.0004569768
  Force max component initial, final = 0.10022662 0.00014932284
  Final line search alpha, max atom move = 1.0000000 0.00014932284
  Iterations, force evaluations = 138 276

MPI task timing breakdown:
Section |  min time  |  avg time  |  max time  |%varavg| %total
---------------------------------------------------------------
Pair    | 0.78758    | 2.1987     | 2.9233     |  40.9 | 70.96
Neigh   | 0          | 0          | 0          |   0.0 |  0.00
Comm    | 0.044274   | 0.4972     | 1.54       |  61.9 | 16.05
Output  | 0          | 0          | 0          |   0.0 |  0.00
Modify  | 5.101e-05  | 0.004664   | 0.0098157  |   3.2 |  0.15
Other   |            | 0.3981     |            |       | 12.85

Nlocal:        5552.90 ave        7920 max           0 min
Histogram: 4 2 2 0 2 6 4 2 13 17
Nghost:        6213.54 ave        8770 max         412 min
Histogram: 4 0 4 0 8 0 4 5 7 20
Neighs:       158426.0 ave      230857 max           0 min
Histogram: 4 2 2 0 5 3 4 4 12 16

Total # of neighbors = 8238169
Ave neighs/atom = 28.530357
Neighbor list builds = 0
Dangerous builds = 0
The dot product: 9.60411274823677e-08
