LAMMPS (29 Oct 2020)
OMP_NUM_THREADS environment is not set. Defaulting to 1 thread. (../comm.cpp:94)
  using 1 OpenMP thread(s) per MPI task
OMP_NUM_THREADS environment is not set. Defaulting to 1 thread. (../comm.cpp:94)
  using 1 OpenMP thread(s) per MPI task
Reading data file ...
  orthogonal box = (-122.39241 -121.13707 -37.090501) to (122.39241 121.13707 37.090501)
  13 by 4 by 2 MPI processor grid
  reading atoms ...
  288751 atoms
  read_data CPU = 0.486 seconds
199981 atoms in group inner
88770 atoms in group outer
1 atoms in group carbon
Neighbor list info ...
  update every 1 steps, delay 0 steps, check yes
  max neighbors/atom: 2000, page size: 100000
  master list distance cutoff = 5.6
  ghost atom cutoff = 5.6
  binsize = 2.8, bins = 88 87 27
  1 neighbor lists, perpetual/occasional/extra = 1 0 0
  (1) pair eam/alloy, perpetual
      attributes: half, newton on
      pair build: half/bin/atomonly/newton
      stencil: half/bin/3d/newton
      bin: standard
Setting up cg style minimization ...
  Unit style    : metal
  Current step  : 0
Per MPI rank memory allocation (min/avg/max) = 5.441 | 5.816 | 6.074 Mbytes
Step v_fx v_fy v_fz PotEng KinEng TotEng 
       0    25.713276    15.281601   -50.644842   -1152433.2            0   -1152433.2 
     164 -2.4639943e-05 -3.6060013e-05 -4.8796808e-07   -1152449.5            0   -1152449.5 
Loop time of 1.95157 on 104 procs for 164 steps with 288751 atoms

99.8% CPU use with 104 MPI tasks x 1 OpenMP threads

Minimization stats:
  Stopping criterion = energy tolerance
  Energy initial, next-to-last, final = 
     -1152433.24353111   -1152449.4503526   -1152449.4503526
  Force two-norm initial, final = 88.144329 0.00014322735
  Force max component initial, final = 57.823541 3.6060013e-05
  Final line search alpha, max atom move = 1.0000000 3.6060013e-05
  Iterations, force evaluations = 164 319

MPI task timing breakdown:
Section |  min time  |  avg time  |  max time  |%varavg| %total
---------------------------------------------------------------
Pair    | 0.51719    | 1.3658     | 1.7798     |  30.8 | 69.98
Neigh   | 5.9804e-05 | 0.01609    | 0.024444   |   5.3 |  0.82
Comm    | 0.033276   | 0.32305    | 0.93833    |  44.6 | 16.55
Output  | 0          | 0          | 0          |   0.0 |  0.00
Modify  | 1.9125e-05 | 0.0017564  | 0.0044522  |   2.6 |  0.09
Other   |            | 0.2449     |            |       | 12.55

Nlocal:        2776.45 ave        3961 max           0 min
Histogram: 8 4 4 0 6 10 8 2 28 34
Nghost:        3879.01 ave        5425 max         232 min
Histogram: 8 0 8 0 16 0 8 8 16 40
Neighs:        79213.5 ave      115455 max           0 min
Histogram: 8 4 4 0 10 6 8 8 24 32

Total # of neighbors = 8238207
Ave neighs/atom = 28.530488
Neighbor list builds = 5
Dangerous builds = 0
Setting atom values ...
  1 settings made for x
  1 settings made for y
  1 settings made for z
Setting up cg style minimization ...
  Unit style    : metal
  Current step  : 164
Per MPI rank memory allocation (min/avg/max) = 5.441 | 5.816 | 6.074 Mbytes
Step PotEng KinEng TotEng v_fx v_fy v_fz 
     164   -1152449.4            0   -1152449.4  0.007392953  -0.01510547  -0.02455602 
     379   -1152449.5            0   -1152449.5 1.3114598e-06 -9.2473069e-07 -2.8548563e-06 
Loop time of 2.6109 on 104 procs for 215 steps with 288751 atoms

99.8% CPU use with 104 MPI tasks x 1 OpenMP threads

Minimization stats:
  Stopping criterion = energy tolerance
  Energy initial, next-to-last, final = 
      -1152449.4496528  -1152449.45007931  -1152449.45007931
  Force two-norm initial, final = 0.094098908 2.5712211e-05
  Force max component initial, final = 0.043954234 3.4676054e-06
  Final line search alpha, max atom move = 1.0000000 3.4676054e-06
  Iterations, force evaluations = 215 430

MPI task timing breakdown:
Section |  min time  |  avg time  |  max time  |%varavg| %total
---------------------------------------------------------------
Pair    | 0.65771    | 1.8333     | 2.4147     |  36.7 | 70.22
Neigh   | 0          | 0          | 0          |   0.0 |  0.00
Comm    | 0.047391   | 0.42573    | 1.2557     |  52.1 | 16.31
Output  | 0          | 0          | 0          |   0.0 |  0.00
Modify  | 2.9013e-05 | 0.0035688  | 0.0075516  |   2.8 |  0.14
Other   |            | 0.3483     |            |       | 13.34

Nlocal:        2776.45 ave        3961 max           0 min
Histogram: 8 4 4 0 6 10 8 2 28 34
Nghost:        3879.01 ave        5425 max         232 min
Histogram: 8 0 8 0 16 0 8 8 16 40
Neighs:        79213.4 ave      115455 max           0 min
Histogram: 8 4 4 0 10 6 8 8 24 32

Total # of neighbors = 8238197
Ave neighs/atom = 28.530454
Neighbor list builds = 0
Dangerous builds = 0
Setting atom values ...
  1 settings made for x
  1 settings made for y
  1 settings made for z
Setting up cg style minimization ...
  Unit style    : metal
  Current step  : 379
Per MPI rank memory allocation (min/avg/max) = 5.441 | 5.816 | 6.074 Mbytes
Step PotEng KinEng TotEng v_fx v_fy v_fz 
     379   -1152449.4            0   -1152449.4 0.0084727106 -0.017038488 -0.038866185 
     543   -1152449.4            0   -1152449.4 2.5129589e-06 -1.8092778e-05 -2.8102737e-05 
Loop time of 1.97231 on 104 procs for 164 steps with 288751 atoms

99.9% CPU use with 104 MPI tasks x 1 OpenMP threads

Minimization stats:
  Stopping criterion = energy tolerance
  Energy initial, next-to-last, final = 
     -1152449.44696253  -1152449.44825548  -1152449.44825548
  Force two-norm initial, final = 0.1611085 0.00026008664
  Force max component initial, final = 0.08722276 6.3662323e-05
  Final line search alpha, max atom move = 1.0000000 6.3662323e-05
  Iterations, force evaluations = 164 328

MPI task timing breakdown:
Section |  min time  |  avg time  |  max time  |%varavg| %total
---------------------------------------------------------------
Pair    | 0.50607    | 1.3854     | 1.8254     |  31.7 | 70.24
Neigh   | 0          | 0          | 0          |   0.0 |  0.00
Comm    | 0.028943   | 0.31958    | 0.93922    |  45.6 | 16.20
Output  | 0          | 0          | 0          |   0.0 |  0.00
Modify  | 2.0159e-05 | 0.0027242  | 0.0058156  |   2.4 |  0.14
Other   |            | 0.2646     |            |       | 13.42

Nlocal:        2776.45 ave        3961 max           0 min
Histogram: 8 4 4 0 6 10 8 2 28 34
Nghost:        3878.99 ave        5424 max         232 min
Histogram: 8 0 8 0 16 0 8 8 16 40
Neighs:        79213.4 ave      115455 max           0 min
Histogram: 8 4 4 0 10 6 8 8 24 32

Total # of neighbors = 8238196
Ave neighs/atom = 28.530450
Neighbor list builds = 0
Dangerous builds = 0
The dot product: 8.64852396897648e-08
Setting atom values ...
  1 settings made for x
  1 settings made for y
  1 settings made for z
Setting up cg style minimization ...
  Unit style    : metal
  Current step  : 543
Per MPI rank memory allocation (min/avg/max) = 5.441 | 5.816 | 6.074 Mbytes
Step PotEng KinEng TotEng v_fx v_fy v_fz 
     543   -1152449.4            0   -1152449.4 0.0059229715 -0.0096720742 -0.031463755 
     661   -1152449.4            0   -1152449.4 -1.5557623e-06 -1.2105047e-05 -1.6517126e-05 
Loop time of 1.43181 on 104 procs for 118 steps with 288751 atoms

99.9% CPU use with 104 MPI tasks x 1 OpenMP threads

Minimization stats:
  Stopping criterion = energy tolerance
  Energy initial, next-to-last, final = 
     -1152449.44358741  -1152449.44482224  -1152449.44482224
  Force two-norm initial, final = 0.15528566 0.00022779886
  Force max component initial, final = 0.092273431 1.9115222e-05
  Final line search alpha, max atom move = 1.0000000 1.9115222e-05
  Iterations, force evaluations = 118 236

MPI task timing breakdown:
Section |  min time  |  avg time  |  max time  |%varavg| %total
---------------------------------------------------------------
Pair    | 0.36417    | 1.0022     | 1.3294     |  26.9 | 70.00
Neigh   | 0          | 0          | 0          |   0.0 |  0.00
Comm    | 0.027423   | 0.23343    | 0.67512    |  38.5 | 16.30
Output  | 0          | 0          | 0          |   0.0 |  0.00
Modify  | 1.4587e-05 | 0.001956   | 0.004163   |   2.1 |  0.14
Other   |            | 0.1942     |            |       | 13.56

Nlocal:        2776.45 ave        3961 max           0 min
Histogram: 8 4 4 0 6 10 8 2 28 34
Nghost:        3878.99 ave        5424 max         232 min
Histogram: 8 0 8 0 16 0 8 8 16 40
Neighs:        79213.4 ave      115455 max           0 min
Histogram: 8 4 4 0 10 6 8 8 24 32

Total # of neighbors = 8238193
Ave neighs/atom = 28.530440
Neighbor list builds = 0
Dangerous builds = 0
The dot product: 4.26070214456793e-08
Setting atom values ...
  1 settings made for x
  1 settings made for y
  1 settings made for z
Setting up cg style minimization ...
  Unit style    : metal
  Current step  : 661
Per MPI rank memory allocation (min/avg/max) = 5.441 | 5.816 | 6.074 Mbytes
Step PotEng KinEng TotEng v_fx v_fy v_fz 
     661   -1152449.4            0   -1152449.4 0.0023448669 -0.0090234063 -0.025057926 
     794   -1152449.4            0   -1152449.4 -2.2506803e-06 9.6305398e-06 2.5993533e-05 
Loop time of 1.58344 on 104 procs for 133 steps with 288751 atoms

99.9% CPU use with 104 MPI tasks x 1 OpenMP threads

Minimization stats:
  Stopping criterion = energy tolerance
  Energy initial, next-to-last, final = 
      -1152449.4386942  -1152449.43988018  -1152449.43988018
  Force two-norm initial, final = 0.15172959 0.0001912002
  Force max component initial, final = 0.09599379 2.5993533e-05
  Final line search alpha, max atom move = 1.0000000 2.5993533e-05
  Iterations, force evaluations = 133 266

MPI task timing breakdown:
Section |  min time  |  avg time  |  max time  |%varavg| %total
---------------------------------------------------------------
Pair    | 0.42018    | 1.1241     | 1.474      |  28.1 | 70.99
Neigh   | 0          | 0          | 0          |   0.0 |  0.00
Comm    | 0.024416   | 0.2564     | 0.7565     |  41.4 | 16.19
Output  | 0          | 0          | 0          |   0.0 |  0.00
Modify  | 1.6647e-05 | 0.0022081  | 0.0046877  |   2.2 |  0.14
Other   |            | 0.2008     |            |       | 12.68

Nlocal:        2776.45 ave        3961 max           0 min
Histogram: 8 4 4 0 6 10 8 2 28 34
Nghost:        3878.99 ave        5424 max         232 min
Histogram: 8 0 8 0 16 0 8 8 16 40
Neighs:        79213.4 ave      115457 max           0 min
Histogram: 8 4 4 0 10 6 8 8 24 32

Total # of neighbors = 8238194
Ave neighs/atom = 28.530443
Neighbor list builds = 0
Dangerous builds = 0
The dot product: -5.42876199361948e-08
Setting atom values ...
  1 settings made for x
  1 settings made for y
  1 settings made for z
Setting up cg style minimization ...
  Unit style    : metal
  Current step  : 794
Per MPI rank memory allocation (min/avg/max) = 5.441 | 5.816 | 6.074 Mbytes
Step PotEng KinEng TotEng v_fx v_fy v_fz 
     794   -1152449.4            0   -1152449.4 -0.0028661762 -0.012807764 -0.019494033 
     942   -1152449.4            0   -1152449.4 -4.5424466e-07 -2.4656495e-06 -4.0729873e-06 
Loop time of 1.74978 on 104 procs for 148 steps with 288751 atoms

99.9% CPU use with 104 MPI tasks x 1 OpenMP threads

Minimization stats:
  Stopping criterion = energy tolerance
  Energy initial, next-to-last, final = 
     -1152449.43236532  -1152449.43353182  -1152449.43353182
  Force two-norm initial, final = 0.15010702 0.00017406218
  Force max component initial, final = 0.099047474 1.9365844e-05
  Final line search alpha, max atom move = 1.0000000 1.9365844e-05
  Iterations, force evaluations = 148 296

MPI task timing breakdown:
Section |  min time  |  avg time  |  max time  |%varavg| %total
---------------------------------------------------------------
Pair    | 0.44967    | 1.2526     | 1.6366     |  30.2 | 71.58
Neigh   | 0          | 0          | 0          |   0.0 |  0.00
Comm    | 0.027333   | 0.28481    | 0.84702    |  43.8 | 16.28
Output  | 0          | 0          | 0          |   0.0 |  0.00
Modify  | 1.8059e-05 | 0.0024522  | 0.0051938  |   2.3 |  0.14
Other   |            | 0.21       |            |       | 12.00

Nlocal:        2776.45 ave        3961 max           0 min
Histogram: 8 4 4 0 6 10 8 2 28 34
Nghost:        3878.99 ave        5424 max         232 min
Histogram: 8 0 8 0 16 0 8 8 16 40
Neighs:        79213.4 ave      115457 max           0 min
Histogram: 8 4 4 0 10 6 8 8 24 32

Total # of neighbors = 8238194
Ave neighs/atom = 28.530443
Neighbor list builds = 0
Dangerous builds = 0
The dot product: 1.22303858151228e-08
Setting atom values ...
  1 settings made for x
  1 settings made for y
  1 settings made for z
Setting up cg style minimization ...
  Unit style    : metal
  Current step  : 942
Per MPI rank memory allocation (min/avg/max) = 5.441 | 5.816 | 6.074 Mbytes
Step PotEng KinEng TotEng v_fx v_fy v_fz 
     942   -1152449.4            0   -1152449.4 -0.0078545372 -0.016471906 -0.014521698 
    1000   -1152449.4            0   -1152449.4 2.8664976e-05 3.449979e-06 -9.0090122e-05 
    1069   -1152449.4            0   -1152449.4 -8.3493799e-06 -6.8572154e-06 1.1462773e-05 
Loop time of 1.51178 on 104 procs for 127 steps with 288751 atoms

99.9% CPU use with 104 MPI tasks x 1 OpenMP threads

Minimization stats:
  Stopping criterion = energy tolerance
  Energy initial, next-to-last, final = 
     -1152449.42472333   -1152449.4258972   -1152449.4258972
  Force two-norm initial, final = 0.14951277 0.00015991578
  Force max component initial, final = 0.10166476 3.1205362e-05
  Final line search alpha, max atom move = 1.0000000 3.1205362e-05
  Iterations, force evaluations = 127 254

MPI task timing breakdown:
Section |  min time  |  avg time  |  max time  |%varavg| %total
---------------------------------------------------------------
Pair    | 0.38733    | 1.07       | 1.411      |  28.0 | 70.78
Neigh   | 0          | 0          | 0          |   0.0 |  0.00
Comm    | 0.027227   | 0.24532    | 0.72349    |  40.4 | 16.23
Output  | 0.00035038 | 0.00036404 | 0.00048266 |   0.0 |  0.02
Modify  | 1.5707e-05 | 0.0021038  | 0.0044879  |   2.2 |  0.14
Other   |            | 0.194      |            |       | 12.83

Nlocal:        2776.45 ave        3960 max           0 min
Histogram: 8 4 4 0 4 12 8 2 28 34
Nghost:        3878.99 ave        5424 max         232 min
Histogram: 8 0 8 0 16 0 8 8 16 40
Neighs:        79213.4 ave      115434 max           0 min
Histogram: 8 4 4 0 10 6 8 8 24 32

Total # of neighbors = 8238194
Ave neighs/atom = 28.530443
Neighbor list builds = 0
Dangerous builds = 0
The dot product: 3.45423794063834e-08
Setting atom values ...
  1 settings made for x
  1 settings made for y
  1 settings made for z
Setting up cg style minimization ...
  Unit style    : metal
  Current step  : 1069
Per MPI rank memory allocation (min/avg/max) = 5.441 | 5.816 | 6.074 Mbytes
Step PotEng KinEng TotEng v_fx v_fy v_fz 
    1069   -1152449.4            0   -1152449.4  -0.01085741 -0.017260947 -0.010327401 
    1233   -1152449.4            0   -1152449.4 2.4923764e-07 -2.173024e-05 -6.1764389e-05 
Loop time of 1.96269 on 104 procs for 164 steps with 288751 atoms

99.9% CPU use with 104 MPI tasks x 1 OpenMP threads

Minimization stats:
  Stopping criterion = energy tolerance
  Energy initial, next-to-last, final = 
     -1152449.41580242  -1152449.41698642  -1152449.41698642
  Force two-norm initial, final = 0.1493202 0.00017922556
  Force max component initial, final = 0.10381037 6.1764389e-05
  Final line search alpha, max atom move = 1.0000000 6.1764389e-05
  Iterations, force evaluations = 164 328

MPI task timing breakdown:
Section |  min time  |  avg time  |  max time  |%varavg| %total
---------------------------------------------------------------
Pair    | 0.49864    | 1.3859     | 1.8269     |  31.8 | 70.61
Neigh   | 0          | 0          | 0          |   0.0 |  0.00
Comm    | 0.036574   | 0.31791    | 0.93738    |  46.0 | 16.20
Output  | 0          | 0          | 0          |   0.0 |  0.00
Modify  | 2.3087e-05 | 0.0027116  | 0.00576    |   2.4 |  0.14
Other   |            | 0.2561     |            |       | 13.05

Nlocal:        2776.45 ave        3960 max           0 min
Histogram: 8 4 4 0 4 12 8 2 28 34
Nghost:        3878.99 ave        5424 max         232 min
Histogram: 8 0 8 0 16 0 8 8 16 40
Neighs:        79213.4 ave      115434 max           0 min
Histogram: 8 4 4 0 10 6 8 8 24 32

Total # of neighbors = 8238193
Ave neighs/atom = 28.530440
Neighbor list builds = 0
Dangerous builds = 0
The dot product: 1.54341110982381e-07
Setting atom values ...
  1 settings made for x
  1 settings made for y
  1 settings made for z
Setting up cg style minimization ...
  Unit style    : metal
  Current step  : 1233
Per MPI rank memory allocation (min/avg/max) = 5.441 | 5.816 | 6.074 Mbytes
Step PotEng KinEng TotEng v_fx v_fy v_fz 
    1233   -1152449.4            0   -1152449.4 -0.011631173 -0.015589984 -0.0070335717 
    1365   -1152449.4            0   -1152449.4 -3.4528254e-06 -1.1497101e-05 -2.3098385e-05 
Loop time of 1.54347 on 104 procs for 132 steps with 288751 atoms

99.9% CPU use with 104 MPI tasks x 1 OpenMP threads

Minimization stats:
  Stopping criterion = energy tolerance
  Energy initial, next-to-last, final = 
     -1152449.40558931   -1152449.4067748   -1152449.4067748
  Force two-norm initial, final = 0.14943198 0.00014047643
  Force max component initial, final = 0.10557081 2.3098385e-05
  Final line search alpha, max atom move = 1.0000000 2.3098385e-05
  Iterations, force evaluations = 132 264

MPI task timing breakdown:
Section |  min time  |  avg time  |  max time  |%varavg| %total
---------------------------------------------------------------
Pair    | 0.40043    | 1.1099     | 1.4547     |  28.5 | 71.91
Neigh   | 0          | 0          | 0          |   0.0 |  0.00
Comm    | 0.023893   | 0.2513     | 0.75099    |  41.8 | 16.28
Output  | 0          | 0          | 0          |   0.0 |  0.00
Modify  | 1.6328e-05 | 0.0021823  | 0.0046238  |   2.2 |  0.14
Other   |            | 0.1801     |            |       | 11.67

Nlocal:        2776.45 ave        3959 max           0 min
Histogram: 8 4 4 0 4 12 8 2 28 34
Nghost:        3878.99 ave        5424 max         232 min
Histogram: 8 0 8 0 16 0 8 8 16 40
Neighs:        79213.4 ave      115393 max           0 min
Histogram: 8 4 4 0 10 6 8 8 24 32

Total # of neighbors = 8238195
Ave neighs/atom = 28.530447
Neighbor list builds = 0
Dangerous builds = 0
The dot product: 8.47989137525616e-08
Setting atom values ...
  1 settings made for x
  1 settings made for y
  1 settings made for z
Setting up cg style minimization ...
  Unit style    : metal
  Current step  : 1365
Per MPI rank memory allocation (min/avg/max) = 5.441 | 5.816 | 6.074 Mbytes
Step PotEng KinEng TotEng v_fx v_fy v_fz 
    1365   -1152449.4            0   -1152449.4  -0.01046793 -0.012416914 -0.0045592273 
    1500   -1152449.4            0   -1152449.4 3.1389791e-05 3.2309014e-05 -2.5122196e-06 
Loop time of 1.62237 on 104 procs for 135 steps with 288751 atoms

99.9% CPU use with 104 MPI tasks x 1 OpenMP threads

Minimization stats:
  Stopping criterion = energy tolerance
  Energy initial, next-to-last, final = 
     -1152449.39404943  -1152449.39522744  -1152449.39522744
  Force two-norm initial, final = 0.14972157 0.00016919016
  Force max component initial, final = 0.10707346 3.2309014e-05
  Final line search alpha, max atom move = 1.0000000 3.2309014e-05
  Iterations, force evaluations = 135 270

MPI task timing breakdown:
Section |  min time  |  avg time  |  max time  |%varavg| %total
---------------------------------------------------------------
Pair    | 0.41255    | 1.1463     | 1.5208     |  28.9 | 70.66
Neigh   | 0          | 0          | 0          |   0.0 |  0.00
Comm    | 0.027081   | 0.26269    | 0.77265    |  41.8 | 16.19
Output  | 0          | 0          | 0          |   0.0 |  0.00
Modify  | 1.6617e-05 | 0.0022334  | 0.0047428  |   2.2 |  0.14
Other   |            | 0.2111     |            |       | 13.01

Nlocal:        2776.45 ave        3958 max           0 min
Histogram: 8 4 4 0 4 12 8 2 28 34
Nghost:        3878.99 ave        5424 max         232 min
Histogram: 8 0 8 0 16 0 8 8 16 40
Neighs:        79213.4 ave      115368 max           0 min
Histogram: 8 4 4 0 10 6 8 8 24 32

Total # of neighbors = 8238196
Ave neighs/atom = 28.530450
Neighbor list builds = 0
Dangerous builds = 0
The dot product: -2.52793237407953e-07
Setting atom values ...
  1 settings made for x
  1 settings made for y
  1 settings made for z
Setting up cg style minimization ...
  Unit style    : metal
  Current step  : 1500
Per MPI rank memory allocation (min/avg/max) = 5.441 | 5.816 | 6.074 Mbytes
Step PotEng KinEng TotEng v_fx v_fy v_fz 
    1500   -1152449.4            0   -1152449.4 -0.0078873518 -0.0085562868 -0.002737039 
    1633   -1152449.4            0   -1152449.4 1.7430051e-05 1.7626455e-05 1.5869719e-06 
Loop time of 1.58452 on 104 procs for 133 steps with 288751 atoms

99.9% CPU use with 104 MPI tasks x 1 OpenMP threads

Minimization stats:
  Stopping criterion = energy tolerance
  Energy initial, next-to-last, final = 
     -1152449.38114647  -1152449.38231335  -1152449.38231335
  Force two-norm initial, final = 0.1502031 0.00018175934
  Force max component initial, final = 0.10840737 3.4458389e-05
  Final line search alpha, max atom move = 1.0000000 3.4458389e-05
  Iterations, force evaluations = 133 266

MPI task timing breakdown:
Section |  min time  |  avg time  |  max time  |%varavg| %total
---------------------------------------------------------------
Pair    | 0.4071     | 1.1237     | 1.4786     |  28.7 | 70.92
Neigh   | 0          | 0          | 0          |   0.0 |  0.00
Comm    | 0.023076   | 0.25698    | 0.76189    |  41.6 | 16.22
Output  | 0          | 0          | 0          |   0.0 |  0.00
Modify  | 1.6222e-05 | 0.0022025  | 0.0046702  |   2.2 |  0.14
Other   |            | 0.2016     |            |       | 12.72

Nlocal:        2776.45 ave        3955 max           0 min
Histogram: 8 4 4 0 4 12 8 0 30 34
Nghost:        3878.99 ave        5424 max         232 min
Histogram: 8 0 8 0 16 0 8 8 16 40
Neighs:        79213.4 ave      115281 max           0 min
Histogram: 8 4 4 0 10 6 8 8 24 32

Total # of neighbors = 8238193
Ave neighs/atom = 28.530440
Neighbor list builds = 0
Dangerous builds = 0
The dot product: -1.21693465379162e-07
Setting atom values ...
  1 settings made for x
  1 settings made for y
  1 settings made for z
Setting up cg style minimization ...
  Unit style    : metal
  Current step  : 1633
Per MPI rank memory allocation (min/avg/max) = 5.441 | 5.816 | 6.074 Mbytes
Step PotEng KinEng TotEng v_fx v_fy v_fz 
    1633   -1152449.4            0   -1152449.4 -0.0044619814 -0.0045870448 -0.0015059845 
    1825   -1152449.4            0   -1152449.4 -2.8687881e-06 -5.7531008e-06 -1.1193793e-05 
Loop time of 2.26209 on 104 procs for 192 steps with 288751 atoms

99.9% CPU use with 104 MPI tasks x 1 OpenMP threads

Minimization stats:
  Stopping criterion = energy tolerance
  Energy initial, next-to-last, final = 
     -1152449.36685609  -1152449.36801305  -1152449.36801305
  Force two-norm initial, final = 0.15090596 5.1872779e-05
  Force max component initial, final = 0.10978279 1.1193793e-05
  Final line search alpha, max atom move = 1.0000000 1.1193793e-05
  Iterations, force evaluations = 192 384

MPI task timing breakdown:
Section |  min time  |  avg time  |  max time  |%varavg| %total
---------------------------------------------------------------
Pair    | 0.58348    | 1.6206     | 2.1243     |  34.3 | 71.64
Neigh   | 0          | 0          | 0          |   0.0 |  0.00
Comm    | 0.035615   | 0.36952    | 1.1187     |  50.3 | 16.34
Output  | 0          | 0          | 0          |   0.0 |  0.00
Modify  | 2.3229e-05 | 0.0031793  | 0.006754   |   2.6 |  0.14
Other   |            | 0.2688     |            |       | 11.88

Nlocal:        2776.45 ave        3951 max           0 min
Histogram: 8 4 4 0 4 12 8 0 30 34
Nghost:        3879.01 ave        5424 max         232 min
Histogram: 8 0 8 0 16 0 8 8 16 40
Neighs:        79213.4 ave      115144 max           0 min
Histogram: 8 4 4 0 10 6 8 8 24 32

Total # of neighbors = 8238192
Ave neighs/atom = 28.530436
Neighbor list builds = 0
Dangerous builds = 0
The dot product: 3.24291474999183e-08
Setting atom values ...
  1 settings made for x
  1 settings made for y
  1 settings made for z
Setting up cg style minimization ...
  Unit style    : metal
  Current step  : 1825
Per MPI rank memory allocation (min/avg/max) = 5.441 | 5.816 | 6.074 Mbytes
Step PotEng KinEng TotEng v_fx v_fy v_fz 
    1825   -1152449.4            0   -1152449.4 -0.00066468014 -0.00075612017 -0.00059314669 
    1974   -1152449.4            0   -1152449.4 1.7629351e-05 2.0424018e-05 1.7131106e-05 
Loop time of 1.75921 on 104 procs for 149 steps with 288751 atoms

99.9% CPU use with 104 MPI tasks x 1 OpenMP threads

Minimization stats:
  Stopping criterion = energy tolerance
  Energy initial, next-to-last, final = 
     -1152449.35116357  -1152449.35230841  -1152449.35230841
  Force two-norm initial, final = 0.1518744 0.00012050245
  Force max component initial, final = 0.11134058 2.4592486e-05
  Final line search alpha, max atom move = 1.0000000 2.4592486e-05
  Iterations, force evaluations = 149 298

MPI task timing breakdown:
Section |  min time  |  avg time  |  max time  |%varavg| %total
---------------------------------------------------------------
Pair    | 0.45377    | 1.2522     | 1.6545     |  30.2 | 71.18
Neigh   | 0          | 0          | 0          |   0.0 |  0.00
Comm    | 0.029418   | 0.286      | 0.84757    |  43.9 | 16.26
Output  | 0          | 0          | 0          |   0.0 |  0.00
Modify  | 1.8583e-05 | 0.0024679  | 0.0052393  |   2.3 |  0.14
Other   |            | 0.2185     |            |       | 12.42

Nlocal:        2776.45 ave        3948 max           0 min
Histogram: 8 4 4 0 4 12 8 0 28 36
Nghost:        3879.01 ave        5424 max         232 min
Histogram: 8 0 8 0 16 0 8 8 16 40
Neighs:        79213.4 ave      115053 max           0 min
Histogram: 8 4 4 0 10 6 8 8 24 32

Total # of neighbors = 8238192
Ave neighs/atom = 28.530436
Neighbor list builds = 0
Dangerous builds = 0
The dot product: -8.53646416579876e-08
Setting atom values ...
  1 settings made for x
  1 settings made for y
  1 settings made for z
Setting up cg style minimization ...
  Unit style    : metal
  Current step  : 1974
Per MPI rank memory allocation (min/avg/max) = 5.441 | 5.816 | 6.074 Mbytes
Step PotEng KinEng TotEng v_fx v_fy v_fz 
    1974   -1152449.3            0   -1152449.3 0.0030961009 0.0027741347 0.00017831074 
    2000   -1152449.3            0   -1152449.3 -4.677615e-05 -0.00022858272 -0.00073140139 
    2092   -1152449.3            0   -1152449.3 2.2120672e-06 -5.9580355e-06 -3.0868264e-05 
Loop time of 1.39224 on 104 procs for 118 steps with 288751 atoms

99.9% CPU use with 104 MPI tasks x 1 OpenMP threads

Minimization stats:
  Stopping criterion = energy tolerance
  Energy initial, next-to-last, final = 
     -1152449.33404412  -1152449.33518054  -1152449.33518054
  Force two-norm initial, final = 0.15307936 0.00019920491
  Force max component initial, final = 0.11304248 3.0868264e-05
  Final line search alpha, max atom move = 1.0000000 3.0868264e-05
  Iterations, force evaluations = 118 236

MPI task timing breakdown:
Section |  min time  |  avg time  |  max time  |%varavg| %total
---------------------------------------------------------------
Pair    | 0.35757    | 0.99641    | 1.3065     |  27.0 | 71.57
Neigh   | 0          | 0          | 0          |   0.0 |  0.00
Comm    | 0.021404   | 0.22605    | 0.6701     |  39.4 | 16.24
Output  | 0.00015542 | 0.00016178 | 0.00024134 |   0.0 |  0.01
Modify  | 1.4438e-05 | 0.0019544  | 0.0041347  |   2.1 |  0.14
Other   |            | 0.1677     |            |       | 12.04

Nlocal:        2776.45 ave        3942 max           0 min
Histogram: 8 4 4 0 4 12 8 0 28 36
Nghost:        3879.01 ave        5424 max         232 min
Histogram: 8 0 8 0 16 0 8 8 16 40
Neighs:        79213.4 ave      114871 max           0 min
Histogram: 8 4 4 0 10 6 8 8 22 34

Total # of neighbors = 8238191
Ave neighs/atom = 28.530433
Neighbor list builds = 0
Dangerous builds = 0
The dot product: 2.85536833003262e-08
Setting atom values ...
  1 settings made for x
  1 settings made for y
  1 settings made for z
Setting up cg style minimization ...
  Unit style    : metal
  Current step  : 2092
Per MPI rank memory allocation (min/avg/max) = 5.441 | 5.816 | 6.074 Mbytes
Step PotEng KinEng TotEng v_fx v_fy v_fz 
    2092   -1152449.3            0   -1152449.3 0.0066109898 0.0059835924 0.00090483411 
    2214   -1152449.3            0   -1152449.3 7.8713863e-06 7.7358113e-06 3.518561e-06 
Loop time of 1.43468 on 104 procs for 122 steps with 288751 atoms

99.9% CPU use with 104 MPI tasks x 1 OpenMP threads

Minimization stats:
  Stopping criterion = energy tolerance
  Energy initial, next-to-last, final = 
     -1152449.31547878  -1152449.31661447  -1152449.31661447
  Force two-norm initial, final = 0.15455396 0.00020904466
  Force max component initial, final = 0.11498004 3.3992117e-05
  Final line search alpha, max atom move = 1.0000000 3.3992117e-05
  Iterations, force evaluations = 122 244

MPI task timing breakdown:
Section |  min time  |  avg time  |  max time  |%varavg| %total
---------------------------------------------------------------
Pair    | 0.37028    | 1.0274     | 1.3429     |  27.4 | 71.61
Neigh   | 0          | 0          | 0          |   0.0 |  0.00
Comm    | 0.022934   | 0.23298    | 0.69544    |  40.1 | 16.24
Output  | 0          | 0          | 0          |   0.0 |  0.00
Modify  | 1.4346e-05 | 0.0020219  | 0.0042745  |   2.1 |  0.14
Other   |            | 0.1722     |            |       | 12.01

Nlocal:        2776.45 ave        3932 max           0 min
Histogram: 8 4 4 0 4 12 8 0 26 38
Nghost:        3879.01 ave        5424 max         232 min
Histogram: 8 0 8 0 16 0 8 8 16 40
Neighs:        79213.4 ave      114538 max           0 min
Histogram: 8 4 4 0 8 8 8 8 20 36

Total # of neighbors = 8238191
Ave neighs/atom = 28.530433
Neighbor list builds = 0
Dangerous builds = 0
The dot product: -5.94148601004163e-09
Setting atom values ...
  1 settings made for x
  1 settings made for y
  1 settings made for z
Setting up cg style minimization ...
  Unit style    : metal
  Current step  : 2214
Per MPI rank memory allocation (min/avg/max) = 5.441 | 5.816 | 6.074 Mbytes
Step PotEng KinEng TotEng v_fx v_fy v_fz 
    2214   -1152449.3            0   -1152449.3 0.0099684761 0.0090642637 0.0016374875 
    2404   -1152449.3            0   -1152449.3 2.3984519e-06 5.1891782e-08 -8.2370593e-06 
Loop time of 2.26349 on 104 procs for 190 steps with 288751 atoms

99.9% CPU use with 104 MPI tasks x 1 OpenMP threads

Minimization stats:
  Stopping criterion = energy tolerance
  Energy initial, next-to-last, final = 
     -1152449.29545691  -1152449.29660018  -1152449.29660018
  Force two-norm initial, final = 0.15633445 5.2888723e-05
  Force max component initial, final = 0.11711056 8.2370593e-06
  Final line search alpha, max atom move = 1.0000000 8.2370593e-06
  Iterations, force evaluations = 190 380

MPI task timing breakdown:
Section |  min time  |  avg time  |  max time  |%varavg| %total
---------------------------------------------------------------
Pair    | 0.58034    | 1.6031     | 2.1015     |  34.1 | 70.82
Neigh   | 0          | 0          | 0          |   0.0 |  0.00
Comm    | 0.033351   | 0.36662    | 1.0784     |  49.6 | 16.20
Output  | 0          | 0          | 0          |   0.0 |  0.00
Modify  | 2.3378e-05 | 0.0031412  | 0.0066669  |   2.6 |  0.14
Other   |            | 0.2906     |            |       | 12.84

Nlocal:        2776.45 ave        3930 max           0 min
Histogram: 8 4 4 0 4 12 8 0 26 38
Nghost:        3879.03 ave        5424 max         232 min
Histogram: 8 0 8 0 16 0 8 8 16 40
Neighs:        79213.4 ave      114485 max           0 min
Histogram: 8 4 4 0 8 8 8 8 20 36

Total # of neighbors = 8238191
Ave neighs/atom = 28.530433
Neighbor list builds = 0
Dangerous builds = 0
The dot product: 6.23089109269434e-09
Setting atom values ...
  1 settings made for x
  1 settings made for y
  1 settings made for z
Setting up cg style minimization ...
  Unit style    : metal
  Current step  : 2404
Per MPI rank memory allocation (min/avg/max) = 5.441 | 5.816 | 6.074 Mbytes
Step PotEng KinEng TotEng v_fx v_fy v_fz 
    2404   -1152449.3            0   -1152449.3  0.013182591   0.01207687 0.0022761715 
    2568   -1152449.3            0   -1152449.3 -3.5365019e-07 -1.6729596e-06 -5.574828e-06 
Loop time of 1.9273 on 104 procs for 164 steps with 288751 atoms

99.9% CPU use with 104 MPI tasks x 1 OpenMP threads

Minimization stats:
  Stopping criterion = energy tolerance
  Energy initial, next-to-last, final = 
     -1152449.27397259  -1152449.27513236  -1152449.27513236
  Force two-norm initial, final = 0.1584526 0.00014036095
  Force max component initial, final = 0.11937354 1.4050926e-05
  Final line search alpha, max atom move = 1.0000000 1.4050926e-05
  Iterations, force evaluations = 164 328

MPI task timing breakdown:
Section |  min time  |  avg time  |  max time  |%varavg| %total
---------------------------------------------------------------
Pair    | 0.49723    | 1.3761     | 1.8057     |  31.7 | 71.40
Neigh   | 0          | 0          | 0          |   0.0 |  0.00
Comm    | 0.035004   | 0.31284    | 0.93529    |  46.2 | 16.23
Output  | 0          | 0          | 0          |   0.0 |  0.00
Modify  | 2.0055e-05 | 0.0027065  | 0.0057638  |   2.4 |  0.14
Other   |            | 0.2357     |            |       | 12.23

Nlocal:        2776.45 ave        3930 max           0 min
Histogram: 8 4 4 0 4 12 8 0 26 38
Nghost:        3879.07 ave        5424 max         232 min
Histogram: 8 0 8 0 16 0 8 8 16 40
Neighs:        79213.3 ave      114485 max           0 min
Histogram: 8 4 4 0 8 8 8 8 20 36

Total # of neighbors = 8238188
Ave neighs/atom = 28.530422
Neighbor list builds = 0
Dangerous builds = 0
The dot product: 1.23569172812304e-10
Setting atom values ...
  1 settings made for x
  1 settings made for y
  1 settings made for z
Setting up cg style minimization ...
  Unit style    : metal
  Current step  : 2568
Per MPI rank memory allocation (min/avg/max) = 5.441 | 5.816 | 6.074 Mbytes
Step PotEng KinEng TotEng v_fx v_fy v_fz 
    2568   -1152449.3            0   -1152449.3  0.016292106  0.015027803 0.0024779255 
    2765   -1152449.3            0   -1152449.3 -3.6580356e-06 -1.0591387e-06 8.9379155e-06 
Loop time of 2.33358 on 104 procs for 197 steps with 288751 atoms

99.9% CPU use with 104 MPI tasks x 1 OpenMP threads

Minimization stats:
  Stopping criterion = energy tolerance
  Energy initial, next-to-last, final = 
     -1152449.25102415  -1152449.25221098  -1152449.25221098
  Force two-norm initial, final = 0.16101222 4.7573978e-05
  Force max component initial, final = 0.12186088 8.9379155e-06
  Final line search alpha, max atom move = 1.0000000 8.9379155e-06
  Iterations, force evaluations = 197 394

MPI task timing breakdown:
Section |  min time  |  avg time  |  max time  |%varavg| %total
---------------------------------------------------------------
Pair    | 0.5987     | 1.6663     | 2.1981     |  34.8 | 71.40
Neigh   | 0          | 0          | 0          |   0.0 |  0.00
Comm    | 0.036362   | 0.3797     | 1.1244     |  50.8 | 16.27
Output  | 0          | 0          | 0          |   0.0 |  0.00
Modify  | 2.3989e-05 | 0.0032554  | 0.0069748  |   2.7 |  0.14
Other   |            | 0.2844     |            |       | 12.19

Nlocal:        2776.45 ave        3930 max           0 min
Histogram: 8 4 4 0 4 12 8 0 26 38
Nghost:        3879.07 ave        5424 max         232 min
Histogram: 8 0 8 0 16 0 8 8 16 40
Neighs:        79213.3 ave      114485 max           0 min
Histogram: 8 4 4 0 8 8 8 8 20 36

Total # of neighbors = 8238188
Ave neighs/atom = 28.530422
Neighbor list builds = 0
Dangerous builds = 0
The dot product: -1.47935792471595e-08
Setting atom values ...
  1 settings made for x
  1 settings made for y
  1 settings made for z
Setting up cg style minimization ...
  Unit style    : metal
  Current step  : 2765
Per MPI rank memory allocation (min/avg/max) = 5.441 | 5.816 | 6.074 Mbytes
Step PotEng KinEng TotEng v_fx v_fy v_fz 
    2765   -1152449.2            0   -1152449.2  0.019192082  0.017935073 0.0025234601 
    2967   -1152449.2            0   -1152449.2 -2.6661189e-06 -1.7122583e-06 2.8429264e-06 
Loop time of 2.38967 on 104 procs for 202 steps with 288751 atoms

99.9% CPU use with 104 MPI tasks x 1 OpenMP threads

Minimization stats:
  Stopping criterion = energy tolerance
  Energy initial, next-to-last, final = 
     -1152449.22661658  -1152449.22784067  -1152449.22784067
  Force two-norm initial, final = 0.16399226 4.2917597e-05
  Force max component initial, final = 0.12449222 8.7578299e-06
  Final line search alpha, max atom move = 1.0000000 8.7578299e-06
  Iterations, force evaluations = 202 404

MPI task timing breakdown:
Section |  min time  |  avg time  |  max time  |%varavg| %total
---------------------------------------------------------------
Pair    | 0.61405    | 1.699      | 2.2454     |  35.3 | 71.10
Neigh   | 0          | 0          | 0          |   0.0 |  0.00
Comm    | 0.035364   | 0.38738    | 1.1447     |  51.4 | 16.21
Output  | 0          | 0          | 0          |   0.0 |  0.00
Modify  | 2.459e-05  | 0.0033385  | 0.007073   |   2.7 |  0.14
Other   |            | 0.2999     |            |       | 12.55

Nlocal:        2776.45 ave        3930 max           0 min
Histogram: 8 4 4 0 4 12 8 0 26 38
Nghost:        3879.07 ave        5424 max         232 min
Histogram: 8 0 8 0 16 0 8 8 16 40
Neighs:        79213.3 ave      114485 max           0 min
Histogram: 8 4 4 0 8 8 8 8 20 36

Total # of neighbors = 8238188
Ave neighs/atom = 28.530422
Neighbor list builds = 0
Dangerous builds = 0
The dot product: -1.44860046482709e-08
Setting atom values ...
  1 settings made for x
  1 settings made for y
  1 settings made for z
Setting up cg style minimization ...
  Unit style    : metal
  Current step  : 2967
Per MPI rank memory allocation (min/avg/max) = 5.441 | 5.816 | 6.074 Mbytes
Step PotEng KinEng TotEng v_fx v_fy v_fz 
    2967   -1152449.2            0   -1152449.2  0.021812035  0.020730299 0.0022929673 
    3000   -1152449.2            0   -1152449.2 -0.00010250186 5.3038889e-05 0.00060373846 
    3088   -1152449.2            0   -1152449.2 5.6270086e-06 -1.2931576e-06 -2.6532769e-05 
Loop time of 1.43635 on 104 procs for 121 steps with 288751 atoms

99.9% CPU use with 104 MPI tasks x 1 OpenMP threads

Minimization stats:
  Stopping criterion = energy tolerance
  Energy initial, next-to-last, final = 
     -1152449.20076142  -1152449.20203295  -1152449.20203295
  Force two-norm initial, final = 0.16740357 0.00016779945
  Force max component initial, final = 0.12729767 2.9591808e-05
  Final line search alpha, max atom move = 1.0000000 2.9591808e-05
  Iterations, force evaluations = 121 242

MPI task timing breakdown:
Section |  min time  |  avg time  |  max time  |%varavg| %total
---------------------------------------------------------------
Pair    | 0.36775    | 1.0238     | 1.3547     |  27.4 | 71.28
Neigh   | 0          | 0          | 0          |   0.0 |  0.00
Comm    | 0.0225     | 0.23371    | 0.69196    |  39.8 | 16.27
Output  | 0.00016755 | 0.00017688 | 0.00026472 |   0.0 |  0.01
Modify  | 1.4549e-05 | 0.0020047  | 0.0042958  |   2.1 |  0.14
Other   |            | 0.1766     |            |       | 12.30

Nlocal:        2776.45 ave        3930 max           0 min
Histogram: 8 4 4 0 4 12 8 0 26 38
Nghost:        3879.07 ave        5424 max         232 min
Histogram: 8 0 8 0 16 0 8 8 16 40
Neighs:        79213.3 ave      114486 max           0 min
Histogram: 8 4 4 0 8 8 8 8 20 36

Total # of neighbors = 8238183
Ave neighs/atom = 28.530405
Neighbor list builds = 0
Dangerous builds = 0
The dot product: 3.25479761378386e-08
Setting atom values ...
  1 settings made for x
  1 settings made for y
  1 settings made for z
Setting up cg style minimization ...
  Unit style    : metal
  Current step  : 3088
Per MPI rank memory allocation (min/avg/max) = 5.441 | 5.816 | 6.074 Mbytes
Step PotEng KinEng TotEng v_fx v_fy v_fz 
    3088   -1152449.2            0   -1152449.2  0.025240888  0.024364804 0.0013771286 
    3212   -1152449.2            0   -1152449.2 -4.9329339e-06 -1.4265238e-06 1.3289429e-05 
Loop time of 1.46251 on 104 procs for 124 steps with 288751 atoms

99.9% CPU use with 104 MPI tasks x 1 OpenMP threads

Minimization stats:
  Stopping criterion = energy tolerance
  Energy initial, next-to-last, final = 
      -1152449.1734837  -1152449.17482512  -1152449.17482512
  Force two-norm initial, final = 0.1714122 0.00018440562
  Force max component initial, final = 0.13019455 1.3289429e-05
  Final line search alpha, max atom move = 1.0000000 1.3289429e-05
  Iterations, force evaluations = 124 248

MPI task timing breakdown:
Section |  min time  |  avg time  |  max time  |%varavg| %total
---------------------------------------------------------------
Pair    | 0.37631    | 1.0472     | 1.3678     |  27.7 | 71.60
Neigh   | 0          | 0          | 0          |   0.0 |  0.00
Comm    | 0.02245    | 0.23891    | 0.71317    |  40.4 | 16.34
Output  | 0          | 0          | 0          |   0.0 |  0.00
Modify  | 1.5159e-05 | 0.0020548  | 0.0043772  |   2.1 |  0.14
Other   |            | 0.1744     |            |       | 11.92

Nlocal:        2776.45 ave        3930 max           0 min
Histogram: 8 4 4 0 4 12 8 0 26 38
Nghost:        3879.07 ave        5424 max         232 min
Histogram: 8 0 8 0 16 0 8 8 16 40
Neighs:        79213.3 ave      114486 max           0 min
Histogram: 8 4 4 0 8 8 8 8 20 36

Total # of neighbors = 8238183
Ave neighs/atom = 28.530405
Neighbor list builds = 0
Dangerous builds = 0
The dot product: -4.40718860163217e-08
Setting atom values ...
  1 settings made for x
  1 settings made for y
  1 settings made for z
Setting up cg style minimization ...
  Unit style    : metal
  Current step  : 3212
Per MPI rank memory allocation (min/avg/max) = 5.441 | 5.816 | 6.074 Mbytes
Step PotEng KinEng TotEng v_fx v_fy v_fz 
    3212   -1152449.1            0   -1152449.1  0.030349742   0.02904868 -0.0037092879 
    3355   -1152449.1            0   -1152449.1 -1.1732822e-06 1.3703287e-06 1.0234644e-05 
Loop time of 1.69223 on 104 procs for 143 steps with 288751 atoms

99.9% CPU use with 104 MPI tasks x 1 OpenMP threads

Minimization stats:
  Stopping criterion = energy tolerance
  Energy initial, next-to-last, final = 
     -1152449.14482076   -1152449.1462853   -1152449.1462853
  Force two-norm initial, final = 0.17601681 0.00015328964
  Force max component initial, final = 0.13340712 1.3422548e-05
  Final line search alpha, max atom move = 1.0000000 1.3422548e-05
  Iterations, force evaluations = 143 286

MPI task timing breakdown:
Section |  min time  |  avg time  |  max time  |%varavg| %total
---------------------------------------------------------------
Pair    | 0.4361     | 1.2078     | 1.5823     |  29.5 | 71.38
Neigh   | 0          | 0          | 0          |   0.0 |  0.00
Comm    | 0.036071   | 0.27408    | 0.81252    |  43.2 | 16.20
Output  | 0          | 0          | 0          |   0.0 |  0.00
Modify  | 1.7429e-05 | 0.0023699  | 0.005021   |   2.3 |  0.14
Other   |            | 0.2079     |            |       | 12.29

Nlocal:        2776.45 ave        3930 max           0 min
Histogram: 8 4 4 0 4 12 8 0 26 38
Nghost:        3879.07 ave        5424 max         232 min
Histogram: 8 0 8 0 16 0 8 8 16 40
Neighs:        79213.3 ave      114486 max           0 min
Histogram: 8 4 4 0 8 8 8 8 20 36

Total # of neighbors = 8238185
Ave neighs/atom = 28.530412
Neighbor list builds = 0
Dangerous builds = 0
The dot product: -2.19576431291121e-08
Setting atom values ...
  1 settings made for x
  1 settings made for y
  1 settings made for z
Setting up cg style minimization ...
  Unit style    : metal
  Current step  : 3355
Per MPI rank memory allocation (min/avg/max) = 5.441 | 5.816 | 6.074 Mbytes
Step PotEng KinEng TotEng v_fx v_fy v_fz 
    3355   -1152449.1            0   -1152449.1   0.03898893  0.036275754 -0.017122828 
    3540   -1152449.1            0   -1152449.1 1.0194006e-05 1.0433521e-05 -6.084526e-07 
Loop time of 2.1617 on 104 procs for 185 steps with 288751 atoms

99.9% CPU use with 104 MPI tasks x 1 OpenMP threads

Minimization stats:
  Stopping criterion = energy tolerance
  Energy initial, next-to-last, final = 
     -1152449.11471181  -1152449.11645185  -1152449.11645185
  Force two-norm initial, final = 0.18323623 7.0176232e-05
  Force max component initial, final = 0.13703193 1.0433521e-05
  Final line search alpha, max atom move = 1.0000000 1.0433521e-05
  Iterations, force evaluations = 185 370

MPI task timing breakdown:
Section |  min time  |  avg time  |  max time  |%varavg| %total
---------------------------------------------------------------
Pair    | 0.56089    | 1.5534     | 2.0376     |  33.6 | 71.86
Neigh   | 0          | 0          | 0          |   0.0 |  0.00
Comm    | 0.031993   | 0.35298    | 1.0539     |  49.3 | 16.33
Output  | 0          | 0          | 0          |   0.0 |  0.00
Modify  | 2.2185e-05 | 0.0030588  | 0.0065088  |   2.6 |  0.14
Other   |            | 0.2522     |            |       | 11.67

Nlocal:        2776.45 ave        3930 max           0 min
Histogram: 8 4 4 0 4 12 8 0 26 38
Nghost:        3879.06 ave        5424 max         232 min
Histogram: 8 0 8 0 16 0 8 8 16 40
Neighs:        79213.3 ave      114486 max           0 min
Histogram: 8 4 4 0 8 8 8 8 20 36

Total # of neighbors = 8238183
Ave neighs/atom = 28.530405
Neighbor list builds = 0
Dangerous builds = 0
The dot product: 2.1527017310738e-07
Setting atom values ...
  1 settings made for x
  1 settings made for y
  1 settings made for z
Setting up cg style minimization ...
  Unit style    : metal
  Current step  : 3540
Per MPI rank memory allocation (min/avg/max) = 5.441 | 5.816 | 6.074 Mbytes
Step PotEng KinEng TotEng v_fx v_fy v_fz 
    3540   -1152449.1            0   -1152449.1  0.047948778  0.046384227 -0.029179856 
    3681   -1152449.1            0   -1152449.1 -5.4751028e-06 -5.9892524e-06 4.0788954e-07 
Loop time of 1.65874 on 104 procs for 141 steps with 288751 atoms

99.9% CPU use with 104 MPI tasks x 1 OpenMP threads

Minimization stats:
  Stopping criterion = energy tolerance
  Energy initial, next-to-last, final = 
       -1152449.083276  -1152449.08534109  -1152449.08534109
  Force two-norm initial, final = 0.19293817 6.9988665e-05
  Force max component initial, final = 0.14125693 1.0525203e-05
  Final line search alpha, max atom move = 1.0000000 1.0525203e-05
  Iterations, force evaluations = 141 282

MPI task timing breakdown:
Section |  min time  |  avg time  |  max time  |%varavg| %total
---------------------------------------------------------------
Pair    | 0.43005    | 1.1933     | 1.5556     |  29.4 | 71.94
Neigh   | 0          | 0          | 0          |   0.0 |  0.00
Comm    | 0.02949    | 0.2718     | 0.81839    |  43.1 | 16.39
Output  | 0          | 0          | 0          |   0.0 |  0.00
Modify  | 1.7768e-05 | 0.002335   | 0.0049523  |   2.3 |  0.14
Other   |            | 0.1913     |            |       | 11.53

Nlocal:        2776.45 ave        3930 max           0 min
Histogram: 8 4 4 0 4 12 8 0 26 38
Nghost:        3879.06 ave        5424 max         232 min
Histogram: 8 0 8 0 16 0 8 8 16 40
Neighs:        79213.3 ave      114486 max           0 min
Histogram: 8 4 4 0 8 8 8 8 20 36

Total # of neighbors = 8238183
Ave neighs/atom = 28.530405
Neighbor list builds = 0
Dangerous builds = 0
The dot product: -1.46221957998994e-07
Setting atom values ...
  1 settings made for x
  1 settings made for y
  1 settings made for z
Setting up cg style minimization ...
  Unit style    : metal
  Current step  : 3681
Per MPI rank memory allocation (min/avg/max) = 5.441 | 5.816 | 6.074 Mbytes
Step PotEng KinEng TotEng v_fx v_fy v_fz 
    3681   -1152449.1            0   -1152449.1  0.053146762  0.055545917 -0.037849515 
    3865   -1152449.1            0   -1152449.1 8.6932489e-06 8.6644162e-06 -8.0830757e-06 
Loop time of 2.14224 on 104 procs for 184 steps with 288751 atoms

99.9% CPU use with 104 MPI tasks x 1 OpenMP threads

Minimization stats:
  Stopping criterion = energy tolerance
  Energy initial, next-to-last, final = 
     -1152449.05062053  -1152449.05295412  -1152449.05295412
  Force two-norm initial, final = 0.20168967 0.00010868178
  Force max component initial, final = 0.14559018 1.7465798e-05
  Final line search alpha, max atom move = 1.0000000 1.7465798e-05
  Iterations, force evaluations = 184 368

MPI task timing breakdown:
Section |  min time  |  avg time  |  max time  |%varavg| %total
---------------------------------------------------------------
Pair    | 0.55805    | 1.5441     | 2.016      |  33.5 | 72.08
Neigh   | 0          | 0          | 0          |   0.0 |  0.00
Comm    | 0.032982   | 0.34842    | 1.045      |  49.3 | 16.26
Output  | 0          | 0          | 0          |   0.0 |  0.00
Modify  | 2.2325e-05 | 0.0030429  | 0.0064994  |   2.6 |  0.14
Other   |            | 0.2467     |            |       | 11.51

Nlocal:        2776.45 ave        3930 max           0 min
Histogram: 8 4 4 0 4 12 8 0 26 38
Nghost:        3879.07 ave        5424 max         232 min
Histogram: 8 0 8 0 16 0 8 8 16 40
Neighs:        79213.3 ave      114486 max           0 min
Histogram: 8 4 4 0 8 8 8 8 20 36

Total # of neighbors = 8238182
Ave neighs/atom = 28.530402
Neighbor list builds = 0
Dangerous builds = 0
The dot product: 3.12725204199061e-07
Setting atom values ...
  1 settings made for x
  1 settings made for y
  1 settings made for z
Setting up cg style minimization ...
  Unit style    : metal
  Current step  : 3865
Per MPI rank memory allocation (min/avg/max) = 5.441 | 5.816 | 6.074 Mbytes
Step PotEng KinEng TotEng v_fx v_fy v_fz 
    3865     -1152449            0     -1152449  0.055139455  0.062077511 -0.050469179 
    4000     -1152449            0     -1152449 1.542414e-05 2.6978943e-05 3.3517533e-05 
    4064     -1152449            0     -1152449 3.6932876e-06 3.7289309e-06 -5.5064281e-06 
Loop time of 2.35626 on 104 procs for 199 steps with 288751 atoms

99.9% CPU use with 104 MPI tasks x 1 OpenMP threads

Minimization stats:
  Stopping criterion = energy tolerance
  Energy initial, next-to-last, final = 
     -1152449.01681237   -1152449.0193991   -1152449.0193991
  Force two-norm initial, final = 0.20998396 8.1845597e-05
  Force max component initial, final = 0.149682 9.8784616e-06
  Final line search alpha, max atom move = 1.0000000 9.8784616e-06
  Iterations, force evaluations = 199 398

MPI task timing breakdown:
Section |  min time  |  avg time  |  max time  |%varavg| %total
---------------------------------------------------------------
Pair    | 0.60726    | 1.6872     | 2.224      |  35.1 | 71.60
Neigh   | 0          | 0          | 0          |   0.0 |  0.00
Comm    | 0.03656    | 0.38481    | 1.136      |  51.1 | 16.33
Output  | 0.0002369  | 0.00023972 | 0.00037769 |   0.0 |  0.01
Modify  | 2.3947e-05 | 0.0032887  | 0.0069811  |   2.7 |  0.14
Other   |            | 0.2808     |            |       | 11.92

Nlocal:        2776.45 ave        3930 max           0 min
Histogram: 8 4 4 0 4 12 8 0 26 38
Nghost:        3879.07 ave        5424 max         232 min
Histogram: 8 0 8 0 16 0 8 8 16 40
Neighs:        79213.2 ave      114485 max           0 min
Histogram: 8 4 4 0 8 8 8 8 20 36

Total # of neighbors = 8238178
Ave neighs/atom = 28.530388
Neighbor list builds = 0
Dangerous builds = 0
The dot product: 1.75662416860181e-07
Setting atom values ...
  1 settings made for x
  1 settings made for y
  1 settings made for z
Setting up cg style minimization ...
  Unit style    : metal
  Current step  : 4064
Per MPI rank memory allocation (min/avg/max) = 5.441 | 5.816 | 6.074 Mbytes
Step PotEng KinEng TotEng v_fx v_fy v_fz 
    4064     -1152449            0     -1152449   0.05366693    0.0651327 -0.068667804 
    4254     -1152449            0     -1152449 -5.3676376e-07 -6.4281757e-07 7.3834104e-07 
Loop time of 2.22615 on 104 procs for 190 steps with 288751 atoms

99.9% CPU use with 104 MPI tasks x 1 OpenMP threads

Minimization stats:
  Stopping criterion = energy tolerance
  Energy initial, next-to-last, final = 
     -1152448.98210208  -1152448.98488417  -1152448.98488417
  Force two-norm initial, final = 0.21848868 0.00012113849
  Force max component initial, final = 0.15357926 6.2244339e-06
  Final line search alpha, max atom move = 1.0000000 6.2244339e-06
  Iterations, force evaluations = 190 380

MPI task timing breakdown:
Section |  min time  |  avg time  |  max time  |%varavg| %total
---------------------------------------------------------------
Pair    | 0.57766    | 1.5945     | 2.0916     |  34.1 | 71.62
Neigh   | 0          | 0          | 0          |   0.0 |  0.00
Comm    | 0.044896   | 0.36185    | 1.0845     |  49.8 | 16.25
Output  | 0          | 0          | 0          |   0.0 |  0.00
Modify  | 2.2726e-05 | 0.0031412  | 0.0066762  |   2.6 |  0.14
Other   |            | 0.2667     |            |       | 11.98

Nlocal:        2776.45 ave        3930 max           0 min
Histogram: 8 4 4 0 4 12 8 0 26 38
Nghost:        3878.97 ave        5424 max         232 min
Histogram: 8 0 8 0 16 0 8 8 16 40
Neighs:        79213.2 ave      114485 max           0 min
Histogram: 8 4 4 0 8 8 8 8 20 36

Total # of neighbors = 8238178
Ave neighs/atom = 28.530388
Neighbor list builds = 0
Dangerous builds = 0
The dot product: -2.76904312450609e-08
Setting atom values ...
  1 settings made for x
  1 settings made for y
  1 settings made for z
Setting up cg style minimization ...
  Unit style    : metal
  Current step  : 4254
Per MPI rank memory allocation (min/avg/max) = 5.441 | 5.816 | 6.074 Mbytes
Step PotEng KinEng TotEng v_fx v_fy v_fz 
    4254   -1152448.9            0   -1152448.9  0.047451549  0.063642633 -0.081746281 
    4573     -1152449            0     -1152449 -7.1670962e-06 -1.0764665e-05 2.6906227e-06 
Loop time of 3.80421 on 104 procs for 319 steps with 288751 atoms

99.9% CPU use with 104 MPI tasks x 1 OpenMP threads

Minimization stats:
  Stopping criterion = energy tolerance
  Energy initial, next-to-last, final = 
     -1152448.94671917  -1152448.98109642  -1152448.98109642
  Force two-norm initial, final = 0.22438667 0.00016967523
  Force max component initial, final = 0.15707491 3.1749259e-05
  Final line search alpha, max atom move = 1.0000000 3.1749259e-05
  Iterations, force evaluations = 319 637

MPI task timing breakdown:
Section |  min time  |  avg time  |  max time  |%varavg| %total
---------------------------------------------------------------
Pair    | 0.97755    | 2.6926     | 3.5738     |  44.2 | 70.78
Neigh   | 2.131e-05  | 0.0058742  | 0.0085289  |   3.2 |  0.15
Comm    | 0.058655   | 0.61806    | 1.8318     |  64.1 | 16.25
Output  | 0          | 0          | 0          |   0.0 |  0.00
Modify  | 3.8236e-05 | 0.0052646  | 0.011346   |   3.4 |  0.14
Other   |            | 0.4824     |            |       | 12.68

Nlocal:        2776.45 ave        3954 max           0 min
Histogram: 8 4 4 0 4 12 8 2 28 34
Nghost:        3878.97 ave        5426 max         232 min
Histogram: 8 0 8 0 16 0 8 8 16 40
Neighs:        79213.2 ave      115260 max           0 min
Histogram: 8 4 4 0 10 6 8 8 24 32

Total # of neighbors = 8238178
Ave neighs/atom = 28.530388
Neighbor list builds = 2
Dangerous builds = 0
The dot product: -4.84486322354219e-07
Setting atom values ...
  1 settings made for x
  1 settings made for y
  1 settings made for z
Setting up cg style minimization ...
  Unit style    : metal
  Current step  : 4573
Per MPI rank memory allocation (min/avg/max) = 5.441 | 5.816 | 6.074 Mbytes
Step PotEng KinEng TotEng v_fx v_fy v_fz 
    4573     -1152449            0     -1152449  0.021553647  0.051770479  -0.14001674 
    4788     -1152449            0     -1152449 -1.0649475e-06 -1.9803327e-06 1.4874134e-06 
Loop time of 2.53364 on 104 procs for 215 steps with 288751 atoms

99.9% CPU use with 104 MPI tasks x 1 OpenMP threads

Minimization stats:
  Stopping criterion = energy tolerance
  Energy initial, next-to-last, final = 
     -1152448.95874471  -1152448.96262554  -1152448.96262554
  Force two-norm initial, final = 0.25579099 7.5518098e-05
  Force max component initial, final = 0.16443374 1.0881680e-05
  Final line search alpha, max atom move = 1.0000000 1.0881680e-05
  Iterations, force evaluations = 215 430

MPI task timing breakdown:
Section |  min time  |  avg time  |  max time  |%varavg| %total
---------------------------------------------------------------
Pair    | 0.65523    | 1.8137     | 2.3776     |  36.4 | 71.58
Neigh   | 0          | 0          | 0          |   0.0 |  0.00
Comm    | 0.040673   | 0.41323    | 1.2329     |  53.2 | 16.31
Output  | 0          | 0          | 0          |   0.0 |  0.00
Modify  | 2.644e-05  | 0.0035627  | 0.0075859  |   2.8 |  0.14
Other   |            | 0.3032     |            |       | 11.97

Nlocal:        2776.45 ave        3946 max           0 min
Histogram: 8 4 4 0 4 12 8 0 28 36
Nghost:        3879.01 ave        5424 max         232 min
Histogram: 8 0 8 0 16 0 8 8 16 40
Neighs:        79213.3 ave      114989 max           0 min
Histogram: 8 4 4 0 10 6 8 8 24 32

Total # of neighbors = 8238183
Ave neighs/atom = 28.530405
Neighbor list builds = 0
Dangerous builds = 0
The dot product: -6.38244018694726e-08
Setting atom values ...
  1 settings made for x
  1 settings made for y
  1 settings made for z
Setting up cg style minimization ...
  Unit style    : metal
  Current step  : 4788
Per MPI rank memory allocation (min/avg/max) = 5.441 | 5.816 | 6.074 Mbytes
Step PotEng KinEng TotEng v_fx v_fy v_fz 
    4788   -1152448.9            0   -1152448.9 0.0059041696  0.025047371 -0.068540382 
    4959   -1152448.9            0   -1152448.9 1.2859587e-05 2.2622957e-05 1.5030862e-06 
Loop time of 2.02914 on 104 procs for 171 steps with 288751 atoms

99.9% CPU use with 104 MPI tasks x 1 OpenMP threads

Minimization stats:
  Stopping criterion = energy tolerance
  Energy initial, next-to-last, final = 
     -1152448.94018404   -1152448.9425478   -1152448.9425478
  Force two-norm initial, final = 0.22364037 0.00011973528
  Force max component initial, final = 0.16595794 3.2544788e-05
  Final line search alpha, max atom move = 1.0000000 3.2544788e-05
  Iterations, force evaluations = 171 342

MPI task timing breakdown:
Section |  min time  |  avg time  |  max time  |%varavg| %total
---------------------------------------------------------------
Pair    | 0.51894    | 1.4456     | 1.8851     |  32.5 | 71.24
Neigh   | 0          | 0          | 0          |   0.0 |  0.00
Comm    | 0.032928   | 0.33177    | 0.98376    |  47.0 | 16.35
Output  | 0          | 0          | 0          |   0.0 |  0.00
Modify  | 2.0908e-05 | 0.002827   | 0.0060485  |   2.5 |  0.14
Other   |            | 0.249      |            |       | 12.27

Nlocal:        2776.45 ave        3949 max           0 min
Histogram: 8 4 4 0 4 12 8 0 28 36
Nghost:        3879.03 ave        5428 max         232 min
Histogram: 8 0 8 0 16 0 8 8 16 40
Neighs:        79213.3 ave      115054 max           0 min
Histogram: 8 4 4 0 10 6 8 8 24 32

Total # of neighbors = 8238184
Ave neighs/atom = 28.530409
Neighbor list builds = 0
Dangerous builds = 0
The dot product: 8.64256969827355e-08
Setting atom values ...
  1 settings made for x
  1 settings made for y
  1 settings made for z
Setting up cg style minimization ...
  Unit style    : metal
  Current step  : 4959
Per MPI rank memory allocation (min/avg/max) = 5.441 | 5.816 | 6.074 Mbytes
Step PotEng KinEng TotEng v_fx v_fy v_fz 
    4959   -1152448.9            0   -1152448.9 0.0010735964  0.012844635 -0.041442543 
    5000   -1152448.9            0   -1152448.9 -3.5207613e-05 -1.9397599e-05 -0.00016914401 
    5108   -1152448.9            0   -1152448.9 -6.0077565e-06 -1.0193932e-06 -3.757375e-05 
Loop time of 1.74419 on 104 procs for 149 steps with 288751 atoms

99.9% CPU use with 104 MPI tasks x 1 OpenMP threads

Minimization stats:
  Stopping criterion = energy tolerance
  Energy initial, next-to-last, final = 
     -1152448.92010034  -1152448.92238825  -1152448.92238825
  Force two-norm initial, final = 0.22084165 0.0001492176
  Force max component initial, final = 0.16770315 3.7573750e-05
  Final line search alpha, max atom move = 1.0000000 3.7573750e-05
  Iterations, force evaluations = 149 298

MPI task timing breakdown:
Section |  min time  |  avg time  |  max time  |%varavg| %total
---------------------------------------------------------------
Pair    | 0.45224    | 1.2549     | 1.6386     |  30.3 | 71.95
Neigh   | 0          | 0          | 0          |   0.0 |  0.00
Comm    | 0.026109   | 0.28453    | 0.85243    |  44.5 | 16.31
Output  | 0.00017791 | 0.00018125 | 0.00027937 |   0.0 |  0.01
Modify  | 1.8397e-05 | 0.0024644  | 0.0052841  |   2.3 |  0.14
Other   |            | 0.2021     |            |       | 11.58

Nlocal:        2776.45 ave        3950 max           0 min
Histogram: 8 4 4 0 4 12 8 0 28 36
Nghost:        3879.03 ave        5425 max         232 min
Histogram: 8 0 8 0 16 0 8 8 16 40
Neighs:        79213.3 ave      115092 max           0 min
Histogram: 8 4 4 0 10 6 8 8 24 32

Total # of neighbors = 8238185
Ave neighs/atom = 28.530412
Neighbor list builds = 0
Dangerous builds = 0
The dot product: 3.07065995172545e-07
Setting atom values ...
  1 settings made for x
  1 settings made for y
  1 settings made for z
Setting up cg style minimization ...
  Unit style    : metal
  Current step  : 5108
Per MPI rank memory allocation (min/avg/max) = 5.441 | 5.816 | 6.074 Mbytes
Step PotEng KinEng TotEng v_fx v_fy v_fz 
    5108   -1152448.9            0   -1152448.9 -0.00054072273  0.007918746 -0.030306345 
    5269   -1152448.9            0   -1152448.9 8.163408e-06 1.2522247e-05 8.1822666e-06 
Loop time of 1.88517 on 104 procs for 161 steps with 288751 atoms

99.9% CPU use with 104 MPI tasks x 1 OpenMP threads

Minimization stats:
  Stopping criterion = energy tolerance
  Energy initial, next-to-last, final = 
     -1152448.90013324  -1152448.90212228  -1152448.90212228
  Force two-norm initial, final = 0.22079693 0.00016203888
  Force max component initial, final = 0.16966411 5.1236288e-05
  Final line search alpha, max atom move = 1.0000000 5.1236288e-05
  Iterations, force evaluations = 161 322

MPI task timing breakdown:
Section |  min time  |  avg time  |  max time  |%varavg| %total
---------------------------------------------------------------
Pair    | 0.48871    | 1.3583     | 1.7783     |  31.4 | 72.05
Neigh   | 0          | 0          | 0          |   0.0 |  0.00
Comm    | 0.028547   | 0.30581    | 0.91956    |  46.4 | 16.22
Output  | 0          | 0          | 0          |   0.0 |  0.00
Modify  | 1.9279e-05 | 0.0026604  | 0.0057051  |   2.4 |  0.14
Other   |            | 0.2184     |            |       | 11.58

Nlocal:        2776.45 ave        3952 max           0 min
Histogram: 8 4 4 0 4 12 8 0 30 34
Nghost:        3879.05 ave        5425 max         232 min
Histogram: 8 0 8 0 16 0 8 8 16 40
Neighs:        79213.3 ave      115164 max           0 min
Histogram: 8 4 4 0 10 6 8 8 24 32

Total # of neighbors = 8238182
Ave neighs/atom = 28.530402
Neighbor list builds = 0
Dangerous builds = 0
The dot product: -2.75625665497529e-08
Setting atom values ...
  1 settings made for x
  1 settings made for y
  1 settings made for z
Setting up cg style minimization ...
  Unit style    : metal
  Current step  : 5269
Per MPI rank memory allocation (min/avg/max) = 5.441 | 5.816 | 6.074 Mbytes
Step PotEng KinEng TotEng v_fx v_fy v_fz 
    5269   -1152448.9            0   -1152448.9 -0.00043550251 0.0055273298 -0.020321611 
    5468   -1152448.9            0   -1152448.9 -8.6006701e-06 -1.5879049e-05 3.2571192e-07 
Loop time of 2.34435 on 104 procs for 199 steps with 288751 atoms

99.9% CPU use with 104 MPI tasks x 1 OpenMP threads

Minimization stats:
  Stopping criterion = energy tolerance
  Energy initial, next-to-last, final = 
     -1152448.87880576  -1152448.88061318  -1152448.88061318
  Force two-norm initial, final = 0.21927087 7.0005324e-05
  Force max component initial, final = 0.17170378 1.5879049e-05
  Final line search alpha, max atom move = 1.0000000 1.5879049e-05
  Iterations, force evaluations = 199 398

MPI task timing breakdown:
Section |  min time  |  avg time  |  max time  |%varavg| %total
---------------------------------------------------------------
Pair    | 0.60296    | 1.6714     | 2.1892     |  35.0 | 71.30
Neigh   | 0          | 0          | 0          |   0.0 |  0.00
Comm    | 0.035756   | 0.38084    | 1.1268     |  50.6 | 16.25
Output  | 0          | 0          | 0          |   0.0 |  0.00
Modify  | 2.3794e-05 | 0.0032888  | 0.0070261  |   2.7 |  0.14
Other   |            | 0.2888     |            |       | 12.32

Nlocal:        2776.45 ave        3950 max           0 min
Histogram: 8 4 4 0 4 12 8 0 28 36
Nghost:        3878.99 ave        5425 max         232 min
Histogram: 8 0 8 0 16 0 8 8 16 40
Neighs:        79213.3 ave      115092 max           0 min
Histogram: 8 4 4 0 10 6 8 8 24 32

Total # of neighbors = 8238180
Ave neighs/atom = 28.530395
Neighbor list builds = 0
Dangerous builds = 0
The dot product: 4.88290726369885e-10
Setting atom values ...
  1 settings made for x
  1 settings made for y
  1 settings made for z
Setting up cg style minimization ...
  Unit style    : metal
  Current step  : 5468
Per MPI rank memory allocation (min/avg/max) = 5.441 | 5.816 | 6.074 Mbytes
Step PotEng KinEng TotEng v_fx v_fy v_fz 
    5468   -1152448.9            0   -1152448.9 -0.00024177839 0.0038447492 -0.013463674 
    5690   -1152448.9            0   -1152448.9 3.6164942e-06 4.4711178e-06 6.7867044e-06 
Loop time of 2.61816 on 104 procs for 222 steps with 288751 atoms

99.9% CPU use with 104 MPI tasks x 1 OpenMP threads

Minimization stats:
  Stopping criterion = energy tolerance
  Energy initial, next-to-last, final = 
     -1152448.85529757  -1152448.85721684  -1152448.85721684
  Force two-norm initial, final = 0.22315765 4.0384051e-05
  Force max component initial, final = 0.17391274 1.0133172e-05
  Final line search alpha, max atom move = 1.0000000 1.0133172e-05
  Iterations, force evaluations = 222 444

MPI task timing breakdown:
Section |  min time  |  avg time  |  max time  |%varavg| %total
---------------------------------------------------------------
Pair    | 0.67417    | 1.8795     | 2.4557     |  36.9 | 71.79
Neigh   | 0          | 0          | 0          |   0.0 |  0.00
Comm    | 0.042551   | 0.42891    | 1.2872     |  54.0 | 16.38
Output  | 0          | 0          | 0          |   0.0 |  0.00
Modify  | 2.7128e-05 | 0.0036836  | 0.0084216  |   2.9 |  0.14
Other   |            | 0.3061     |            |       | 11.69

Nlocal:        2776.45 ave        3949 max           0 min
Histogram: 8 4 4 0 4 12 8 0 28 36
Nghost:        3878.99 ave        5425 max         232 min
Histogram: 8 0 8 0 16 0 8 8 16 40
Neighs:        79213.3 ave      115054 max           0 min
Histogram: 8 4 4 0 10 6 8 8 24 32

Total # of neighbors = 8238179
Ave neighs/atom = 28.530391
Neighbor list builds = 0
Dangerous builds = 0
The dot product: -8.41400749727545e-09
Setting atom values ...
  1 settings made for x
  1 settings made for y
  1 settings made for z
Setting up cg style minimization ...
  Unit style    : metal
  Current step  : 5690
Per MPI rank memory allocation (min/avg/max) = 5.441 | 5.816 | 6.074 Mbytes
Step PotEng KinEng TotEng v_fx v_fy v_fz 
    5690   -1152448.8            0   -1152448.8 -0.00010935233 0.0029532883 -0.0098407796 
    5830   -1152448.8            0   -1152448.8 2.0223935e-06 4.7427226e-06 -3.2495435e-06 
Loop time of 1.64964 on 104 procs for 140 steps with 288751 atoms

99.9% CPU use with 104 MPI tasks x 1 OpenMP threads

Minimization stats:
  Stopping criterion = energy tolerance
  Energy initial, next-to-last, final = 
     -1152448.82966966  -1152448.83170083  -1152448.83170083
  Force two-norm initial, final = 0.22781693 0.00019651552
  Force max component initial, final = 0.17619883 5.0870091e-05
  Final line search alpha, max atom move = 1.0000000 5.0870091e-05
  Iterations, force evaluations = 140 280

MPI task timing breakdown:
Section |  min time  |  avg time  |  max time  |%varavg| %total
---------------------------------------------------------------
Pair    | 0.4264     | 1.1775     | 1.5508     |  29.3 | 71.38
Neigh   | 0          | 0          | 0          |   0.0 |  0.00
Comm    | 0.026084   | 0.26799    | 0.79339    |  42.6 | 16.25
Output  | 0          | 0          | 0          |   0.0 |  0.00
Modify  | 1.6771e-05 | 0.0023156  | 0.0049304  |   2.3 |  0.14
Other   |            | 0.2019     |            |       | 12.24

Nlocal:        2776.45 ave        3945 max           0 min
Histogram: 8 4 4 0 4 12 8 0 28 36
Nghost:        3878.99 ave        5425 max         232 min
Histogram: 8 0 8 0 16 0 8 8 16 40
Neighs:        79213.2 ave      114942 max           0 min
Histogram: 8 4 4 0 10 6 8 8 22 34

Total # of neighbors = 8238177
Ave neighs/atom = 28.530384
Neighbor list builds = 0
Dangerous builds = 0
The dot product: -4.04590141740174e-09
Setting atom values ...
  1 settings made for x
  1 settings made for y
  1 settings made for z
Setting up cg style minimization ...
  Unit style    : metal
  Current step  : 5830
Per MPI rank memory allocation (min/avg/max) = 5.441 | 5.816 | 6.074 Mbytes
Step PotEng KinEng TotEng v_fx v_fy v_fz 
    5830   -1152448.8            0   -1152448.8 4.4319987e-05 0.0025258142 -0.0076436922 
    6000   -1152448.8            0   -1152448.8 2.4707719e-05 3.3371885e-05 3.6636632e-05 
    6020   -1152448.8            0   -1152448.8 2.5030417e-07 1.114493e-06 -2.0561887e-06 
Loop time of 2.23502 on 104 procs for 190 steps with 288751 atoms

99.9% CPU use with 104 MPI tasks x 1 OpenMP threads

Minimization stats:
  Stopping criterion = energy tolerance
  Energy initial, next-to-last, final = 
      -1152448.8018085  -1152448.80394043  -1152448.80394043
  Force two-norm initial, final = 0.23243009 0.00012211139
  Force max component initial, final = 0.1785716 4.5981258e-05
  Final line search alpha, max atom move = 1.0000000 4.5981258e-05
  Iterations, force evaluations = 190 380

MPI task timing breakdown:
Section |  min time  |  avg time  |  max time  |%varavg| %total
---------------------------------------------------------------
Pair    | 0.57735    | 1.6063     | 2.1055     |  34.2 | 71.87
Neigh   | 0          | 0          | 0          |   0.0 |  0.00
Comm    | 0.033019   | 0.36498    | 1.0941     |  50.0 | 16.33
Output  | 0.00024679 | 0.0002557  | 0.00039522 |   0.0 |  0.01
Modify  | 2.3153e-05 | 0.0031392  | 0.0067395  |   2.6 |  0.14
Other   |            | 0.2604     |            |       | 11.65

Nlocal:        2776.45 ave        3940 max           0 min
Histogram: 8 4 4 0 4 12 8 0 28 36
Nghost:        3878.99 ave        5425 max         232 min
Histogram: 8 0 8 0 16 0 8 8 16 40
Neighs:        79213.2 ave      114792 max           0 min
Histogram: 8 4 4 0 10 6 8 8 22 34

Total # of neighbors = 8238176
Ave neighs/atom = 28.530381
Neighbor list builds = 0
Dangerous builds = 0
The dot product: -1.55892974635252e-09
Setting atom values ...
  1 settings made for x
  1 settings made for y
  1 settings made for z
Setting up cg style minimization ...
  Unit style    : metal
  Current step  : 6020
Per MPI rank memory allocation (min/avg/max) = 5.441 | 5.816 | 6.074 Mbytes
Step PotEng KinEng TotEng v_fx v_fy v_fz 
    6020   -1152448.8            0   -1152448.8 0.00026857345 0.0025571322 -0.0064992216 
    6176   -1152448.8            0   -1152448.8 1.1274979e-05 2.3891675e-05 -1.0614978e-05 
Loop time of 1.81198 on 104 procs for 156 steps with 288751 atoms

99.9% CPU use with 104 MPI tasks x 1 OpenMP threads

Minimization stats:
  Stopping criterion = energy tolerance
  Energy initial, next-to-last, final = 
     -1152448.77164109  -1152448.77384861  -1152448.77384861
  Force two-norm initial, final = 0.23641334 0.00020427556
  Force max component initial, final = 0.18093663 6.1929185e-05
  Final line search alpha, max atom move = 1.0000000 6.1929185e-05
  Iterations, force evaluations = 156 312

MPI task timing breakdown:
Section |  min time  |  avg time  |  max time  |%varavg| %total
---------------------------------------------------------------
Pair    | 0.47164    | 1.3107     | 1.7091     |  31.0 | 72.33
Neigh   | 0          | 0          | 0          |   0.0 |  0.00
Comm    | 0.027974   | 0.29604    | 0.89066    |  45.6 | 16.34
Output  | 0          | 0          | 0          |   0.0 |  0.00
Modify  | 1.9066e-05 | 0.0025776  | 0.0055236  |   2.4 |  0.14
Other   |            | 0.2027     |            |       | 11.19

Nlocal:        2776.45 ave        3930 max           0 min
Histogram: 8 4 4 0 4 12 8 0 26 38
Nghost:        3879.03 ave        5425 max         232 min
Histogram: 8 0 8 0 16 0 8 8 16 40
Neighs:        79213.2 ave      114461 max           0 min
Histogram: 8 4 4 0 8 8 8 8 20 36

Total # of neighbors = 8238169
Ave neighs/atom = 28.530357
Neighbor list builds = 0
Dangerous builds = 0
The dot product: -2.93099774243021e-08
Setting atom values ...
  1 settings made for x
  1 settings made for y
  1 settings made for z
Setting up cg style minimization ...
  Unit style    : metal
  Current step  : 6176
Per MPI rank memory allocation (min/avg/max) = 5.441 | 5.816 | 6.074 Mbytes
Step PotEng KinEng TotEng v_fx v_fy v_fz 
    6176   -1152448.7            0   -1152448.7 0.00057369299 0.0028716745 -0.0057948333 
    6388   -1152448.7            0   -1152448.7 1.689982e-06 4.3888318e-06 -4.1879332e-06 
Loop time of 2.51049 on 104 procs for 212 steps with 288751 atoms

99.9% CPU use with 104 MPI tasks x 1 OpenMP threads

Minimization stats:
  Stopping criterion = energy tolerance
  Energy initial, next-to-last, final = 
     -1152448.73910861  -1152448.74136951  -1152448.74136951
  Force two-norm initial, final = 0.23964551 6.9087185e-05
  Force max component initial, final = 0.18335304 2.3775700e-05
  Final line search alpha, max atom move = 1.0000000 2.3775700e-05
  Iterations, force evaluations = 212 424

MPI task timing breakdown:
Section |  min time  |  avg time  |  max time  |%varavg| %total
---------------------------------------------------------------
Pair    | 0.64521    | 1.7889     | 2.3642     |  36.1 | 71.26
Neigh   | 0          | 0          | 0          |   0.0 |  0.00
Comm    | 0.046763   | 0.40828    | 1.2034     |  52.6 | 16.26
Output  | 0          | 0          | 0          |   0.0 |  0.00
Modify  | 2.5307e-05 | 0.0034974  | 0.0074801  |   2.8 |  0.14
Other   |            | 0.3098     |            |       | 12.34

Nlocal:        2776.45 ave        3930 max           0 min
Histogram: 8 4 4 0 4 12 8 0 26 38
Nghost:        3878.98 ave        5425 max         232 min
Histogram: 8 0 8 0 16 0 8 8 16 40
Neighs:        79213.1 ave      114461 max           0 min
Histogram: 8 4 4 0 8 8 8 8 20 36

Total # of neighbors = 8238166
Ave neighs/atom = 28.530346
Neighbor list builds = 0
Dangerous builds = 0
The dot product: -6.54351895953958e-09
Setting atom values ...
  1 settings made for x
  1 settings made for y
  1 settings made for z
Setting up cg style minimization ...
  Unit style    : metal
  Current step  : 6388
Per MPI rank memory allocation (min/avg/max) = 5.441 | 5.816 | 6.074 Mbytes
Step PotEng KinEng TotEng v_fx v_fy v_fz 
    6388   -1152448.7            0   -1152448.7 0.00085328475 0.0033448812 -0.0057448743 
    6550   -1152448.7            0   -1152448.7 1.3954058e-06 2.932641e-06 -1.3021838e-06 
Loop time of 1.89764 on 104 procs for 162 steps with 288751 atoms

99.9% CPU use with 104 MPI tasks x 1 OpenMP threads

Minimization stats:
  Stopping criterion = energy tolerance
  Energy initial, next-to-last, final = 
      -1152448.7041821  -1152448.70647381  -1152448.70647381
  Force two-norm initial, final = 0.24213333 0.00019169332
  Force max component initial, final = 0.1857358 5.9363024e-05
  Final line search alpha, max atom move = 1.0000000 5.9363024e-05
  Iterations, force evaluations = 162 324

MPI task timing breakdown:
Section |  min time  |  avg time  |  max time  |%varavg| %total
---------------------------------------------------------------
Pair    | 0.48945    | 1.3627     | 1.784      |  31.6 | 71.81
Neigh   | 0          | 0          | 0          |   0.0 |  0.00
Comm    | 0.027878   | 0.31009    | 0.92478    |  46.2 | 16.34
Output  | 0          | 0          | 0          |   0.0 |  0.00
Modify  | 1.9538e-05 | 0.0026761  | 0.005715   |   2.4 |  0.14
Other   |            | 0.2222     |            |       | 11.71

Nlocal:        2776.45 ave        3930 max           0 min
Histogram: 8 4 4 0 4 12 8 0 26 38
Nghost:        3878.95 ave        5426 max         232 min
Histogram: 8 0 8 0 16 0 8 8 16 40
Neighs:        79213.1 ave      114461 max           0 min
Histogram: 8 4 4 0 8 8 8 8 20 36

Total # of neighbors = 8238166
Ave neighs/atom = 28.530346
Neighbor list builds = 0
Dangerous builds = 0
The dot product: -3.43238492801707e-09
Setting atom values ...
  1 settings made for x
  1 settings made for y
  1 settings made for z
Setting up cg style minimization ...
  Unit style    : metal
  Current step  : 6550
Per MPI rank memory allocation (min/avg/max) = 5.441 | 5.816 | 6.074 Mbytes
Step PotEng KinEng TotEng v_fx v_fy v_fz 
    6550   -1152448.7            0   -1152448.7 0.0011842218 0.0039810744 -0.0059306484 
    6774   -1152448.7            0   -1152448.7 2.1981277e-06 3.4557883e-06 1.6445552e-06 
Loop time of 2.63106 on 104 procs for 224 steps with 288751 atoms

99.9% CPU use with 104 MPI tasks x 1 OpenMP threads

Minimization stats:
  Stopping criterion = energy tolerance
  Energy initial, next-to-last, final = 
     -1152448.66685048  -1152448.66915673  -1152448.66915673
  Force two-norm initial, final = 0.24412828 4.9183119e-05
  Force max component initial, final = 0.18821846 1.7982708e-05
  Final line search alpha, max atom move = 1.0000000 1.7982708e-05
  Iterations, force evaluations = 224 448

MPI task timing breakdown:
Section |  min time  |  avg time  |  max time  |%varavg| %total
---------------------------------------------------------------
Pair    | 0.67986    | 1.8933     | 2.4689     |  37.1 | 71.96
Neigh   | 0          | 0          | 0          |   0.0 |  0.00
Comm    | 0.043918   | 0.42976    | 1.297      |  54.5 | 16.33
Output  | 0          | 0          | 0          |   0.0 |  0.00
Modify  | 2.8367e-05 | 0.0037084  | 0.0079173  |   2.9 |  0.14
Other   |            | 0.3043     |            |       | 11.57

Nlocal:        2776.45 ave        3930 max           0 min
Histogram: 8 4 4 0 4 12 8 0 26 38
Nghost:        3878.92 ave        5426 max         232 min
Histogram: 8 0 8 0 16 0 8 8 16 40
Neighs:        79213.1 ave      114461 max           0 min
Histogram: 8 4 4 0 8 8 8 8 20 36

Total # of neighbors = 8238163
Ave neighs/atom = 28.530336
Neighbor list builds = 0
Dangerous builds = 0
The dot product: -1.39580919112948e-09
Setting atom values ...
  1 settings made for x
  1 settings made for y
  1 settings made for z
Setting up cg style minimization ...
  Unit style    : metal
  Current step  : 6774
Per MPI rank memory allocation (min/avg/max) = 5.441 | 5.816 | 6.074 Mbytes
Step PotEng KinEng TotEng v_fx v_fy v_fz 
    6774   -1152448.6            0   -1152448.6 0.0015270282 0.0048003766 -0.0066481268 
    6946   -1152448.6            0   -1152448.6 1.6016018e-06 4.1853976e-07 7.9979543e-06 
Loop time of 2.01317 on 104 procs for 172 steps with 288751 atoms

99.9% CPU use with 104 MPI tasks x 1 OpenMP threads

[...]
Histogram: 8 0 8 0 16 0 8 8 16 40
Neighs:        79213.4 ave      115360 max           0 min
Histogram: 8 4 4 0 10 6 8 8 24 32

Total # of neighbors = 8238191
Ave neighs/atom = 28.530433
Neighbor list builds = 0
Dangerous builds = 0
The dot product: 6.00564149268304e-08
Setting atom values ...
  1 settings made for x
  1 settings made for y
  1 settings made for z
Setting up cg style minimization ...
  Unit style    : metal
  Current step  : 15952
Per MPI rank memory allocation (min/avg/max) = 5.441 | 5.816 | 6.074 Mbytes
Step PotEng KinEng TotEng v_fx v_fy v_fz 
   15952   -1152448.4            0   -1152448.4 0.0039911867 0.00055878643 0.0045336186 
   16000   -1152448.4            0   -1152448.4 -1.749036e-05 -0.0001086922 -1.7337729e-05 
   16148   -1152448.4            0   -1152448.4 2.0797553e-05 -2.9807718e-05 2.440316e-05 
Loop time of 2.29526 on 104 procs for 196 steps with 288751 atoms

99.9% CPU use with 104 MPI tasks x 1 OpenMP threads

Minimization stats:
  Stopping criterion = energy tolerance
  Energy initial, next-to-last, final = 
     -1152448.44074359  -1152448.44202593  -1152448.44202593
  Force two-norm initial, final = 0.1567798 0.00015255543
  Force max component initial, final = 0.081324107 3.6476389e-05
  Final line search alpha, max atom move = 1.0000000 3.6476389e-05
  Iterations, force evaluations = 196 392

MPI task timing breakdown:
Section |  min time  |  avg time  |  max time  |%varavg| %total
---------------------------------------------------------------
Pair    | 0.5956     | 1.6473     | 2.1634     |  34.6 | 71.77
Neigh   | 0          | 0          | 0          |   0.0 |  0.00
Comm    | 0.037364   | 0.37615    | 1.1197     |  50.6 | 16.39
Output  | 0.0001755  | 0.00017842 | 0.00032425 |   0.0 |  0.01
Modify  | 2.3519e-05 | 0.0032386  | 0.0069148  |   2.7 |  0.14
Other   |            | 0.2684     |            |       | 11.69

Nlocal:        2776.45 ave        3957 max           0 min
Histogram: 8 4 4 0 4 12 8 4 26 34
Nghost:        3878.96 ave        5426 max         232 min
Histogram: 8 0 8 0 16 0 8 8 16 40
Neighs:        79213.5 ave      115361 max           0 min
Histogram: 8 4 4 0 10 6 8 8 24 32

Total # of neighbors = 8238199
Ave neighs/atom = 28.530461
Neighbor list builds = 0
Dangerous builds = 0
The dot product: -4.46268099293202e-08
Setting atom values ...
  1 settings made for x
  1 settings made for y
  1 settings made for z
Setting up cg style minimization ...
  Unit style    : metal
  Current step  : 16148
Per MPI rank memory allocation (min/avg/max) = 5.441 | 5.816 | 6.074 Mbytes
Step PotEng KinEng TotEng v_fx v_fy v_fz 
   16148   -1152448.4            0   -1152448.4 0.0026264816 0.0063122346 0.0028217958 
   16351   -1152448.4            0   -1152448.4 -1.0158812e-05 2.2284038e-05 -1.2099544e-05 
Loop time of 2.39354 on 104 procs for 203 steps with 288751 atoms

99.9% CPU use with 104 MPI tasks x 1 OpenMP threads

Minimization stats:
  Stopping criterion = energy tolerance
  Energy initial, next-to-last, final = 
     -1152448.41071531  -1152448.41197503  -1152448.41197503
  Force two-norm initial, final = 0.15586585 0.00011506946
  Force max component initial, final = 0.081990308 2.6494827e-05
  Final line search alpha, max atom move = 1.0000000 2.6494827e-05
  Iterations, force evaluations = 203 406

MPI task timing breakdown:
Section |  min time  |  avg time  |  max time  |%varavg| %total
---------------------------------------------------------------
Pair    | 0.61461    | 1.7076     | 2.2536     |  35.3 | 71.34
Neigh   | 0          | 0          | 0          |   0.0 |  0.00
Comm    | 0.041242   | 0.39293    | 1.1494     |  51.0 | 16.42
Output  | 0          | 0          | 0          |   0.0 |  0.00
Modify  | 2.4839e-05 | 0.0033492  | 0.0071324  |   2.7 |  0.14
Other   |            | 0.2896     |            |       | 12.10

Nlocal:        2776.45 ave        3956 max           0 min
Histogram: 8 4 4 0 4 12 8 0 30 34
Nghost:        3878.96 ave        5426 max         232 min
Histogram: 8 0 8 0 16 0 8 8 16 40
Neighs:        79213.5 ave      115334 max           0 min
Histogram: 8 4 4 0 10 6 8 8 24 32

Total # of neighbors = 8238202
Ave neighs/atom = 28.530471
Neighbor list builds = 0
Dangerous builds = 0
The dot product: 2.66415165728036e-08
Setting atom values ...
  1 settings made for x
  1 settings made for y
  1 settings made for z
Setting up cg style minimization ...
  Unit style    : metal
  Current step  : 16351
Per MPI rank memory allocation (min/avg/max) = 5.441 | 5.816 | 6.074 Mbytes
Step PotEng KinEng TotEng v_fx v_fy v_fz 
   16351   -1152448.4            0   -1152448.4 0.00048297785  0.013358699 0.00019257046 
   16538   -1152448.4            0   -1152448.4 2.1990323e-05 -1.0122536e-05 2.5139055e-05 
Loop time of 2.19057 on 104 procs for 187 steps with 288751 atoms

99.9% CPU use with 104 MPI tasks x 1 OpenMP threads

Minimization stats:
  Stopping criterion = energy tolerance
  Energy initial, next-to-last, final = 
     -1152448.37923169  -1152448.38044633  -1152448.38044633
  Force two-norm initial, final = 0.15530009 0.0001681458
  Force max component initial, final = 0.082556838 3.6472666e-05
  Final line search alpha, max atom move = 1.0000000 3.6472666e-05
  Iterations, force evaluations = 187 374

MPI task timing breakdown:
Section |  min time  |  avg time  |  max time  |%varavg| %total
---------------------------------------------------------------
Pair    | 0.56829    | 1.5699     | 2.0664     |  33.7 | 71.67
Neigh   | 0          | 0          | 0          |   0.0 |  0.00
Comm    | 0.033778   | 0.35689    | 1.0569     |  49.1 | 16.29
Output  | 0          | 0          | 0          |   0.0 |  0.00
Modify  | 2.2821e-05 | 0.0030908  | 0.0065573  |   2.6 |  0.14
Other   |            | 0.2606     |            |       | 11.90

Nlocal:        2776.45 ave        3956 max           0 min
Histogram: 8 4 4 0 4 12 8 0 30 34
Nghost:        3878.97 ave        5427 max         232 min
Histogram: 8 0 8 0 16 0 8 8 16 40
Neighs:        79213.5 ave      115343 max           0 min
Histogram: 8 4 4 0 10 6 8 8 24 32

Total # of neighbors = 8238199
Ave neighs/atom = 28.530461
Neighbor list builds = 0
Dangerous builds = 0
The dot product: -1.44280359342876e-07
Setting atom values ...
  1 settings made for x
  1 settings made for y
  1 settings made for z
Setting up cg style minimization ...
  Unit style    : metal
  Current step  : 16538
Per MPI rank memory allocation (min/avg/max) = 5.441 | 5.816 | 6.074 Mbytes
Step PotEng KinEng TotEng v_fx v_fy v_fz 
   16538   -1152448.3            0   -1152448.3 -0.0025386061  0.023896519 -0.0034940915 
   16854   -1152448.4            0   -1152448.4 4.1578423e-06 -3.4144604e-06 4.7729144e-06 
Loop time of 3.71736 on 104 procs for 316 steps with 288751 atoms

99.9% CPU use with 104 MPI tasks x 1 OpenMP threads

Minimization stats:
  Stopping criterion = energy tolerance
  Energy initial, next-to-last, final = 
     -1152448.34644055  -1152448.35705908  -1152448.35705908
  Force two-norm initial, final = 0.15582854 2.0112824e-05
  Force max component initial, final = 0.082871712 5.3954823e-06
  Final line search alpha, max atom move = 1.0000000 5.3954823e-06
  Iterations, force evaluations = 316 632

MPI task timing breakdown:
Section |  min time  |  avg time  |  max time  |%varavg| %total
---------------------------------------------------------------
Pair    | 0.96426    | 2.6574     | 3.5003     |  44.0 | 71.49
Neigh   | 1.0645e-05 | 0.0029354  | 0.0042688  |   2.2 |  0.08
Comm    | 0.05683    | 0.61405    | 1.8087     |  63.6 | 16.52
Output  | 0          | 0          | 0          |   0.0 |  0.00
Modify  | 3.8724e-05 | 0.0052121  | 0.011148   |   3.4 |  0.14
Other   |            | 0.4377     |            |       | 11.78

Nlocal:        2776.45 ave        3955 max           0 min
Histogram: 8 4 4 0 4 12 8 0 30 34
Nghost:        3879.05 ave        5427 max         232 min
Histogram: 8 0 8 0 16 0 8 8 16 40
Neighs:        79213.6 ave      115314 max           0 min
Histogram: 8 4 4 0 10 6 8 8 24 32

Total # of neighbors = 8238210
Ave neighs/atom = 28.530499
Neighbor list builds = 1
Dangerous builds = 0
The dot product: -4.15716184859874e-07
Setting atom values ...
  1 settings made for x
  1 settings made for y
  1 settings made for z
Setting up cg style minimization ...
  Unit style    : metal
  Current step  : 16854
Per MPI rank memory allocation (min/avg/max) = 5.441 | 5.816 | 6.074 Mbytes
Step PotEng KinEng TotEng v_fx v_fy v_fz 
   16854   -1152448.3            0   -1152448.3 -0.023220243  0.055831861 -0.025171765 
   16993   -1152448.3            0   -1152448.3 1.8273936e-05 -4.7255311e-05 1.9825215e-05 
Loop time of 1.63349 on 104 procs for 139 steps with 288751 atoms

99.9% CPU use with 104 MPI tasks x 1 OpenMP threads

Minimization stats:
  Stopping criterion = energy tolerance
  Energy initial, next-to-last, final = 
     -1152448.32417995  -1152448.32666688  -1152448.32666688
  Force two-norm initial, final = 0.16934156 0.00020671486
  Force max component initial, final = 0.080003757 4.7255311e-05
  Final line search alpha, max atom move = 1.0000000 4.7255311e-05
  Iterations, force evaluations = 139 278

MPI task timing breakdown:
Section |  min time  |  avg time  |  max time  |%varavg| %total
---------------------------------------------------------------
Pair    | 0.4202     | 1.1681     | 1.5406     |  29.2 | 71.51
Neigh   | 0          | 0          | 0          |   0.0 |  0.00
Comm    | 0.025554   | 0.26632    | 0.78765    |  42.4 | 16.30
Output  | 0          | 0          | 0          |   0.0 |  0.00
Modify  | 1.6992e-05 | 0.002301   | 0.0049002  |   2.3 |  0.14
Other   |            | 0.1968     |            |       | 12.05

Nlocal:        2776.45 ave        3957 max           0 min
Histogram: 8 4 4 0 4 12 8 4 26 34
Nghost:        3879.05 ave        5427 max         232 min
Histogram: 8 0 8 0 16 0 8 8 16 40
Neighs:        79213.7 ave      115372 max           0 min
Histogram: 8 4 4 0 10 6 8 8 24 32

Total # of neighbors = 8238228
Ave neighs/atom = 28.530561
Neighbor list builds = 0
Dangerous builds = 0
The dot product: -1.18100575848373e-06
Setting atom values ...
  1 settings made for x
  1 settings made for y
  1 settings made for z
Setting up cg style minimization ...
  Unit style    : metal
  Current step  : 16993
Per MPI rank memory allocation (min/avg/max) = 5.441 | 5.816 | 6.074 Mbytes
Step PotEng KinEng TotEng v_fx v_fy v_fz 
   16993   -1152448.3            0   -1152448.3 -0.0048056346  0.046849509 -0.0047509922 
   17000   -1152448.3            0   -1152448.3  0.002058526 -0.0039913301 0.0021495323 
   17133   -1152448.3            0   -1152448.3 -7.9670405e-06 -1.1029235e-05 -8.5076822e-06 
Loop time of 1.6634 on 104 procs for 140 steps with 288751 atoms

99.9% CPU use with 104 MPI tasks x 1 OpenMP threads

Minimization stats:
  Stopping criterion = energy tolerance
  Energy initial, next-to-last, final = 
     -1152448.29513742  -1152448.29684341  -1152448.29684341
  Force two-norm initial, final = 0.16026097 0.00011941636
  Force max component initial, final = 0.077717678 2.4672092e-05
  Final line search alpha, max atom move = 1.0000000 2.4672092e-05
  Iterations, force evaluations = 140 280

MPI task timing breakdown:
Section |  min time  |  avg time  |  max time  |%varavg| %total
---------------------------------------------------------------
Pair    | 0.42452    | 1.18       | 1.5623     |  29.3 | 70.94
Neigh   | 0          | 0          | 0          |   0.0 |  0.00
Comm    | 0.027253   | 0.27335    | 0.79464    |  42.0 | 16.43
Output  | 0.00013932 | 0.00014574 | 0.00023226 |   0.0 |  0.01
Modify  | 1.7175e-05 | 0.0023148  | 0.0049625  |   2.3 |  0.14
Other   |            | 0.2076     |            |       | 12.48

Nlocal:        2776.45 ave        3957 max           0 min
Histogram: 8 4 4 0 4 12 8 4 26 34
Nghost:        3879.05 ave        5427 max         232 min
Histogram: 8 0 8 0 16 0 8 8 16 40
Neighs:        79213.7 ave      115371 max           0 min
Histogram: 8 4 4 0 10 6 8 8 24 32

Total # of neighbors = 8238226
Ave neighs/atom = 28.530554
Neighbor list builds = 0
Dangerous builds = 0
The dot product: -4.36401139576258e-08
Setting atom values ...
  1 settings made for x
  1 settings made for y
  1 settings made for z
Setting up cg style minimization ...
  Unit style    : metal
  Current step  : 17133
Per MPI rank memory allocation (min/avg/max) = 5.441 | 5.816 | 6.074 Mbytes
Step PotEng KinEng TotEng v_fx v_fy v_fz 
   17133   -1152448.3            0   -1152448.3 -0.00020251448  0.040954843 0.00037265632 
   17218   -1152448.3            0   -1152448.3 -2.2160828e-05 -8.2389445e-06 -2.3427752e-05 
Loop time of 1.01152 on 104 procs for 85 steps with 288751 atoms

99.9% CPU use with 104 MPI tasks x 1 OpenMP threads

Minimization stats:
  Stopping criterion = energy tolerance
  Energy initial, next-to-last, final = 
     -1152448.26566289  -1152448.26703295  -1152448.26703295
  Force two-norm initial, final = 0.15485182 0.00025937032
  Force max component initial, final = 0.075981814 4.3242384e-05
  Final line search alpha, max atom move = 1.0000000 4.3242384e-05
  Iterations, force evaluations = 85 170

MPI task timing breakdown:
Section |  min time  |  avg time  |  max time  |%varavg| %total
---------------------------------------------------------------
Pair    | 0.2587     | 0.71706    | 0.94515    |  22.9 | 70.89
Neigh   | 0          | 0          | 0          |   0.0 |  0.00
Comm    | 0.014984   | 0.16527    | 0.48427    |  33.1 | 16.34
Output  | 0          | 0          | 0          |   0.0 |  0.00
Modify  | 1.0665e-05 | 0.0014118  | 0.0029941  |   1.8 |  0.14
Other   |            | 0.1278     |            |       | 12.63

Nlocal:        2776.45 ave        3957 max           0 min
Histogram: 8 4 4 0 4 12 8 4 26 34
Nghost:        3879.05 ave        5427 max         232 min
Histogram: 8 0 8 0 16 0 8 8 16 40
Neighs:        79213.7 ave      115368 max           0 min
Histogram: 8 4 4 0 10 6 8 8 24 32

Total # of neighbors = 8238223
Ave neighs/atom = 28.530544
Neighbor list builds = 0
Dangerous builds = 0
The dot product: 6.60742735295288e-08
Setting atom values ...
  1 settings made for x
  1 settings made for y
  1 settings made for z
Setting up cg style minimization ...
  Unit style    : metal
  Current step  : 17218
Per MPI rank memory allocation (min/avg/max) = 5.441 | 5.816 | 6.074 Mbytes
Step PotEng KinEng TotEng v_fx v_fy v_fz 
   17218   -1152448.2            0   -1152448.2 0.0011076563  0.038279395 0.0018868956 
   17564   -1152448.2            0   -1152448.2 1.5342398e-05 -2.3189334e-05 1.5640247e-05 
Loop time of 4.12457 on 104 procs for 346 steps with 288751 atoms

99.9% CPU use with 104 MPI tasks x 1 OpenMP threads

Minimization stats:
  Stopping criterion = energy tolerance
  Energy initial, next-to-last, final = 
     -1152448.23566246  -1152448.23697038  -1152448.23697038
  Force two-norm initial, final = 0.15169518 0.00019175939
  Force max component initial, final = 0.074584077 2.3667498e-05
  Final line search alpha, max atom move = 1.0000000 2.3667498e-05
  Iterations, force evaluations = 346 692

MPI task timing breakdown:
Section |  min time  |  avg time  |  max time  |%varavg| %total
---------------------------------------------------------------
Pair    | 1.0453     | 2.9219     | 3.8678     |  46.3 | 70.84
Neigh   | 0          | 0          | 0          |   0.0 |  0.00
Comm    | 0.058378   | 0.67811    | 1.976      |  65.7 | 16.44
Output  | 0          | 0          | 0          |   0.0 |  0.00
Modify  | 4.2589e-05 | 0.0057126  | 0.012187   |   3.6 |  0.14
Other   |            | 0.5188     |            |       | 12.58

Nlocal:        2776.45 ave        3957 max           0 min
Histogram: 8 4 4 0 4 12 8 4 26 34
Nghost:        3879.05 ave        5427 max         232 min
Histogram: 8 0 8 0 16 0 8 8 16 40
Neighs:        79213.7 ave      115371 max           0 min
Histogram: 8 4 4 0 10 6 8 8 24 32

Total # of neighbors = 8238225
Ave neighs/atom = 28.530551
Neighbor list builds = 0
Dangerous builds = 0
The dot product: -2.20194359504732e-07
Setting atom values ...
  1 settings made for x
  1 settings made for y
  1 settings made for z
Setting up cg style minimization ...
  Unit style    : metal
  Current step  : 17564
Per MPI rank memory allocation (min/avg/max) = 5.441 | 5.816 | 6.074 Mbytes
Step PotEng KinEng TotEng v_fx v_fy v_fz 
   17564   -1152448.2            0   -1152448.2 0.00057688397  0.038532449 0.0014647588 
   17771   -1152448.2            0   -1152448.2 -4.1838641e-06 -3.6005453e-06 -4.4466907e-06 
Loop time of 2.43023 on 104 procs for 207 steps with 288751 atoms

99.9% CPU use with 104 MPI tasks x 1 OpenMP threads

Minimization stats:
  Stopping criterion = energy tolerance
  Energy initial, next-to-last, final = 
     -1152448.20533603  -1152448.20658408  -1152448.20658408
  Force two-norm initial, final = 0.15016635 3.7576008e-05
  Force max component initial, final = 0.073475516 5.0008738e-06
  Final line search alpha, max atom move = 1.0000000 5.0008738e-06
  Iterations, force evaluations = 207 414

MPI task timing breakdown:
Section |  min time  |  avg time  |  max time  |%varavg| %total
---------------------------------------------------------------
Pair    | 0.62655    | 1.7393     | 2.2936     |  35.7 | 71.57
Neigh   | 0          | 0          | 0          |   0.0 |  0.00
Comm    | 0.036018   | 0.39726    | 1.1762     |  51.7 | 16.35
Output  | 0          | 0          | 0          |   0.0 |  0.00
Modify  | 2.5406e-05 | 0.0034236  | 0.0073454  |   2.8 |  0.14
Other   |            | 0.2902     |            |       | 11.94

Nlocal:        2776.45 ave        3957 max           0 min
Histogram: 8 4 4 0 4 12 8 4 26 34
Nghost:        3879.05 ave        5427 max         232 min
Histogram: 8 0 8 0 16 0 8 8 16 40
Neighs:        79213.8 ave      115390 max           0 min
Histogram: 8 4 4 0 10 6 8 8 24 32

Total # of neighbors = 8238240
Ave neighs/atom = 28.530602
Neighbor list builds = 0
Dangerous builds = 0
The dot product: 3.30814739234444e-11
Setting up cg style minimization ...
  Unit style    : metal
  Current step  : 17771
Per MPI rank memory allocation (min/avg/max) = 5.441 | 5.816 | 6.074 Mbytes
Step PotEng KinEng TotEng v_fx v_fy v_fz 
   17771   -1152448.2            0   -1152448.2   -1.0996747 -0.023597953    1.0537734 
   18000   -1152448.8            0   -1152448.8 0.00075154857 -0.0011074306 0.00098335004 
   18089   -1152448.8            0   -1152448.8 -3.2217199e-05 4.617582e-05 -3.7820367e-05 
Loop time of 3.78011 on 104 procs for 318 steps with 288751 atoms

99.9% CPU use with 104 MPI tasks x 1 OpenMP threads

Minimization stats:
  Stopping criterion = energy tolerance
  Energy initial, next-to-last, final = 
     -1152448.20658408  -1152448.77903547  -1152448.77903547
  Force two-norm initial, final = 1.5232464 0.00020222336
  Force max component initial, final = 1.0996747 5.0514792e-05
  Final line search alpha, max atom move = 1.0000000 5.0514792e-05
  Iterations, force evaluations = 318 634

MPI task timing breakdown:
Section |  min time  |  avg time  |  max time  |%varavg| %total
---------------------------------------------------------------
Pair    | 0.9829     | 2.6748     | 3.52       |  43.8 | 70.76
Neigh   | 7.1284e-05 | 0.020601   | 0.029923   |   5.9 |  0.54
Comm    | 0.058078   | 0.61658    | 1.7905     |  63.2 | 16.31
Output  | 0.00016081 | 0.00016434 | 0.00037088 |   0.0 |  0.00
Modify  | 3.5794e-05 | 0.0034132  | 0.0087462  |   3.6 |  0.09
Other   |            | 0.4645     |            |       | 12.29

Nlocal:        2776.45 ave        3959 max           0 min
Histogram: 8 4 4 0 4 12 8 3 27 34
Nghost:        3878.89 ave        5426 max         232 min
Histogram: 8 0 8 0 16 0 8 8 16 40
Neighs:        79213.4 ave      115400 max           0 min
Histogram: 8 4 4 0 10 6 8 8 24 32

Total # of neighbors = 8238191
Ave neighs/atom = 28.530433
Neighbor list builds = 7
Dangerous builds = 0
