LAMMPS (29 Oct 2020)
OMP_NUM_THREADS environment is not set. Defaulting to 1 thread. (../comm.cpp:94)
  using 1 OpenMP thread(s) per MPI task
Reading data file ...
  orthogonal box = (-122.39241 -121.13707 -37.090501) to (122.39241 121.13707 37.090501)
  13 by 4 by 1 MPI processor grid
  reading atoms ...
  288751 atoms
  read_data CPU = 0.437 seconds
199981 atoms in group inner
88770 atoms in group outer
1 atoms in group carbon
Neighbor list info ...
  update every 1 steps, delay 0 steps, check yes
  max neighbors/atom: 2000, page size: 100000
  master list distance cutoff = 5.6
  ghost atom cutoff = 5.6
  binsize = 2.8, bins = 88 87 27
  1 neighbor lists, perpetual/occasional/extra = 1 0 0
  (1) pair eam/alloy, perpetual
      attributes: half, newton on
      pair build: half/bin/atomonly/newton
      stencil: half/bin/3d/newton
      bin: standard
Setting up cg style minimization ...
  Unit style    : metal
  Current step  : 0
Per MPI rank memory allocation (min/avg/max) = 5.465 | 6.344 | 6.728 Mbytes
Step v_fx v_fy v_fz PotEng KinEng TotEng 
       0   -25.409511    15.059185      49.9568   -1152433.5            0   -1152433.5 
     159 1.924148e-05 -2.9162264e-05 5.8533508e-06   -1152449.5            0   -1152449.5 
Loop time of 3.52002 on 52 procs for 159 steps with 288751 atoms

99.8% CPU use with 52 MPI tasks x 1 OpenMP threads

Minimization stats:
  Stopping criterion = energy tolerance
  Energy initial, next-to-last, final = 
     -1152433.47074203  -1152449.45035257  -1152449.45035257
  Force two-norm initial, final = 87.079027 0.0001725592
  Force max component initial, final = 57.190163 2.9162264e-05
  Final line search alpha, max atom move = 1.0000000 2.9162264e-05
  Iterations, force evaluations = 159 309

MPI task timing breakdown:
Section |  min time  |  avg time  |  max time  |%varavg| %total
---------------------------------------------------------------
Pair    | 0.93471    | 2.4912     | 3.2407     |  42.4 | 70.77
Neigh   | 0.00010881 | 0.032371   | 0.045428   |   7.7 |  0.92
Comm    | 0.051172   | 0.56681    | 1.771      |  65.7 | 16.10
Output  | 0          | 0          | 0          |   0.0 |  0.00
Modify  | 5.5795e-05 | 0.0033893  | 0.008627   |   3.6 |  0.10
Other   |            | 0.4263     |            |       | 12.11

Nlocal:        5552.90 ave        7911 max           0 min
Histogram: 4 2 2 0 2 6 4 0 15 17
Nghost:        6213.54 ave        8769 max         412 min
Histogram: 4 0 4 0 8 0 4 5 7 20
Neighs:       158427.0 ave      230584 max           0 min
Histogram: 4 2 2 0 5 3 4 4 12 16

Total # of neighbors = 8238206
Ave neighs/atom = 28.530485
Neighbor list builds = 5
Dangerous builds = 0
-0.4 0.24 4.2 -0.582747821597482 1.02288230505989 4.70619961422013
Total wall time: 0:00:04
