LAMMPS (29 Oct 2020)
OMP_NUM_THREADS environment is not set. Defaulting to 1 thread. (../comm.cpp:94)
  using 1 OpenMP thread(s) per MPI task
OMP_NUM_THREADS environment is not set. Defaulting to 1 thread. (../comm.cpp:94)
  using 1 OpenMP thread(s) per MPI task
Reading data file ...
  orthogonal box = (-122.39241 -121.13707 -37.090501) to (122.39241 121.13707 37.090501)
  13 by 4 by 2 MPI processor grid
  reading atoms ...
  288751 atoms
  read_data CPU = 0.428 seconds
199981 atoms in group inner
88770 atoms in group outer
1 atoms in group carbon
Neighbor list info ...
  update every 1 steps, delay 0 steps, check yes
  max neighbors/atom: 2000, page size: 100000
  master list distance cutoff = 5.6
  ghost atom cutoff = 5.6
  binsize = 2.8, bins = 88 87 27
  1 neighbor lists, perpetual/occasional/extra = 1 0 0
  (1) pair eam/alloy, perpetual
      attributes: half, newton on
      pair build: half/bin/atomonly/newton
      stencil: half/bin/3d/newton
      bin: standard
Setting up cg style minimization ...
  Unit style    : metal
  Current step  : 0
Per MPI rank memory allocation (min/avg/max) = 5.441 | 5.816 | 6.074 Mbytes
Step v_fx v_fy v_fz PotEng KinEng TotEng 
       0   0.13455878    -30.30682    50.785936   -1152433.2            0   -1152433.2 
     156 -6.0991502e-06 -1.782139e-05 -7.9105871e-05   -1152449.5            0   -1152449.5 
Loop time of 1.8191 on 104 procs for 156 steps with 288751 atoms

99.8% CPU use with 104 MPI tasks x 1 OpenMP threads

Minimization stats:
  Stopping criterion = energy tolerance
  Energy initial, next-to-last, final = 
     -1152433.17620743  -1152449.45035268  -1152449.45035268
  Force two-norm initial, final = 88.547702 0.00021917624
  Force max component initial, final = 57.877628 7.9105871e-05
  Final line search alpha, max atom move = 1.0000000 7.9105871e-05
  Iterations, force evaluations = 156 304

MPI task timing breakdown:
Section |  min time  |  avg time  |  max time  |%varavg| %total
---------------------------------------------------------------
Pair    | 0.48357    | 1.2882     | 1.6663     |  30.0 | 70.81
Neigh   | 5.1267e-05 | 0.014684   | 0.021299   |   5.0 |  0.81
Comm    | 0.030819   | 0.29469    | 0.87253    |  44.3 | 16.20
Output  | 0          | 0          | 0          |   0.0 |  0.00
Modify  | 1.7261e-05 | 0.0016481  | 0.0042089  |   2.5 |  0.09
Other   |            | 0.2199     |            |       | 12.09

Nlocal:        2776.45 ave        3958 max           0 min
Histogram: 8 4 4 0 4 12 8 2 28 34
Nghost:        3879.01 ave        5424 max         232 min
Histogram: 8 0 8 0 16 0 8 8 16 40
Neighs:        79213.5 ave      115372 max           0 min
Histogram: 8 4 4 0 10 6 8 8 24 32

Total # of neighbors = 8238208
Ave neighs/atom = 28.530492
Neighbor list builds = 5
Dangerous builds = 0
Setting atom values ...
  1 settings made for x
  1 settings made for y
  1 settings made for z
Setting up cg style minimization ...
  Unit style    : metal
  Current step  : 156
Per MPI rank memory allocation (min/avg/max) = 5.441 | 5.816 | 6.074 Mbytes
Step PotEng KinEng TotEng v_fx v_fy v_fz 
     156   -1152449.4            0   -1152449.4  0.010239678 -0.0083602841 -0.023265608 
     319   -1152449.5            0   -1152449.5 1.346234e-07 -2.4630674e-06 -2.3188903e-06 
Loop time of 1.94563 on 104 procs for 163 steps with 288751 atoms

99.9% CPU use with 104 MPI tasks x 1 OpenMP threads

Minimization stats:
  Stopping criterion = energy tolerance
  Energy initial, next-to-last, final = 
     -1152449.44967107  -1152449.45009683  -1152449.45009683
  Force two-norm initial, final = 0.094830427 0.00015657581
  Force max component initial, final = 0.045888075 1.3132740e-05
  Final line search alpha, max atom move = 1.0000000 1.3132740e-05
  Iterations, force evaluations = 163 326

MPI task timing breakdown:
Section |  min time  |  avg time  |  max time  |%varavg| %total
---------------------------------------------------------------
Pair    | 0.4937     | 1.3849     | 1.791      |  31.8 | 71.18
Neigh   | 0          | 0          | 0          |   0.0 |  0.00
Comm    | 0.033172   | 0.32114    | 0.95565    |  45.8 | 16.51
Output  | 0          | 0          | 0          |   0.0 |  0.00
Modify  | 2.1218e-05 | 0.0027065  | 0.0057694  |   2.4 |  0.14
Other   |            | 0.2369     |            |       | 12.18

Nlocal:        2776.45 ave        3958 max           0 min
Histogram: 8 4 4 0 4 12 8 2 28 34
Nghost:        3878.99 ave        5426 max         232 min
Histogram: 8 0 8 0 16 0 8 8 16 40
Neighs:        79213.4 ave      115354 max           0 min
Histogram: 8 4 4 0 10 6 8 8 24 32

Total # of neighbors = 8238197
Ave neighs/atom = 28.530454
Neighbor list builds = 0
Dangerous builds = 0
Setting atom values ...
  1 settings made for x
  1 settings made for y
  1 settings made for z
Setting up cg style minimization ...
  Unit style    : metal
  Current step  : 319
Per MPI rank memory allocation (min/avg/max) = 5.441 | 5.816 | 6.074 Mbytes
Step PotEng KinEng TotEng v_fx v_fy v_fz 
     319   -1152449.4            0   -1152449.4  0.014007649 -0.014717673 -0.040899269 
     561   -1152449.4            0   -1152449.4 1.8618669e-07 -9.4240567e-07 -1.2436857e-06 
Loop time of 2.857 on 104 procs for 242 steps with 288751 atoms

99.9% CPU use with 104 MPI tasks x 1 OpenMP threads

Minimization stats:
  Stopping criterion = energy tolerance
  Energy initial, next-to-last, final = 
     -1152449.44696733  -1152449.44832317  -1152449.44832317
  Force two-norm initial, final = 0.16772931 1.4252126e-05
  Force max component initial, final = 0.088628363 3.3252006e-06
  Final line search alpha, max atom move = 1.0000000 3.3252006e-06
  Iterations, force evaluations = 242 484

MPI task timing breakdown:
Section |  min time  |  avg time  |  max time  |%varavg| %total
---------------------------------------------------------------
Pair    | 0.72868    | 2.0374     | 2.6573     |  38.7 | 71.31
Neigh   | 0          | 0          | 0          |   0.0 |  0.00
Comm    | 0.049038   | 0.46652    | 1.3818     |  56.0 | 16.33
Output  | 0          | 0          | 0          |   0.0 |  0.00
Modify  | 2.9715e-05 | 0.0040043  | 0.0085492  |   3.0 |  0.14
Other   |            | 0.349      |            |       | 12.22

Nlocal:        2776.45 ave        3958 max           0 min
Histogram: 8 4 4 0 4 12 8 2 28 34
Nghost:        3879.01 ave        5424 max         232 min
Histogram: 8 0 8 0 16 0 8 8 16 40
Neighs:        79213.4 ave      115354 max           0 min
Histogram: 8 4 4 0 10 6 8 8 24 32

Total # of neighbors = 8238196
Ave neighs/atom = 28.530450
Neighbor list builds = 0
Dangerous builds = 0
The dot product: 1.81026510479617e-09
Setting atom values ...
  1 settings made for x
  1 settings made for y
  1 settings made for z
Setting up cg style minimization ...
  Unit style    : metal
  Current step  : 561
Per MPI rank memory allocation (min/avg/max) = 5.441 | 5.816 | 6.074 Mbytes
Step PotEng KinEng TotEng v_fx v_fy v_fz 
     561   -1152449.4            0   -1152449.4  0.010919501 -0.015790611 -0.041109295 
     764   -1152449.4            0   -1152449.4 -2.4194952e-06 -1.0425027e-05 -5.3470404e-06 
Loop time of 2.37979 on 104 procs for 203 steps with 288751 atoms

99.9% CPU use with 104 MPI tasks x 1 OpenMP threads

Minimization stats:
  Stopping criterion = energy tolerance
  Energy initial, next-to-last, final = 
       -1152449.443504  -1152449.44484009  -1152449.44484009
  Force two-norm initial, final = 0.16531244 6.8616933e-05
  Force max component initial, final = 0.092668695 1.3248280e-05
  Final line search alpha, max atom move = 1.0000000 1.3248280e-05
  Iterations, force evaluations = 203 406

MPI task timing breakdown:
Section |  min time  |  avg time  |  max time  |%varavg| %total
---------------------------------------------------------------
Pair    | 0.61759    | 1.7191     | 2.2262     |  35.3 | 72.24
Neigh   | 0          | 0          | 0          |   0.0 |  0.00
Comm    | 0.042241   | 0.39081    | 1.1785     |  52.0 | 16.42
Output  | 0          | 0          | 0          |   0.0 |  0.00
Modify  | 2.4228e-05 | 0.0033613  | 0.0071354  |   2.7 |  0.14
Other   |            | 0.2665     |            |       | 11.20

Nlocal:        2776.45 ave        3958 max           0 min
Histogram: 8 4 4 0 4 12 8 2 28 34
Nghost:        3879.01 ave        5424 max         232 min
Histogram: 8 0 8 0 16 0 8 8 16 40
Neighs:        79213.4 ave      115356 max           0 min
Histogram: 8 4 4 0 10 6 8 8 24 32

Total # of neighbors = 8238194
Ave neighs/atom = 28.530443
Neighbor list builds = 0
Dangerous builds = 0
The dot product: 1.12552369419276e-08
Setting atom values ...
  1 settings made for x
  1 settings made for y
  1 settings made for z
Setting up cg style minimization ...
  Unit style    : metal
  Current step  : 764
Per MPI rank memory allocation (min/avg/max) = 5.441 | 5.816 | 6.074 Mbytes
Step PotEng KinEng TotEng v_fx v_fy v_fz 
     764   -1152449.4            0   -1152449.4  0.011015484 -0.013689946  -0.04465283 
     892   -1152449.4            0   -1152449.4 -2.0879906e-05 -1.7918623e-05 3.2978029e-05 
Loop time of 1.50179 on 104 procs for 128 steps with 288751 atoms

99.9% CPU use with 104 MPI tasks x 1 OpenMP threads

Minimization stats:
  Stopping criterion = energy tolerance
  Energy initial, next-to-last, final = 
     -1152449.43837176     -1152449.43969     -1152449.43969
  Force two-norm initial, final = 0.16400458 0.00021744982
  Force max component initial, final = 0.096423555 4.9862256e-05
  Final line search alpha, max atom move = 1.0000000 4.9862256e-05
  Iterations, force evaluations = 128 256

MPI task timing breakdown:
Section |  min time  |  avg time  |  max time  |%varavg| %total
---------------------------------------------------------------
Pair    | 0.38494    | 1.0763     | 1.4007     |  28.0 | 71.67
Neigh   | 0          | 0          | 0          |   0.0 |  0.00
Comm    | 0.021699   | 0.24393    | 0.72537    |  40.9 | 16.24
Output  | 0          | 0          | 0          |   0.0 |  0.00
Modify  | 1.4988e-05 | 0.0021228  | 0.0045154  |   2.2 |  0.14
Other   |            | 0.1795     |            |       | 11.95

Nlocal:        2776.45 ave        3958 max           0 min
Histogram: 8 4 4 0 4 12 8 2 28 34
Nghost:        3879.01 ave        5424 max         232 min
Histogram: 8 0 8 0 16 0 8 8 16 40
Neighs:        79213.4 ave      115356 max           0 min
Histogram: 8 4 4 0 10 6 8 8 24 32

Total # of neighbors = 8238195
Ave neighs/atom = 28.530447
Neighbor list builds = 0
Dangerous builds = 0
The dot product: -1.30406278457861e-07
Setting atom values ...
  1 settings made for x
  1 settings made for y
  1 settings made for z
Setting up cg style minimization ...
  Unit style    : metal
  Current step  : 892
Per MPI rank memory allocation (min/avg/max) = 5.441 | 5.816 | 6.074 Mbytes
Step PotEng KinEng TotEng v_fx v_fy v_fz 
     892   -1152449.4            0   -1152449.4  0.013251553 -0.0082744671 -0.052244642 
    1000   -1152449.4            0   -1152449.4 2.8788951e-05 4.0733521e-05 -3.2141512e-05 
    1030   -1152449.4            0   -1152449.4 3.4135771e-06 3.1243648e-06 -6.1745873e-06 
Loop time of 1.63253 on 104 procs for 138 steps with 288751 atoms

99.9% CPU use with 104 MPI tasks x 1 OpenMP threads

Minimization stats:
  Stopping criterion = energy tolerance
  Energy initial, next-to-last, final = 
     -1152449.43170087  -1152449.43304321  -1152449.43304321
  Force two-norm initial, final = 0.16428393 0.00012502497
  Force max component initial, final = 0.10024255 1.0499145e-05
  Final line search alpha, max atom move = 1.0000000 1.0499145e-05
  Iterations, force evaluations = 138 276

MPI task timing breakdown:
Section |  min time  |  avg time  |  max time  |%varavg| %total
---------------------------------------------------------------
Pair    | 0.41388    | 1.1673     | 1.5143     |  29.3 | 71.50
Neigh   | 0          | 0          | 0          |   0.0 |  0.00
Comm    | 0.0238     | 0.26531    | 0.79003    |  42.5 | 16.25
Output  | 0.00029408 | 0.00029855 | 0.00042925 |   0.0 |  0.02
Modify  | 1.6635e-05 | 0.0022904  | 0.0049009  |   2.3 |  0.14
Other   |            | 0.1974     |            |       | 12.09

Nlocal:        2776.45 ave        3957 max           0 min
Histogram: 8 4 4 0 4 12 8 2 28 34
Nghost:        3879.01 ave        5424 max         232 min
Histogram: 8 0 8 0 16 0 8 8 16 40
Neighs:        79213.4 ave      115317 max           0 min
Histogram: 8 4 4 0 10 6 8 8 24 32

Total # of neighbors = 8238195
Ave neighs/atom = 28.530447
Neighbor list builds = 0
Dangerous builds = 0
The dot product: 4.5708999769184e-08
Setting atom values ...
  1 settings made for x
  1 settings made for y
  1 settings made for z
Setting up cg style minimization ...
  Unit style    : metal
  Current step  : 1030
Per MPI rank memory allocation (min/avg/max) = 5.441 | 5.816 | 6.074 Mbytes
Step PotEng KinEng TotEng v_fx v_fy v_fz 
    1030   -1152449.4            0   -1152449.4  0.015109998 0.0011373805 -0.059463274 
    1152   -1152449.4            0   -1152449.4 1.273501e-07 -1.3255004e-05 -2.3596726e-05 
Loop time of 1.42882 on 104 procs for 122 steps with 288751 atoms

99.9% CPU use with 104 MPI tasks x 1 OpenMP threads

Minimization stats:
  Stopping criterion = energy tolerance
  Energy initial, next-to-last, final = 
     -1152449.42373296  -1152449.42513892  -1152449.42513892
  Force two-norm initial, final = 0.16505788 0.00012233835
  Force max component initial, final = 0.10387479 2.3596726e-05
  Final line search alpha, max atom move = 1.0000000 2.3596726e-05
  Iterations, force evaluations = 122 244

MPI task timing breakdown:
Section |  min time  |  avg time  |  max time  |%varavg| %total
---------------------------------------------------------------
Pair    | 0.37063    | 1.0264     | 1.3308     |  27.2 | 71.84
Neigh   | 0          | 0          | 0          |   0.0 |  0.00
Comm    | 0.024827   | 0.23166    | 0.69156    |  40.4 | 16.21
Output  | 0          | 0          | 0          |   0.0 |  0.00
Modify  | 1.5692e-05 | 0.0020199  | 0.0042829  |   2.1 |  0.14
Other   |            | 0.1687     |            |       | 11.81

Nlocal:        2776.45 ave        3957 max           0 min
Histogram: 8 4 4 0 4 12 8 2 28 34
Nghost:        3879.01 ave        5424 max         232 min
Histogram: 8 0 8 0 16 0 8 8 16 40
Neighs:        79213.4 ave      115317 max           0 min
Histogram: 8 4 4 0 10 6 8 8 24 32

Total # of neighbors = 8238194
Ave neighs/atom = 28.530443
Neighbor list builds = 0
Dangerous builds = 0
The dot product: 1.48269342110625e-07
Setting atom values ...
  1 settings made for x
  1 settings made for y
  1 settings made for z
Setting up cg style minimization ...
  Unit style    : metal
  Current step  : 1152
Per MPI rank memory allocation (min/avg/max) = 5.441 | 5.816 | 6.074 Mbytes
Step PotEng KinEng TotEng v_fx v_fy v_fz 
    1152   -1152449.4            0   -1152449.4  0.013524072 0.0090776543 -0.061931393 
    1315   -1152449.4            0   -1152449.4 2.879923e-07 -1.5769217e-05 -3.9494664e-05 
Loop time of 1.91647 on 104 procs for 163 steps with 288751 atoms

99.9% CPU use with 104 MPI tasks x 1 OpenMP threads

Minimization stats:
  Stopping criterion = energy tolerance
  Energy initial, next-to-last, final = 
     -1152449.41460795  -1152449.41605116  -1152449.41605116
  Force two-norm initial, final = 0.1646809 0.00022883694
  Force max component initial, final = 0.10657423 5.0825708e-05
  Final line search alpha, max atom move = 1.0000000 5.0825708e-05
  Iterations, force evaluations = 163 326

MPI task timing breakdown:
Section |  min time  |  avg time  |  max time  |%varavg| %total
---------------------------------------------------------------
Pair    | 0.50131    | 1.3801     | 1.7875     |  31.3 | 72.01
Neigh   | 0          | 0          | 0          |   0.0 |  0.00
Comm    | 0.028678   | 0.31231    | 0.92604    |  46.2 | 16.30
Output  | 0          | 0          | 0          |   0.0 |  0.00
Modify  | 1.8648e-05 | 0.0026979  | 0.00579    |   2.4 |  0.14
Other   |            | 0.2214     |            |       | 11.55

Nlocal:        2776.45 ave        3957 max           0 min
Histogram: 8 4 4 0 4 12 8 2 28 34
Nghost:        3879.01 ave        5424 max         232 min
Histogram: 8 0 8 0 16 0 8 8 16 40
Neighs:        79213.4 ave      115325 max           0 min
Histogram: 8 4 4 0 10 6 8 8 24 32

Total # of neighbors = 8238194
Ave neighs/atom = 28.530443
Neighbor list builds = 0
Dangerous builds = 0
The dot product: 2.81227091834781e-07
Setting atom values ...
  1 settings made for x
  1 settings made for y
  1 settings made for z
Setting up cg style minimization ...
  Unit style    : metal
  Current step  : 1315
Per MPI rank memory allocation (min/avg/max) = 5.441 | 5.816 | 6.074 Mbytes
Step PotEng KinEng TotEng v_fx v_fy v_fz 
    1315   -1152449.4            0   -1152449.4 0.0096116076  0.013127476  -0.05960448 
    1529   -1152449.4            0   -1152449.4 7.0970498e-07 1.1130386e-06 -3.8333063e-06 
Loop time of 2.49508 on 104 procs for 214 steps with 288751 atoms

99.9% CPU use with 104 MPI tasks x 1 OpenMP threads

Minimization stats:
  Stopping criterion = energy tolerance
  Energy initial, next-to-last, final = 
     -1152449.40430827  -1152449.40573826  -1152449.40573826
  Force two-norm initial, final = 0.16312332 3.7031025e-05
  Force max component initial, final = 0.10806323 3.8333063e-06
  Final line search alpha, max atom move = 1.0000000 3.8333063e-06
  Iterations, force evaluations = 214 428

MPI task timing breakdown:
Section |  min time  |  avg time  |  max time  |%varavg| %total
---------------------------------------------------------------
Pair    | 0.64336    | 1.7986     | 2.336      |  36.2 | 72.08
Neigh   | 0          | 0          | 0          |   0.0 |  0.00
Comm    | 0.038138   | 0.40635    | 1.2214     |  53.4 | 16.29
Output  | 0          | 0          | 0          |   0.0 |  0.00
Modify  | 2.4736e-05 | 0.003538   | 0.0075611  |   2.8 |  0.14
Other   |            | 0.2866     |            |       | 11.49

Nlocal:        2776.45 ave        3957 max           0 min
Histogram: 8 4 4 0 4 12 8 2 28 34
Nghost:        3879.01 ave        5424 max         232 min
Histogram: 8 0 8 0 16 0 8 8 16 40
Neighs:        79213.4 ave      115317 max           0 min
Histogram: 8 4 4 0 10 6 8 8 24 32

Total # of neighbors = 8238196
Ave neighs/atom = 28.530450
Neighbor list builds = 0
Dangerous builds = 0
The dot product: 4.15845281338351e-08
Setting atom values ...
  1 settings made for x
  1 settings made for y
  1 settings made for z
Setting up cg style minimization ...
  Unit style    : metal
  Current step  : 1529
Per MPI rank memory allocation (min/avg/max) = 5.441 | 5.816 | 6.074 Mbytes
Step PotEng KinEng TotEng v_fx v_fy v_fz 
    1529   -1152449.4            0   -1152449.4 0.0052631104  0.013248961  -0.05390899 
    1730   -1152449.4            0   -1152449.4 -1.1730851e-06 -2.4755233e-06 1.7884891e-05 
Loop time of 2.40585 on 104 procs for 201 steps with 288751 atoms

99.9% CPU use with 104 MPI tasks x 1 OpenMP threads

Minimization stats:
  Stopping criterion = energy tolerance
  Energy initial, next-to-last, final = 
      -1152449.3927527  -1152449.39413161  -1152449.39413161
  Force two-norm initial, final = 0.16085345 7.1629188e-05
  Force max component initial, final = 0.10854674 1.7884891e-05
  Final line search alpha, max atom move = 1.0000000 1.7884891e-05
  Iterations, force evaluations = 201 402

MPI task timing breakdown:
Section |  min time  |  avg time  |  max time  |%varavg| %total
---------------------------------------------------------------
Pair    | 0.61294    | 1.7074     | 2.2171     |  35.1 | 70.97
Neigh   | 0          | 0          | 0          |   0.0 |  0.00
Comm    | 0.048035   | 0.39383    | 1.1585     |  50.8 | 16.37
Output  | 0          | 0          | 0          |   0.0 |  0.00
Modify  | 2.4077e-05 | 0.0033346  | 0.0071295  |   2.7 |  0.14
Other   |            | 0.3012     |            |       | 12.52

Nlocal:        2776.45 ave        3957 max           0 min
Histogram: 8 4 4 0 4 12 8 2 28 34
Nghost:        3879.01 ave        5424 max         232 min
Histogram: 8 0 8 0 16 0 8 8 16 40
Neighs:        79213.4 ave      115318 max           0 min
Histogram: 8 4 4 0 10 6 8 8 24 32

Total # of neighbors = 8238197
Ave neighs/atom = 28.530454
Neighbor list builds = 0
Dangerous builds = 0
The dot product: -1.58942610389223e-07
Setting atom values ...
  1 settings made for x
  1 settings made for y
  1 settings made for z
Setting up cg style minimization ...
  Unit style    : metal
  Current step  : 1730
Per MPI rank memory allocation (min/avg/max) = 5.441 | 5.816 | 6.074 Mbytes
Step PotEng KinEng TotEng v_fx v_fy v_fz 
    1730   -1152449.4            0   -1152449.4 0.0016523871  0.010530617 -0.046692821 
    1921   -1152449.4            0   -1152449.4 2.768326e-06 9.2166337e-06 1.4027402e-05 
Loop time of 2.23302 on 104 procs for 191 steps with 288751 atoms

99.9% CPU use with 104 MPI tasks x 1 OpenMP threads

Minimization stats:
  Stopping criterion = energy tolerance
  Energy initial, next-to-last, final = 
     -1152449.37985816  -1152449.38117232  -1152449.38117232
  Force two-norm initial, final = 0.15867529 8.7189678e-05
  Force max component initial, final = 0.10855375 1.4027402e-05
  Final line search alpha, max atom move = 1.0000000 1.4027402e-05
  Iterations, force evaluations = 191 382

MPI task timing breakdown:
Section |  min time  |  avg time  |  max time  |%varavg| %total
---------------------------------------------------------------
Pair    | 0.57675    | 1.6097     | 2.0972     |  34.3 | 72.09
Neigh   | 0          | 0          | 0          |   0.0 |  0.00
Comm    | 0.03553    | 0.36451    | 1.088      |  50.3 | 16.32
Output  | 0          | 0          | 0          |   0.0 |  0.00
Modify  | 2.4072e-05 | 0.0031608  | 0.006726   |   2.6 |  0.14
Other   |            | 0.2557     |            |       | 11.45

Nlocal:        2776.45 ave        3957 max           0 min
Histogram: 8 4 4 0 4 12 8 3 27 34
Nghost:        3879.01 ave        5424 max         232 min
Histogram: 8 0 8 0 16 0 8 8 16 40
Neighs:        79213.4 ave      115318 max           0 min
Histogram: 8 4 4 0 10 6 8 8 24 32

Total # of neighbors = 8238193
Ave neighs/atom = 28.530440
Neighbor list builds = 0
Dangerous builds = 0
The dot product: -5.12708466345049e-08
Setting atom values ...
  1 settings made for x
  1 settings made for y
  1 settings made for z
Setting up cg style minimization ...
  Unit style    : metal
  Current step  : 1921
Per MPI rank memory allocation (min/avg/max) = 5.441 | 5.816 | 6.074 Mbytes
Step PotEng KinEng TotEng v_fx v_fy v_fz 
    1921   -1152449.4            0   -1152449.4 -0.00089638335  0.006409842 -0.039567291 
    2000   -1152449.4            0   -1152449.4 1.741828e-05 3.6622784e-05 0.0001430559 
    2097   -1152449.4            0   -1152449.4 2.0613309e-06 6.9725336e-06 6.6851723e-06 
Loop time of 2.04765 on 104 procs for 176 steps with 288751 atoms

99.9% CPU use with 104 MPI tasks x 1 OpenMP threads

Minimization stats:
  Stopping criterion = energy tolerance
  Energy initial, next-to-last, final = 
     -1152449.36556461  -1152449.36682147  -1152449.36682147
  Force two-norm initial, final = 0.15714344 0.00014317266
  Force max component initial, final = 0.10843524 2.6017750e-05
  Final line search alpha, max atom move = 1.0000000 2.6017750e-05
  Iterations, force evaluations = 176 352

MPI task timing breakdown:
Section |  min time  |  avg time  |  max time  |%varavg| %total
---------------------------------------------------------------
Pair    | 0.52691    | 1.4871     | 1.9206     |  32.9 | 72.62
Neigh   | 0          | 0          | 0          |   0.0 |  0.00
Comm    | 0.030898   | 0.341      | 1.0207     |  48.2 | 16.65
Output  | 0.00022064 | 0.00023456 | 0.0003528  |   0.0 |  0.01
Modify  | 2.1063e-05 | 0.0029202  | 0.006215   |   2.5 |  0.14
Other   |            | 0.2164     |            |       | 10.57

Nlocal:        2776.45 ave        3957 max           0 min
Histogram: 8 4 4 0 4 12 8 3 27 34
Nghost:        3879.01 ave        5429 max         232 min
Histogram: 8 0 8 0 16 0 8 8 16 40
Neighs:        79213.4 ave      115316 max           0 min
Histogram: 8 4 4 0 10 6 8 8 24 32

Total # of neighbors = 8238192
Ave neighs/atom = 28.530436
Neighbor list builds = 0
Dangerous builds = 0
The dot product: -1.13816788081104e-08
Setting atom values ...
  1 settings made for x
  1 settings made for y
  1 settings made for z
Setting up cg style minimization ...
  Unit style    : metal
  Current step  : 2097
Per MPI rank memory allocation (min/avg/max) = 5.441 | 5.816 | 6.074 Mbytes
Step PotEng KinEng TotEng v_fx v_fy v_fz 
    2097   -1152449.3            0   -1152449.3 -0.0025791935 0.0017222153 -0.033180402 
    2282   -1152449.4            0   -1152449.4 -3.4523367e-06 -8.5378651e-06 -1.7855134e-05 
Loop time of 2.16714 on 104 procs for 185 steps with 288751 atoms

99.9% CPU use with 104 MPI tasks x 1 OpenMP threads

Minimization stats:
  Stopping criterion = energy tolerance
  Energy initial, next-to-last, final = 
     -1152449.34984184  -1152449.35105316  -1152449.35105316
  Force two-norm initial, final = 0.15637261 8.7906980e-05
  Force max component initial, final = 0.10843579 1.7855134e-05
  Final line search alpha, max atom move = 1.0000000 1.7855134e-05
  Iterations, force evaluations = 185 370

MPI task timing breakdown:
Section |  min time  |  avg time  |  max time  |%varavg| %total
---------------------------------------------------------------
Pair    | 0.55571    | 1.5532     | 2.0201     |  33.7 | 71.67
Neigh   | 0          | 0          | 0          |   0.0 |  0.00
Comm    | 0.033167   | 0.35254    | 1.0541     |  49.2 | 16.27
Output  | 0          | 0          | 0          |   0.0 |  0.00
Modify  | 2.2022e-05 | 0.0030641  | 0.0065354  |   2.6 |  0.14
Other   |            | 0.2584     |            |       | 11.92

Nlocal:        2776.45 ave        3956 max           0 min
Histogram: 8 4 4 0 4 12 8 0 30 34
Nghost:        3878.99 ave        5429 max         232 min
Histogram: 8 0 8 0 16 0 8 8 16 40
Neighs:        79213.4 ave      115274 max           0 min
Histogram: 8 4 4 0 10 6 8 8 24 32

Total # of neighbors = 8238192
Ave neighs/atom = 28.530436
Neighbor list builds = 0
Dangerous builds = 0
The dot product: 6.22688062438273e-08
Setting atom values ...
  1 settings made for x
  1 settings made for y
  1 settings made for z
Setting up cg style minimization ...
  Unit style    : metal
  Current step  : 2282
Per MPI rank memory allocation (min/avg/max) = 5.441 | 5.816 | 6.074 Mbytes
Step PotEng KinEng TotEng v_fx v_fy v_fz 
    2282   -1152449.3            0   -1152449.3 -0.0036939421 -0.0030327377 -0.027837245 
    2471   -1152449.3            0   -1152449.3 8.9459162e-07 4.6697054e-06 -6.0487473e-07 
Loop time of 2.20939 on 104 procs for 189 steps with 288751 atoms

99.9% CPU use with 104 MPI tasks x 1 OpenMP threads

Minimization stats:
  Stopping criterion = energy tolerance
  Energy initial, next-to-last, final = 
     -1152449.33266862  -1152449.33384985  -1152449.33384985
  Force two-norm initial, final = 0.15635163 7.7500908e-05
  Force max component initial, final = 0.10874487 8.4770399e-06
  Final line search alpha, max atom move = 1.0000000 8.4770399e-06
  Iterations, force evaluations = 189 378

MPI task timing breakdown:
Section |  min time  |  avg time  |  max time  |%varavg| %total
---------------------------------------------------------------
Pair    | 0.56523    | 1.5928     | 2.07       |  34.1 | 72.09
Neigh   | 0          | 0          | 0          |   0.0 |  0.00
Comm    | 0.037039   | 0.35885    | 1.078      |  50.2 | 16.24
Output  | 0          | 0          | 0          |   0.0 |  0.00
Modify  | 2.276e-05  | 0.0031294  | 0.00674    |   2.6 |  0.14
Other   |            | 0.2546     |            |       | 11.53

Nlocal:        2776.45 ave        3956 max           0 min
Histogram: 8 4 4 0 4 12 8 0 30 34
Nghost:        3878.99 ave        5424 max         232 min
Histogram: 8 0 8 0 16 0 8 8 16 40
Neighs:        79213.4 ave      115264 max           0 min
Histogram: 8 4 4 0 10 6 8 8 24 32

Total # of neighbors = 8238193
Ave neighs/atom = 28.530440
Neighbor list builds = 0
Dangerous builds = 0
The dot product: 9.90618226458556e-09
Setting atom values ...
  1 settings made for x
  1 settings made for y
  1 settings made for z
Setting up cg style minimization ...
  Unit style    : metal
  Current step  : 2471
Per MPI rank memory allocation (min/avg/max) = 5.441 | 5.816 | 6.074 Mbytes
Step PotEng KinEng TotEng v_fx v_fy v_fz 
    2471   -1152449.3            0   -1152449.3 -0.004482377 -0.0076505487 -0.023393255 
    2621   -1152449.3            0   -1152449.3 -8.8448915e-07 1.0714424e-05 -2.3891926e-05 
Loop time of 1.74054 on 104 procs for 150 steps with 288751 atoms

99.9% CPU use with 104 MPI tasks x 1 OpenMP threads

Minimization stats:
  Stopping criterion = energy tolerance
  Energy initial, next-to-last, final = 
     -1152449.31403488  -1152449.31519974  -1152449.31519974
  Force two-norm initial, final = 0.15692052 0.00024823184
  Force max component initial, final = 0.10934237 3.0611112e-05
  Final line search alpha, max atom move = 1.0000000 3.0611112e-05
  Iterations, force evaluations = 150 300

MPI task timing breakdown:
Section |  min time  |  avg time  |  max time  |%varavg| %total
---------------------------------------------------------------
Pair    | 0.4519     | 1.2617     | 1.6376     |  30.3 | 72.49
Neigh   | 0          | 0          | 0          |   0.0 |  0.00
Comm    | 0.025663   | 0.28427    | 0.85777    |  44.9 | 16.33
Output  | 0          | 0          | 0          |   0.0 |  0.00
Modify  | 1.7554e-05 | 0.0024854  | 0.0053807  |   2.4 |  0.14
Other   |            | 0.192      |            |       | 11.03

Nlocal:        2776.45 ave        3955 max           0 min
Histogram: 8 4 4 0 4 12 8 0 30 34
Nghost:        3878.99 ave        5424 max         232 min
Histogram: 8 0 8 0 16 0 8 8 16 40
Neighs:        79213.4 ave      115241 max           0 min
Histogram: 8 4 4 0 10 6 8 8 24 32

Total # of neighbors = 8238193
Ave neighs/atom = 28.530440
Neighbor list builds = 0
Dangerous builds = 0
The dot product: 8.2454489065856e-08
Setting atom values ...
  1 settings made for x
  1 settings made for y
  1 settings made for z
Setting up cg style minimization ...
  Unit style    : metal
  Current step  : 2621
Per MPI rank memory allocation (min/avg/max) = 5.441 | 5.816 | 6.074 Mbytes
Step PotEng KinEng TotEng v_fx v_fy v_fz 
    2621   -1152449.3            0   -1152449.3 -0.0051386194 -0.012157793 -0.019716134 
    2758   -1152449.3            0   -1152449.3 -1.8385841e-05 -2.8202728e-05 -9.2355134e-05 
Loop time of 1.59789 on 104 procs for 137 steps with 288751 atoms

99.9% CPU use with 104 MPI tasks x 1 OpenMP threads

Minimization stats:
  Stopping criterion = energy tolerance
  Energy initial, next-to-last, final = 
     -1152449.29393337  -1152449.29509586  -1152449.29509586
  Force two-norm initial, final = 0.15808043 0.00028026632
  Force max component initial, final = 0.11032454 9.2355134e-05
  Final line search alpha, max atom move = 1.0000000 9.2355134e-05
  Iterations, force evaluations = 137 274

MPI task timing breakdown:
Section |  min time  |  avg time  |  max time  |%varavg| %total
---------------------------------------------------------------
Pair    | 0.41059    | 1.1561     | 1.5016     |  29.1 | 72.35
Neigh   | 0          | 0          | 0          |   0.0 |  0.00
Comm    | 0.023848   | 0.2596     | 0.77839    |  42.8 | 16.25
Output  | 0          | 0          | 0          |   0.0 |  0.00
Modify  | 1.5888e-05 | 0.0022726  | 0.0048641  |   2.2 |  0.14
Other   |            | 0.1799     |            |       | 11.26

Nlocal:        2776.45 ave        3955 max           0 min
Histogram: 8 4 4 0 4 12 8 0 30 34
Nghost:        3878.99 ave        5424 max         232 min
Histogram: 8 0 8 0 16 0 8 8 16 40
Neighs:        79213.4 ave      115242 max           0 min
Histogram: 8 4 4 0 10 6 8 8 24 32

Total # of neighbors = 8238193
Ave neighs/atom = 28.530440
Neighbor list builds = 0
Dangerous builds = 0
The dot product: 2.69188802065269e-07
Setting atom values ...
  1 settings made for x
  1 settings made for y
  1 settings made for z
Setting up cg style minimization ...
  Unit style    : metal
  Current step  : 2758
Per MPI rank memory allocation (min/avg/max) = 5.441 | 5.816 | 6.074 Mbytes
Step PotEng KinEng TotEng v_fx v_fy v_fz 
    2758   -1152449.3            0   -1152449.3 -0.0058166891  -0.01662501 -0.016776303 
    2927   -1152449.3            0   -1152449.3 6.4966368e-06 1.1768432e-05 2.7937924e-05 
Loop time of 1.97196 on 104 procs for 169 steps with 288751 atoms

99.9% CPU use with 104 MPI tasks x 1 OpenMP threads

Minimization stats:
  Stopping criterion = energy tolerance
  Energy initial, next-to-last, final = 
     -1152449.27236303  -1152449.27353567  -1152449.27353567
  Force two-norm initial, final = 0.15978214 0.00017936868
  Force max component initial, final = 0.11158215 4.1118654e-05
  Final line search alpha, max atom move = 1.0000000 4.1118654e-05
  Iterations, force evaluations = 169 338

MPI task timing breakdown:
Section |  min time  |  avg time  |  max time  |%varavg| %total
---------------------------------------------------------------
Pair    | 0.50858    | 1.4197     | 1.8459     |  32.2 | 72.00
Neigh   | 0          | 0          | 0          |   0.0 |  0.00
Comm    | 0.030457   | 0.31972    | 0.955      |  47.2 | 16.21
Output  | 0          | 0          | 0          |   0.0 |  0.00
Modify  | 1.9858e-05 | 0.0027961  | 0.0059382  |   2.5 |  0.14
Other   |            | 0.2297     |            |       | 11.65

Nlocal:        2776.45 ave        3954 max           0 min
Histogram: 8 4 4 0 4 12 8 0 30 34
Nghost:        3878.99 ave        5424 max         232 min
Histogram: 8 0 8 0 16 0 8 8 16 40
Neighs:        79213.4 ave      115220 max           0 min
Histogram: 8 4 4 0 10 6 8 8 24 32

Total # of neighbors = 8238191
Ave neighs/atom = 28.530433
Neighbor list builds = 0
Dangerous builds = 0
The dot product: -8.59789608026171e-08
Setting atom values ...
  1 settings made for x
  1 settings made for y
  1 settings made for z
Setting up cg style minimization ...
  Unit style    : metal
  Current step  : 2927
Per MPI rank memory allocation (min/avg/max) = 5.441 | 5.816 | 6.074 Mbytes
Step PotEng KinEng TotEng v_fx v_fy v_fz 
    2927   -1152449.2            0   -1152449.2 -0.006541333 -0.020901659 -0.014260121 
    3000   -1152449.3            0   -1152449.3 5.7921266e-06 7.9150917e-05 -6.8001345e-05 
    3081   -1152449.3            0   -1152449.3 3.5593247e-06 1.8099948e-06 2.0474077e-05 
Loop time of 1.80965 on 104 procs for 154 steps with 288751 atoms

99.9% CPU use with 104 MPI tasks x 1 OpenMP threads

Minimization stats:
  Stopping criterion = energy tolerance
  Energy initial, next-to-last, final = 
     -1152449.24932542  -1152449.25052025  -1152449.25052025
  Force two-norm initial, final = 0.16200304 0.0002244281
  Force max component initial, final = 0.11316003 5.0954101e-05
  Final line search alpha, max atom move = 1.0000000 5.0954101e-05
  Iterations, force evaluations = 154 308

MPI task timing breakdown:
Section |  min time  |  avg time  |  max time  |%varavg| %total
---------------------------------------------------------------
Pair    | 0.46217    | 1.3078     | 1.6975     |  31.0 | 72.27
Neigh   | 0          | 0          | 0          |   0.0 |  0.00
Comm    | 0.028251   | 0.29842    | 0.88792    |  45.0 | 16.49
Output  | 0.00022609 | 0.00022913 | 0.00032897 |   0.0 |  0.01
Modify  | 1.795e-05  | 0.0025531  | 0.0054872  |   2.4 |  0.14
Other   |            | 0.2007     |            |       | 11.09

Nlocal:        2776.45 ave        3954 max           0 min
Histogram: 8 4 4 0 4 12 8 0 30 34
Nghost:        3878.99 ave        5425 max         232 min
Histogram: 8 0 8 0 16 0 8 8 16 40
Neighs:        79213.3 ave      115220 max           0 min
Histogram: 8 4 4 0 10 6 8 8 24 32

Total # of neighbors = 8238188
Ave neighs/atom = 28.530422
Neighbor list builds = 0
Dangerous builds = 0
The dot product: -4.32470468400092e-08
Setting atom values ...
  1 settings made for x
  1 settings made for y
  1 settings made for z
Setting up cg style minimization ...
  Unit style    : metal
  Current step  : 3081
Per MPI rank memory allocation (min/avg/max) = 5.441 | 5.816 | 6.074 Mbytes
Step PotEng KinEng TotEng v_fx v_fy v_fz 
    3081   -1152449.2            0   -1152449.2 -0.0073396228 -0.024995209 -0.011952798 
    3210   -1152449.2            0   -1152449.2 -2.1009262e-05 -4.2921168e-05 -7.264872e-05 
Loop time of 1.50298 on 104 procs for 129 steps with 288751 atoms

99.9% CPU use with 104 MPI tasks x 1 OpenMP threads

Minimization stats:
  Stopping criterion = energy tolerance
  Energy initial, next-to-last, final = 
     -1152449.22482601  -1152449.22605548  -1152449.22605548
  Force two-norm initial, final = 0.16482469 0.00025329553
  Force max component initial, final = 0.11516261 7.2648720e-05
  Final line search alpha, max atom move = 1.0000000 7.2648720e-05
  Iterations, force evaluations = 129 258

MPI task timing breakdown:
Section |  min time  |  avg time  |  max time  |%varavg| %total
---------------------------------------------------------------
Pair    | 0.38763    | 1.0865     | 1.4159     |  28.2 | 72.29
Neigh   | 0          | 0          | 0          |   0.0 |  0.00
Comm    | 0.023729   | 0.24539    | 0.73227    |  41.4 | 16.33
Output  | 0          | 0          | 0          |   0.0 |  0.00
Modify  | 1.5095e-05 | 0.0021384  | 0.0045243  |   2.2 |  0.14
Other   |            | 0.169      |            |       | 11.24

Nlocal:        2776.45 ave        3953 max           0 min
Histogram: 8 4 4 0 4 12 8 0 30 34
Nghost:        3879.03 ave        5425 max         232 min
Histogram: 8 0 8 0 16 0 8 8 16 40
Neighs:        79213.3 ave      115193 max           0 min
Histogram: 8 4 4 0 10 6 8 8 24 32

Total # of neighbors = 8238186
Ave neighs/atom = 28.530415
Neighbor list builds = 0
Dangerous builds = 0
The dot product: 2.88530601311112e-07
Setting atom values ...
  1 settings made for x
  1 settings made for y
  1 settings made for z
Setting up cg style minimization ...
  Unit style    : metal
  Current step  : 3210
Per MPI rank memory allocation (min/avg/max) = 5.441 | 5.816 | 6.074 Mbytes
Step PotEng KinEng TotEng v_fx v_fy v_fz 
    3210   -1152449.2            0   -1152449.2 -0.0082727474 -0.028956218 -0.0099087033 
    3368   -1152449.2            0   -1152449.2 9.2335897e-06 1.0714376e-05 4.0952337e-05 
Loop time of 1.84497 on 104 procs for 158 steps with 288751 atoms

99.9% CPU use with 104 MPI tasks x 1 OpenMP threads

Minimization stats:
  Stopping criterion = energy tolerance
  Energy initial, next-to-last, final = 
     -1152449.19887859  -1152449.20015501  -1152449.20015501
  Force two-norm initial, final = 0.16808026 0.00022858355
  Force max component initial, final = 0.11735529 4.0952337e-05
  Final line search alpha, max atom move = 1.0000000 4.0952337e-05
  Iterations, force evaluations = 158 316

MPI task timing breakdown:
Section |  min time  |  avg time  |  max time  |%varavg| %total
---------------------------------------------------------------
Pair    | 0.47573    | 1.3365     | 1.7254     |  31.2 | 72.44
Neigh   | 0          | 0          | 0          |   0.0 |  0.00
Comm    | 0.036      | 0.30555    | 0.91767    |  45.8 | 16.56
Output  | 0          | 0          | 0          |   0.0 |  0.00
Modify  | 1.8783e-05 | 0.0026201  | 0.0055772  |   2.4 |  0.14
Other   |            | 0.2003     |            |       | 10.86

Nlocal:        2776.45 ave        3953 max           0 min
Histogram: 8 4 4 0 4 12 8 0 30 34
Nghost:        3879.03 ave        5425 max         232 min
Histogram: 8 0 8 0 16 0 8 8 16 40
Neighs:        79213.3 ave      115202 max           0 min
Histogram: 8 4 4 0 10 6 8 8 24 32

Total # of neighbors = 8238183
Ave neighs/atom = 28.530405
Neighbor list builds = 0
Dangerous builds = 0
The dot product: -1.04782180039819e-07
Setting atom values ...
  1 settings made for x
  1 settings made for y
  1 settings made for z
Setting up cg style minimization ...
  Unit style    : metal
  Current step  : 3368
Per MPI rank memory allocation (min/avg/max) = 5.441 | 5.816 | 6.074 Mbytes
Step PotEng KinEng TotEng v_fx v_fy v_fz 
    3368   -1152449.2            0   -1152449.2 -0.0096752185 -0.034456001 -0.0074270807 
    3520   -1152449.2            0   -1152449.2 -1.7260728e-05 -3.0935671e-05 -5.7502673e-05 
Loop time of 1.76935 on 104 procs for 152 steps with 288751 atoms

99.9% CPU use with 104 MPI tasks x 1 OpenMP threads

Minimization stats:
  Stopping criterion = energy tolerance
  Energy initial, next-to-last, final = 
     -1152449.17151465   -1152449.1728642   -1152449.1728642
  Force two-norm initial, final = 0.17210067 0.00020440064
  Force max component initial, final = 0.11988867 5.7502673e-05
  Final line search alpha, max atom move = 1.0000000 5.7502673e-05
  Iterations, force evaluations = 152 304

MPI task timing breakdown:
Section |  min time  |  avg time  |  max time  |%varavg| %total
---------------------------------------------------------------
Pair    | 0.45692    | 1.2835     | 1.6668     |  30.8 | 72.54
Neigh   | 0          | 0          | 0          |   0.0 |  0.00
Comm    | 0.025942   | 0.29012    | 0.87285    |  45.3 | 16.40
Output  | 0          | 0          | 0          |   0.0 |  0.00
Modify  | 1.8331e-05 | 0.0025118  | 0.0053549  |   2.4 |  0.14
Other   |            | 0.1932     |            |       | 10.92

Nlocal:        2776.45 ave        3951 max           0 min
Histogram: 8 4 4 0 4 12 8 0 30 34
Nghost:        3879.09 ave        5426 max         232 min
Histogram: 8 0 8 0 16 0 8 8 16 40
Neighs:        79213.3 ave      115129 max           0 min
Histogram: 8 4 4 0 10 6 8 8 24 32

Total # of neighbors = 8238184
Ave neighs/atom = 28.530409
Neighbor list builds = 0
Dangerous builds = 0
The dot product: 2.66989732148855e-07
Setting atom values ...
  1 settings made for x
  1 settings made for y
  1 settings made for z
Setting up cg style minimization ...
  Unit style    : metal
  Current step  : 3520
Per MPI rank memory allocation (min/avg/max) = 5.441 | 5.816 | 6.074 Mbytes
Step PotEng KinEng TotEng v_fx v_fy v_fz 
    3520   -1152449.1            0   -1152449.1 -0.011330957 -0.042169962 -0.0010116122 
    3663   -1152449.1            0   -1152449.1 6.4125306e-06 1.8330459e-05 9.1784503e-06 
Loop time of 1.66701 on 104 procs for 143 steps with 288751 atoms

99.9% CPU use with 104 MPI tasks x 1 OpenMP threads

Minimization stats:
  Stopping criterion = energy tolerance
  Energy initial, next-to-last, final = 
     -1152449.14278153  -1152449.14426605  -1152449.14426605
  Force two-norm initial, final = 0.17677471 0.00017097207
  Force max component initial, final = 0.1229604 3.0611929e-05
  Final line search alpha, max atom move = 1.0000000 3.0611929e-05
  Iterations, force evaluations = 143 286

MPI task timing breakdown:
Section |  min time  |  avg time  |  max time  |%varavg| %total
---------------------------------------------------------------
Pair    | 0.43027    | 1.2045     | 1.5611     |  29.6 | 72.25
Neigh   | 0          | 0          | 0          |   0.0 |  0.00
Comm    | 0.025477   | 0.26997    | 0.80954    |  43.6 | 16.20
Output  | 0          | 0          | 0          |   0.0 |  0.00
Modify  | 1.7952e-05 | 0.0023669  | 0.005102   |   2.3 |  0.14
Other   |            | 0.1902     |            |       | 11.41

Nlocal:        2776.45 ave        3951 max           0 min
Histogram: 8 4 4 0 4 12 8 0 30 34
Nghost:        3879.07 ave        5426 max         232 min
Histogram: 8 0 8 0 16 0 8 8 16 40
Neighs:        79213.3 ave      115129 max           0 min
Histogram: 8 4 4 0 10 6 8 8 24 32

Total # of neighbors = 8238185
Ave neighs/atom = 28.530412
Neighbor list builds = 0
Dangerous builds = 0
The dot product: -1.98980993277543e-07
Setting atom values ...
  1 settings made for x
  1 settings made for y
  1 settings made for z
Setting up cg style minimization ...
  Unit style    : metal
  Current step  : 3663
Per MPI rank memory allocation (min/avg/max) = 5.441 | 5.816 | 6.074 Mbytes
Step PotEng KinEng TotEng v_fx v_fy v_fz 
    3663   -1152449.1            0   -1152449.1 -0.013551104 -0.054144446  0.013994716 
    3788   -1152449.1            0   -1152449.1 8.408933e-06 1.544433e-05 2.3114674e-05 
Loop time of 1.47265 on 104 procs for 125 steps with 288751 atoms

99.9% CPU use with 104 MPI tasks x 1 OpenMP threads

Minimization stats:
  Stopping criterion = energy tolerance
  Energy initial, next-to-last, final = 
     -1152449.11263414  -1152449.11439976  -1152449.11439976
  Force two-norm initial, final = 0.18415468 0.00016678553
  Force max component initial, final = 0.12703634 2.3114674e-05
  Final line search alpha, max atom move = 1.0000000 2.3114674e-05
  Iterations, force evaluations = 125 250

MPI task timing breakdown:
Section |  min time  |  avg time  |  max time  |%varavg| %total
---------------------------------------------------------------
Pair    | 0.37474    | 1.0517     | 1.3646     |  27.6 | 71.42
Neigh   | 0          | 0          | 0          |   0.0 |  0.00
Comm    | 0.023259   | 0.23841    | 0.71416    |  40.9 | 16.19
Output  | 0          | 0          | 0          |   0.0 |  0.00
Modify  | 1.4689e-05 | 0.0020699  | 0.0044629  |   2.2 |  0.14
Other   |            | 0.1805     |            |       | 12.25

Nlocal:        2776.45 ave        3949 max           0 min
Histogram: 8 4 4 0 4 12 8 0 26 38
Nghost:        3879.04 ave        5426 max         232 min
Histogram: 8 0 8 0 16 0 8 8 16 40
Neighs:        79213.3 ave      115074 max           0 min
Histogram: 8 4 4 0 10 6 8 8 24 32

Total # of neighbors = 8238184
Ave neighs/atom = 28.530409
Neighbor list builds = 0
Dangerous builds = 0
The dot product: -1.59475257022303e-07
Setting atom values ...
  1 settings made for x
  1 settings made for y
  1 settings made for z
Setting up cg style minimization ...
  Unit style    : metal
  Current step  : 3788
Per MPI rank memory allocation (min/avg/max) = 5.441 | 5.816 | 6.074 Mbytes
Step PotEng KinEng TotEng v_fx v_fy v_fz 
    3788   -1152449.1            0   -1152449.1 -0.017690016 -0.065978789  0.026643109 
    4000   -1152449.1            0   -1152449.1 -2.3303156e-08 1.3311614e-07 -4.2535476e-07 
    4056   -1152449.1            0   -1152449.1 2.3116065e-08 2.9845081e-08 8.3151526e-08 
Loop time of 3.1167 on 104 procs for 268 steps with 288751 atoms

99.9% CPU use with 104 MPI tasks x 1 OpenMP threads

Minimization stats:
  Stopping criterion = energy tolerance
  Energy initial, next-to-last, final = 
     -1152449.08116836  -1152449.08324343  -1152449.08324343
  Force two-norm initial, final = 0.19355574 2.9123832e-06
  Force max component initial, final = 0.13223745 1.9974505e-07
  Final line search alpha, max atom move = 1.0000000 1.9974505e-07
  Iterations, force evaluations = 268 536

MPI task timing breakdown:
Section |  min time  |  avg time  |  max time  |%varavg| %total
---------------------------------------------------------------
Pair    | 0.8033     | 2.2609     | 2.9315     |  40.7 | 72.54
Neigh   | 0          | 0          | 0          |   0.0 |  0.00
Comm    | 0.046171   | 0.51057    | 1.537      |  59.9 | 16.38
Output  | 0.00025874 | 0.00027103 | 0.00041776 |   0.0 |  0.01
Modify  | 3.1133e-05 | 0.0044307  | 0.00947    |   3.1 |  0.14
Other   |            | 0.3405     |            |       | 10.93

Nlocal:        2776.45 ave        3948 max           0 min
Histogram: 8 4 4 0 4 12 8 0 26 38
Nghost:        3879.02 ave        5426 max         232 min
Histogram: 8 0 8 0 16 0 8 8 16 40
Neighs:        79213.3 ave      115039 max           0 min
Histogram: 8 4 4 0 10 6 8 8 24 32

Total # of neighbors = 8238183
Ave neighs/atom = 28.530405
Neighbor list builds = 0
Dangerous builds = 0
The dot product: -8.65529568270748e-11
Setting up cg style minimization ...
  Unit style    : metal
  Current step  : 4056
Per MPI rank memory allocation (min/avg/max) = 5.441 | 5.816 | 6.074 Mbytes
Step PotEng KinEng TotEng v_fx v_fy v_fz 
    4056   -1152449.1            0   -1152449.1   -1.5233943   0.50610888   0.24184798 
    4345   -1152449.5            0   -1152449.5 -2.7266676e-06 -6.0429536e-06 -5.4703749e-06 
Loop time of 3.33193 on 104 procs for 289 steps with 288751 atoms

99.9% CPU use with 104 MPI tasks x 1 OpenMP threads

Minimization stats:
  Stopping criterion = energy tolerance
  Energy initial, next-to-last, final = 
     -1152449.08324343  -1152449.45035272  -1152449.45035272
  Force two-norm initial, final = 1.6233813 3.0068816e-05
  Force max component initial, final = 1.5233943 6.4549929e-06
  Final line search alpha, max atom move = 1.0000000 6.4549929e-06
  Iterations, force evaluations = 289 575

MPI task timing breakdown:
Section |  min time  |  avg time  |  max time  |%varavg| %total
---------------------------------------------------------------
Pair    | 0.87006    | 2.4134     | 3.131      |  41.8 | 72.43
Neigh   | 2.0256e-05 | 0.0058931  | 0.008561   |   3.2 |  0.18
Comm    | 0.053048   | 0.54232    | 1.6314     |  62.0 | 16.28
Output  | 0          | 0          | 0          |   0.0 |  0.00
Modify  | 3.0964e-05 | 0.0030869  | 0.0079063  |   3.5 |  0.09
Other   |            | 0.3672     |            |       | 11.02

Nlocal:        2776.45 ave        3946 max           0 min
Histogram: 8 4 4 0 4 12 8 0 26 38
Nghost:        3878.97 ave        5425 max         232 min
Histogram: 8 0 8 0 16 0 8 8 16 40
Neighs:        79213.3 ave      114975 max           0 min
Histogram: 8 4 4 0 10 6 8 8 24 32

Total # of neighbors = 8238181
Ave neighs/atom = 28.530398
Neighbor list builds = 2
Dangerous builds = 0
OMP_NUM_THREADS environment is not set. Defaulting to 1 thread. (../comm.cpp:94)
  using 1 OpenMP thread(s) per MPI task
Reading data file ...
  orthogonal box = (-122.39241 -121.13707 -37.090501) to (122.39241 121.13707 37.090501)
  13 by 4 by 2 MPI processor grid
  reading atoms ...
  288751 atoms
  read_data CPU = 0.347 seconds
199981 atoms in group inner
88770 atoms in group outer
1 atoms in group carbon
Neighbor list info ...
  update every 1 steps, delay 0 steps, check yes
  max neighbors/atom: 2000, page size: 100000
  master list distance cutoff = 5.6
  ghost atom cutoff = 5.6
  binsize = 2.8, bins = 88 87 27
  1 neighbor lists, perpetual/occasional/extra = 1 0 0
  (1) pair eam/alloy, perpetual
      attributes: half, newton on
      pair build: half/bin/atomonly/newton
      stencil: half/bin/3d/newton
      bin: standard
Setting up cg style minimization ...
  Unit style    : metal
  Current step  : 0
Per MPI rank memory allocation (min/avg/max) = 5.441 | 5.816 | 6.074 Mbytes
Step v_fx v_fy v_fz PotEng KinEng TotEng 
       0   0.13455878    -30.30682    50.785936   -1152433.2            0   -1152433.2 
     156 -6.0991502e-06 -1.782139e-05 -7.9105871e-05   -1152449.5            0   -1152449.5 
Loop time of 1.80896 on 104 procs for 156 steps with 288751 atoms

99.9% CPU use with 104 MPI tasks x 1 OpenMP threads

Minimization stats:
  Stopping criterion = energy tolerance
  Energy initial, next-to-last, final = 
     -1152433.17620743  -1152449.45035268  -1152449.45035268
  Force two-norm initial, final = 88.547702 0.00021917624
  Force max component initial, final = 57.877628 7.9105871e-05
  Final line search alpha, max atom move = 1.0000000 7.9105871e-05
  Iterations, force evaluations = 156 304

MPI task timing breakdown:
Section |  min time  |  avg time  |  max time  |%varavg| %total
---------------------------------------------------------------
Pair    | 0.47706    | 1.288      | 1.6707     |  30.2 | 71.20
Neigh   | 4.9989e-05 | 0.01476    | 0.021415   |   5.0 |  0.82
Comm    | 0.029012   | 0.29425    | 0.87661    |  44.8 | 16.27
Output  | 0          | 0          | 0          |   0.0 |  0.00
Modify  | 1.8236e-05 | 0.0016418  | 0.0042167  |   2.5 |  0.09
Other   |            | 0.2103     |            |       | 11.62

Nlocal:        2776.45 ave        3958 max           0 min
Histogram: 8 4 4 0 4 12 8 2 28 34
Nghost:        3879.01 ave        5424 max         232 min
Histogram: 8 0 8 0 16 0 8 8 16 40
Neighs:        79213.5 ave      115372 max           0 min
Histogram: 8 4 4 0 10 6 8 8 24 32

Total # of neighbors = 8238208
Ave neighs/atom = 28.530492
Neighbor list builds = 5
Dangerous builds = 0
Setting atom values ...
  1 settings made for x
  1 settings made for y
  1 settings made for z
Setting up cg style minimization ...
  Unit style    : metal
  Current step  : 156
Per MPI rank memory allocation (min/avg/max) = 5.441 | 5.816 | 6.074 Mbytes
Step PotEng KinEng TotEng v_fx v_fy v_fz 
     156   -1152449.4            0   -1152449.4 -0.064850697 0.0023375732 -0.070146322 
     349   -1152449.4            0   -1152449.4 2.0751868e-05 -8.4447775e-06 2.9277985e-05 
Loop time of 2.25094 on 104 procs for 193 steps with 288751 atoms

99.9% CPU use with 104 MPI tasks x 1 OpenMP threads

Minimization stats:
  Stopping criterion = energy tolerance
  Energy initial, next-to-last, final = 
     -1152449.44503743  -1152449.44835229  -1152449.44835229
  Force two-norm initial, final = 0.26672069 0.00018268473
  Force max component initial, final = 0.10005128 3.9187799e-05
  Final line search alpha, max atom move = 1.0000000 3.9187799e-05
  Iterations, force evaluations = 193 386

MPI task timing breakdown:
Section |  min time  |  avg time  |  max time  |%varavg| %total
---------------------------------------------------------------
Pair    | 0.58301    | 1.625      | 2.1144     |  34.6 | 72.19
Neigh   | 0          | 0          | 0          |   0.0 |  0.00
Comm    | 0.033691   | 0.36802    | 1.1003     |  50.8 | 16.35
Output  | 0          | 0          | 0          |   0.0 |  0.00
Modify  | 2.4208e-05 | 0.0031951  | 0.0068262  |   2.7 |  0.14
Other   |            | 0.2547     |            |       | 11.31

Nlocal:        2776.45 ave        3958 max           0 min
Histogram: 8 4 4 0 4 12 8 2 28 34
Nghost:        3878.99 ave        5426 max         232 min
Histogram: 8 0 8 0 16 0 8 8 16 40
Neighs:        79213.4 ave      115354 max           0 min
Histogram: 8 4 4 0 10 6 8 8 24 32

Total # of neighbors = 8238198
Ave neighs/atom = 28.530457
Neighbor list builds = 0
Dangerous builds = 0
Setting atom values ...
  1 settings made for x
  1 settings made for y
  1 settings made for z
Setting up cg style minimization ...
  Unit style    : metal
  Current step  : 349
Per MPI rank memory allocation (min/avg/max) = 5.441 | 5.816 | 6.074 Mbytes
Step PotEng KinEng TotEng v_fx v_fy v_fz 
     349   -1152449.4            0   -1152449.4 -0.045113957 -0.0055269825  -0.06473914 
     524   -1152449.4            0   -1152449.4 2.0304726e-05 1.1097894e-05 2.0062136e-05 
Loop time of 2.09975 on 104 procs for 175 steps with 288751 atoms

99.9% CPU use with 104 MPI tasks x 1 OpenMP threads

Minimization stats:
  Stopping criterion = energy tolerance
  Energy initial, next-to-last, final = 
     -1152449.44351416  -1152449.44498542  -1152449.44498542
  Force two-norm initial, final = 0.17592638 0.00015485844
  Force max component initial, final = 0.074421831 2.0304726e-05
  Final line search alpha, max atom move = 1.0000000 2.0304726e-05
  Iterations, force evaluations = 175 350

MPI task timing breakdown:
Section |  min time  |  avg time  |  max time  |%varavg| %total
---------------------------------------------------------------
Pair    | 0.53781    | 1.486      | 1.9618     |  32.9 | 70.77
Neigh   | 0          | 0          | 0          |   0.0 |  0.00
Comm    | 0.032199   | 0.34516    | 1.0072     |  47.2 | 16.44
Output  | 0          | 0          | 0          |   0.0 |  0.00
Modify  | 2.155e-05  | 0.0028954  | 0.0062421  |   2.5 |  0.14
Other   |            | 0.2657     |            |       | 12.66

Nlocal:        2776.45 ave        3959 max           0 min
Histogram: 8 4 4 0 4 12 8 2 28 34
Nghost:        3879.05 ave        5424 max         232 min
Histogram: 8 0 8 0 16 0 8 8 16 40
Neighs:        79213.5 ave      115392 max           0 min
Histogram: 8 4 4 0 10 6 8 8 24 32

Total # of neighbors = 8238201
Ave neighs/atom = 28.530467
Neighbor list builds = 0
Dangerous builds = 0
The dot product: -2.5303278236525e-07
Setting atom values ...
  1 settings made for x
  1 settings made for y
  1 settings made for z
Setting up cg style minimization ...
  Unit style    : metal
  Current step  : 524
Per MPI rank memory allocation (min/avg/max) = 5.441 | 5.816 | 6.074 Mbytes
Step PotEng KinEng TotEng v_fx v_fy v_fz 
     524   -1152449.4            0   -1152449.4 -0.031240149 -0.0095102759 -0.063467523 
     648   -1152449.4            0   -1152449.4 -2.1109998e-05 -1.6326269e-05 -2.9918141e-05 
Loop time of 1.44858 on 104 procs for 124 steps with 288751 atoms

99.9% CPU use with 104 MPI tasks x 1 OpenMP threads

Minimization stats:
  Stopping criterion = energy tolerance
  Energy initial, next-to-last, final = 
     -1152449.43887806  -1152449.44025061  -1152449.44025061
  Force two-norm initial, final = 0.16275419 0.00012720543
  Force max component initial, final = 0.077046533 2.9918141e-05
  Final line search alpha, max atom move = 1.0000000 2.9918141e-05
  Iterations, force evaluations = 124 248

MPI task timing breakdown:
Section |  min time  |  avg time  |  max time  |%varavg| %total
---------------------------------------------------------------
Pair    | 0.37218    | 1.0408     | 1.3582     |  27.7 | 71.85
Neigh   | 0          | 0          | 0          |   0.0 |  0.00
Comm    | 0.020859   | 0.23562    | 0.70424    |  40.5 | 16.27
Output  | 0          | 0          | 0          |   0.0 |  0.00
Modify  | 1.5467e-05 | 0.002055   | 0.0043684  |   2.1 |  0.14
Other   |            | 0.1701     |            |       | 11.74

Nlocal:        2776.45 ave        3959 max           0 min
Histogram: 8 4 4 0 4 12 8 2 28 34
Nghost:        3879.05 ave        5424 max         232 min
Histogram: 8 0 8 0 16 0 8 8 16 40
Neighs:        79213.5 ave      115392 max           0 min
Histogram: 8 4 4 0 10 6 8 8 24 32

Total # of neighbors = 8238203
Ave neighs/atom = 28.530474
Neighbor list builds = 0
Dangerous builds = 0
The dot product: 3.84932331983094e-07
Setting atom values ...
  1 settings made for x
  1 settings made for y
  1 settings made for z
Setting up cg style minimization ...
  Unit style    : metal
  Current step  : 648
Per MPI rank memory allocation (min/avg/max) = 5.441 | 5.816 | 6.074 Mbytes
Step PotEng KinEng TotEng v_fx v_fy v_fz 
     648   -1152449.4            0   -1152449.4 -0.015983425 -0.0076792284 -0.048545985 
     785   -1152449.4            0   -1152449.4 2.5453406e-05 3.273224e-05 4.2017457e-05 
Loop time of 1.64213 on 104 procs for 137 steps with 288751 atoms

99.9% CPU use with 104 MPI tasks x 1 OpenMP threads

Minimization stats:
  Stopping criterion = energy tolerance
  Energy initial, next-to-last, final = 
     -1152449.43292111  -1152449.43417454  -1152449.43417454
  Force two-norm initial, final = 0.14991673 0.00019820808
  Force max component initial, final = 0.076841796 4.2017457e-05
  Final line search alpha, max atom move = 1.0000000 4.2017457e-05
  Iterations, force evaluations = 137 274

MPI task timing breakdown:
Section |  min time  |  avg time  |  max time  |%varavg| %total
---------------------------------------------------------------
Pair    | 0.41219    | 1.1628     | 1.55       |  29.5 | 70.81
Neigh   | 0          | 0          | 0          |   0.0 |  0.00
Comm    | 0.025383   | 0.26971    | 0.78828    |  42.0 | 16.42
Output  | 0          | 0          | 0          |   0.0 |  0.00
Modify  | 1.7286e-05 | 0.0022688  | 0.004832   |   2.2 |  0.14
Other   |            | 0.2073     |            |       | 12.62

Nlocal:        2776.45 ave        3959 max           0 min
Histogram: 8 4 4 0 4 12 8 2 28 34
Nghost:        3879.05 ave        5424 max         232 min
Histogram: 8 0 8 0 16 0 8 8 16 40
Neighs:        79213.5 ave      115392 max           0 min
Histogram: 8 4 4 0 10 6 8 8 24 32

Total # of neighbors = 8238207
Ave neighs/atom = 28.530488
Neighbor list builds = 0
Dangerous builds = 0
The dot product: -5.03552150579181e-07
Setting atom values ...
  1 settings made for x
  1 settings made for y
  1 settings made for z
Setting up cg style minimization ...
  Unit style    : metal
  Current step  : 785
Per MPI rank memory allocation (min/avg/max) = 5.441 | 5.816 | 6.074 Mbytes
Step PotEng KinEng TotEng v_fx v_fy v_fz 
     785   -1152449.4            0   -1152449.4 -0.0053112678 -0.0020716763 -0.027793543 
     957   -1152449.4            0   -1152449.4 -1.4115719e-05 -2.2968165e-05 -3.2226058e-05 
Loop time of 2.01131 on 104 procs for 172 steps with 288751 atoms

99.9% CPU use with 104 MPI tasks x 1 OpenMP threads

Minimization stats:
  Stopping criterion = energy tolerance
  Energy initial, next-to-last, final = 
     -1152449.42557688  -1152449.42672045  -1152449.42672045
  Force two-norm initial, final = 0.14205142 0.00018979819
  Force max component initial, final = 0.078082848 5.5226633e-05
  Final line search alpha, max atom move = 1.0000000 5.5226633e-05
  Iterations, force evaluations = 172 344

MPI task timing breakdown:
Section |  min time  |  avg time  |  max time  |%varavg| %total
---------------------------------------------------------------
Pair    | 0.5162     | 1.445      | 1.8872     |  32.6 | 71.84
Neigh   | 0          | 0          | 0          |   0.0 |  0.00
Comm    | 0.030778   | 0.32636    | 0.97369    |  47.7 | 16.23
Output  | 0          | 0          | 0          |   0.0 |  0.00
Modify  | 2.1875e-05 | 0.0028464  | 0.0061083  |   2.5 |  0.14
Other   |            | 0.2371     |            |       | 11.79

Nlocal:        2776.45 ave        3959 max           0 min
Histogram: 8 4 4 0 4 12 8 2 28 34
Nghost:        3879.05 ave        5424 max         232 min
Histogram: 8 0 8 0 16 0 8 8 16 40
Neighs:        79213.5 ave      115392 max           0 min
Histogram: 8 4 4 0 10 6 8 8 24 32

Total # of neighbors = 8238207
Ave neighs/atom = 28.530488
Neighbor list builds = 0
Dangerous builds = 0
The dot product: 2.73164785021491e-07
Setting atom values ...
  1 settings made for x
  1 settings made for y
  1 settings made for z
Setting up cg style minimization ...
  Unit style    : metal
  Current step  : 957
Per MPI rank memory allocation (min/avg/max) = 5.441 | 5.816 | 6.074 Mbytes
Step PotEng KinEng TotEng v_fx v_fy v_fz 
     957   -1152449.4            0   -1152449.4 0.0012942732 0.0053938113 -0.005781832 
    1000   -1152449.4            0   -1152449.4 -0.0001177227 -0.0002990061 -0.00011528973 
    1064   -1152449.4            0   -1152449.4 -9.5346642e-06 -2.1002626e-06 -8.3353024e-05 
Loop time of 1.25945 on 104 procs for 107 steps with 288751 atoms

99.9% CPU use with 104 MPI tasks x 1 OpenMP threads

Minimization stats:
  Stopping criterion = energy tolerance
  Energy initial, next-to-last, final = 
     -1152449.41683447   -1152449.4178953   -1152449.4178953
  Force two-norm initial, final = 0.13951847 0.00031149751
  Force max component initial, final = 0.081638157 8.3353024e-05
  Final line search alpha, max atom move = 1.0000000 8.3353024e-05
  Iterations, force evaluations = 107 214

MPI task timing breakdown:
Section |  min time  |  avg time  |  max time  |%varavg| %total
---------------------------------------------------------------
Pair    | 0.32176    | 0.90478    | 1.1873     |  25.9 | 71.84
Neigh   | 0          | 0          | 0          |   0.0 |  0.00
Comm    | 0.02086    | 0.2061     | 0.60751    |  37.7 | 16.36
Output  | 0.00020897 | 0.00021716 | 0.00031228 |   0.0 |  0.02
Modify  | 1.3688e-05 | 0.0017742  | 0.0037714  |   2.0 |  0.14
Other   |            | 0.1466     |            |       | 11.64

Nlocal:        2776.45 ave        3959 max           0 min
Histogram: 8 4 4 0 4 12 8 2 28 34
Nghost:        3879.05 ave        5424 max         232 min
Histogram: 8 0 8 0 16 0 8 8 16 40
Neighs:        79213.5 ave      115392 max           0 min
Histogram: 8 4 4 0 10 6 8 8 24 32

Total # of neighbors = 8238207
Ave neighs/atom = 28.530488
Neighbor list builds = 0
Dangerous builds = 0
The dot product: 2.74462165869979e-07
Setting atom values ...
  1 settings made for x
  1 settings made for y
  1 settings made for z
Setting up cg style minimization ...
  Unit style    : metal
  Current step  : 1064
Per MPI rank memory allocation (min/avg/max) = 5.441 | 5.816 | 6.074 Mbytes
Step PotEng KinEng TotEng v_fx v_fy v_fz 
    1064   -1152449.4            0   -1152449.4 0.0061558968  0.014057297  0.017603144 
    1240   -1152449.4            0   -1152449.4 2.6725161e-06 3.8076383e-07 3.2040031e-05 
Loop time of 2.07114 on 104 procs for 176 steps with 288751 atoms

99.9% CPU use with 104 MPI tasks x 1 OpenMP threads

Minimization stats:
  Stopping criterion = energy tolerance
  Energy initial, next-to-last, final = 
     -1152449.40681455  -1152449.40786573  -1152449.40786573
  Force two-norm initial, final = 0.14217932 0.0001212273
  Force max component initial, final = 0.084178697 3.2040031e-05
  Final line search alpha, max atom move = 1.0000000 3.2040031e-05
  Iterations, force evaluations = 176 352

MPI task timing breakdown:
Section |  min time  |  avg time  |  max time  |%varavg| %total
---------------------------------------------------------------
Pair    | 0.5298     | 1.4832     | 1.9348     |  33.1 | 71.62
Neigh   | 0          | 0          | 0          |   0.0 |  0.00
Comm    | 0.032516   | 0.33685    | 0.99364    |  47.8 | 16.26
Output  | 0          | 0          | 0          |   0.0 |  0.00
Modify  | 2.1836e-05 | 0.0029096  | 0.0061857  |   2.5 |  0.14
Other   |            | 0.2481     |            |       | 11.98

Nlocal:        2776.45 ave        3959 max           0 min
Histogram: 8 4 4 0 4 12 8 2 28 34
Nghost:        3879.05 ave        5424 max         232 min
Histogram: 8 0 8 0 16 0 8 8 16 40
Neighs:        79213.5 ave      115392 max           0 min
Histogram: 8 4 4 0 10 6 8 8 24 32

Total # of neighbors = 8238205
Ave neighs/atom = 28.530481
Neighbor list builds = 0
Dangerous builds = 0
The dot product: 2.91394265477559e-08
Setting atom values ...
  1 settings made for x
  1 settings made for y
  1 settings made for z
Setting up cg style minimization ...
  Unit style    : metal
  Current step  : 1240
Per MPI rank memory allocation (min/avg/max) = 5.441 | 5.816 | 6.074 Mbytes
Step PotEng KinEng TotEng v_fx v_fy v_fz 
    1240   -1152449.4            0   -1152449.4  0.011802854  0.023433659  0.043809485 
    1384   -1152449.4            0   -1152449.4 -6.5976561e-07 -2.5584148e-06 2.5555193e-06 
Loop time of 1.69544 on 104 procs for 144 steps with 288751 atoms

99.9% CPU use with 104 MPI tasks x 1 OpenMP threads

Minimization stats:
  Stopping criterion = energy tolerance
  Energy initial, next-to-last, final = 
      -1152449.3959275  -1152449.39734628  -1152449.39734628
  Force two-norm initial, final = 0.15106614 2.0962110e-05
  Force max component initial, final = 0.085720635 4.5914001e-06
  Final line search alpha, max atom move = 1.0000000 4.5914001e-06
  Iterations, force evaluations = 144 288

MPI task timing breakdown:
Section |  min time  |  avg time  |  max time  |%varavg| %total
---------------------------------------------------------------
Pair    | 0.43238    | 1.2121     | 1.5962     |  29.9 | 71.49
Neigh   | 0          | 0          | 0          |   0.0 |  0.00
Comm    | 0.031257   | 0.27731    | 0.81728    |  43.5 | 16.36
Output  | 0          | 0          | 0          |   0.0 |  0.00
Modify  | 1.82e-05   | 0.002383   | 0.0051068  |   2.3 |  0.14
Other   |            | 0.2037     |            |       | 12.01

Nlocal:        2776.45 ave        3959 max           0 min
Histogram: 8 4 4 0 4 12 8 2 28 34
Nghost:        3879.03 ave        5424 max         232 min
Histogram: 8 0 8 0 16 0 8 8 16 40
Neighs:        79213.5 ave      115392 max           0 min
Histogram: 8 4 4 0 10 6 8 8 24 32

Total # of neighbors = 8238203
Ave neighs/atom = 28.530474
Neighbor list builds = 0
Dangerous builds = 0
The dot product: 1.48430785823638e-08
Setting atom values ...
  1 settings made for x
  1 settings made for y
  1 settings made for z
Setting up cg style minimization ...
  Unit style    : metal
  Current step  : 1384
Per MPI rank memory allocation (min/avg/max) = 5.441 | 5.816 | 6.074 Mbytes
Step PotEng KinEng TotEng v_fx v_fy v_fz 
    1384   -1152449.4            0   -1152449.4  0.023171554  0.030864249  0.073610304 
    1635   -1152449.4            0   -1152449.4 -6.860839e-07 -7.5039209e-07 -2.5742454e-06 
Loop time of 2.93884 on 104 procs for 251 steps with 288751 atoms

99.9% CPU use with 104 MPI tasks x 1 OpenMP threads

Minimization stats:
  Stopping criterion = energy tolerance
  Energy initial, next-to-last, final = 
     -1152449.38577974  -1152449.38805155  -1152449.38805155
  Force two-norm initial, final = 0.16557797 9.8011879e-06
  Force max component initial, final = 0.083993017 2.5742454e-06
  Final line search alpha, max atom move = 1.0000000 2.5742454e-06
  Iterations, force evaluations = 251 502

MPI task timing breakdown:
Section |  min time  |  avg time  |  max time  |%varavg| %total
---------------------------------------------------------------
Pair    | 0.75437    | 2.1125     | 2.7508     |  39.3 | 71.88
Neigh   | 0          | 0          | 0          |   0.0 |  0.00
Comm    | 0.043336   | 0.47813    | 1.4215     |  57.6 | 16.27
Output  | 0          | 0          | 0          |   0.0 |  0.00
Modify  | 3.1215e-05 | 0.004147   | 0.0088675  |   3.0 |  0.14
Other   |            | 0.344      |            |       | 11.71

Nlocal:        2776.45 ave        3959 max           0 min
Histogram: 8 4 4 0 4 12 8 2 28 34
Nghost:        3879.03 ave        5424 max         232 min
Histogram: 8 0 8 0 16 0 8 8 16 40
Neighs:        79213.5 ave      115392 max           0 min
Histogram: 8 4 4 0 10 6 8 8 24 32

Total # of neighbors = 8238205
Ave neighs/atom = 28.530481
Neighbor list builds = 0
Dangerous builds = 0
The dot product: -5.90212354070714e-08
Setting atom values ...
  1 settings made for x
  1 settings made for y
  1 settings made for z
Setting up cg style minimization ...
  Unit style    : metal
  Current step  : 1635
Per MPI rank memory allocation (min/avg/max) = 5.441 | 5.816 | 6.074 Mbytes
Step PotEng KinEng TotEng v_fx v_fy v_fz 
    1635   -1152449.4            0   -1152449.4  0.029058389  0.024909704  0.066885156 
    1800   -1152449.4            0   -1152449.4 -1.1657479e-05 -6.8522851e-07 -4.1423855e-05 
Loop time of 1.96344 on 104 procs for 165 steps with 288751 atoms

99.9% CPU use with 104 MPI tasks x 1 OpenMP threads

Minimization stats:
  Stopping criterion = energy tolerance
  Energy initial, next-to-last, final = 
     -1152449.37755173  -1152449.37940591  -1152449.37940591
  Force two-norm initial, final = 0.15928141 0.00018491131
  Force max component initial, final = 0.078612266 4.8134494e-05
  Final line search alpha, max atom move = 1.0000000 4.8134494e-05
  Iterations, force evaluations = 165 330

MPI task timing breakdown:
Section |  min time  |  avg time  |  max time  |%varavg| %total
---------------------------------------------------------------
Pair    | 0.49471    | 1.3938     | 1.848      |  32.2 | 70.99
Neigh   | 0          | 0          | 0          |   0.0 |  0.00
Comm    | 0.029997   | 0.32185    | 0.9373     |  46.1 | 16.39
Output  | 0          | 0          | 0          |   0.0 |  0.00
Modify  | 2.062e-05  | 0.0027273  | 0.0058372  |   2.5 |  0.14
Other   |            | 0.2451     |            |       | 12.48

Nlocal:        2776.45 ave        3959 max           0 min
Histogram: 8 4 4 0 4 12 8 2 28 34
Nghost:        3879.05 ave        5424 max         232 min
Histogram: 8 0 8 0 16 0 8 8 16 40
Neighs:        79213.5 ave      115400 max           0 min
Histogram: 8 4 4 0 10 6 8 8 24 32

Total # of neighbors = 8238203
Ave neighs/atom = 28.530474
Neighbor list builds = 0
Dangerous builds = 0
The dot product: -6.98965422249781e-07
Setting atom values ...
  1 settings made for x
  1 settings made for y
  1 settings made for z
Setting up cg style minimization ...
  Unit style    : metal
  Current step  : 1800
Per MPI rank memory allocation (min/avg/max) = 5.441 | 5.816 | 6.074 Mbytes
Step PotEng KinEng TotEng v_fx v_fy v_fz 
    1800   -1152449.4            0   -1152449.4  0.020818143  0.014873323  0.037812156 
    1974   -1152449.4            0   -1152449.4 1.2421974e-05 1.0799303e-05 2.0083158e-05 
Loop time of 2.03156 on 104 procs for 174 steps with 288751 atoms

99.9% CPU use with 104 MPI tasks x 1 OpenMP threads

Minimization stats:
  Stopping criterion = energy tolerance
  Energy initial, next-to-last, final = 
     -1152449.36910211  -1152449.37046517  -1152449.37046517
  Force two-norm initial, final = 0.14448836 7.8839671e-05
  Force max component initial, final = 0.073825744 2.0083158e-05
  Final line search alpha, max atom move = 1.0000000 2.0083158e-05
  Iterations, force evaluations = 174 348

MPI task timing breakdown:
Section |  min time  |  avg time  |  max time  |%varavg| %total
---------------------------------------------------------------
Pair    | 0.51944    | 1.4614     | 1.904      |  32.9 | 71.93
Neigh   | 0          | 0          | 0          |   0.0 |  0.00
Comm    | 0.029719   | 0.33106    | 0.98673    |  48.0 | 16.30
Output  | 0          | 0          | 0          |   0.0 |  0.00
Modify  | 2.1841e-05 | 0.0028819  | 0.0061862  |   2.5 |  0.14
Other   |            | 0.2362     |            |       | 11.63

Nlocal:        2776.45 ave        3959 max           0 min
Histogram: 8 4 4 0 4 12 8 2 28 34
Nghost:        3879.05 ave        5424 max         232 min
Histogram: 8 0 8 0 16 0 8 8 16 40
Neighs:        79213.5 ave      115400 max           0 min
Histogram: 8 4 4 0 10 6 8 8 24 32

Total # of neighbors = 8238201
Ave neighs/atom = 28.530467
Neighbor list builds = 0
Dangerous builds = 0
The dot product: 2.66545454971891e-07
Setting atom values ...
  1 settings made for x
  1 settings made for y
  1 settings made for z
Setting up cg style minimization ...
  Unit style    : metal
  Current step  : 1974
Per MPI rank memory allocation (min/avg/max) = 5.441 | 5.816 | 6.074 Mbytes
Step PotEng KinEng TotEng v_fx v_fy v_fz 
    1974   -1152449.4            0   -1152449.4  0.011974439 0.0083853793  0.018630989 
    2000   -1152449.4            0   -1152449.4 2.3379256e-05 -5.0073836e-06 6.1552487e-05 
    2106   -1152449.4            0   -1152449.4 -2.4426359e-05 -2.9722396e-05 -2.3146451e-05 
Loop time of 1.56536 on 104 procs for 132 steps with 288751 atoms

99.9% CPU use with 104 MPI tasks x 1 OpenMP threads

Minimization stats:
  Stopping criterion = energy tolerance
  Energy initial, next-to-last, final = 
      -1152449.3598846  -1152449.36107231  -1152449.36107231
  Force two-norm initial, final = 0.13827403 0.00021209851
  Force max component initial, final = 0.070863685 4.7199539e-05
  Final line search alpha, max atom move = 1.0000000 4.7199539e-05
  Iterations, force evaluations = 132 264

MPI task timing breakdown:
Section |  min time  |  avg time  |  max time  |%varavg| %total
---------------------------------------------------------------
Pair    | 0.39746    | 1.1161     | 1.4779     |  28.8 | 71.30
Neigh   | 0          | 0          | 0          |   0.0 |  0.00
Comm    | 0.024103   | 0.257      | 0.74851    |  41.4 | 16.42
Output  | 0.00015739 | 0.00016212 | 0.00024007 |   0.0 |  0.01
Modify  | 1.6794e-05 | 0.0021853  | 0.0046897  |   2.2 |  0.14
Other   |            | 0.19       |            |       | 12.14

Nlocal:        2776.45 ave        3959 max           0 min
Histogram: 8 4 4 0 4 12 8 2 28 34
Nghost:        3879.03 ave        5424 max         232 min
Histogram: 8 0 8 0 16 0 8 8 16 40
Neighs:        79213.5 ave      115407 max           0 min
Histogram: 8 4 4 0 10 6 8 8 24 32

Total # of neighbors = 8238201
Ave neighs/atom = 28.530467
Neighbor list builds = 0
Dangerous builds = 0
The dot product: -2.3985139541573e-07
Setting atom values ...
  1 settings made for x
  1 settings made for y
  1 settings made for z
Setting up cg style minimization ...
  Unit style    : metal
  Current step  : 2106
Per MPI rank memory allocation (min/avg/max) = 5.441 | 5.816 | 6.074 Mbytes
Step PotEng KinEng TotEng v_fx v_fy v_fz 
    2106   -1152449.4            0   -1152449.4 0.0073465163 0.0046297286  0.011030579 
    2251   -1152449.4            0   -1152449.4 -4.8010444e-06 -6.2286058e-06 -3.6216716e-06 
Loop time of 1.6944 on 104 procs for 145 steps with 288751 atoms

99.9% CPU use with 104 MPI tasks x 1 OpenMP threads

Minimization stats:
  Stopping criterion = energy tolerance
  Energy initial, next-to-last, final = 
     -1152449.35015762  -1152449.35137649  -1152449.35137649
  Force two-norm initial, final = 0.13693065 9.0050622e-05
  Force max component initial, final = 0.068856919 8.9975864e-06
  Final line search alpha, max atom move = 1.0000000 8.9975864e-06
  Iterations, force evaluations = 145 290

MPI task timing breakdown:
Section |  min time  |  avg time  |  max time  |%varavg| %total
---------------------------------------------------------------
Pair    | 0.44265    | 1.2208     | 1.5897     |  29.7 | 72.05
Neigh   | 0          | 0          | 0          |   0.0 |  0.00
Comm    | 0.025477   | 0.27618    | 0.82196    |  43.8 | 16.30
Output  | 0          | 0          | 0          |   0.0 |  0.00
Modify  | 1.8354e-05 | 0.002396   | 0.0051021  |   2.3 |  0.14
Other   |            | 0.195      |            |       | 11.51

Nlocal:        2776.45 ave        3959 max           0 min
Histogram: 8 4 4 0 4 12 8 2 28 34
Nghost:        3879.03 ave        5424 max         232 min
Histogram: 8 0 8 0 16 0 8 8 16 40
Neighs:        79213.5 ave      115407 max           0 min
Histogram: 8 4 4 0 10 6 8 8 24 32

Total # of neighbors = 8238201
Ave neighs/atom = 28.530467
Neighbor list builds = 0
Dangerous builds = 0
The dot product: -3.2174768846045e-08
Setting atom values ...
  1 settings made for x
  1 settings made for y
  1 settings made for z
Setting up cg style minimization ...
  Unit style    : metal
  Current step  : 2251
Per MPI rank memory allocation (min/avg/max) = 5.441 | 5.816 | 6.074 Mbytes
Step PotEng KinEng TotEng v_fx v_fy v_fz 
    2251   -1152449.3            0   -1152449.3 0.0082194149 0.0019213179  0.015025117 
    2449   -1152449.3            0   -1152449.3 2.5764209e-06 2.3212706e-05 -1.9434063e-05 
Loop time of 2.36203 on 104 procs for 198 steps with 288751 atoms

99.9% CPU use with 104 MPI tasks x 1 OpenMP threads

Minimization stats:
  Stopping criterion = energy tolerance
  Energy initial, next-to-last, final = 
      -1152449.3406614  -1152449.34260875  -1152449.34260875
  Force two-norm initial, final = 0.14091196 0.00013968879
  Force max component initial, final = 0.066576928 2.9428644e-05
  Final line search alpha, max atom move = 1.0000000 2.9428644e-05
  Iterations, force evaluations = 198 396

MPI task timing breakdown:
Section |  min time  |  avg time  |  max time  |%varavg| %total
---------------------------------------------------------------
Pair    | 0.59842    | 1.6745     | 2.1946     |  35.0 | 70.89
Neigh   | 0          | 0          | 0          |   0.0 |  0.00
Comm    | 0.036112   | 0.38529    | 1.1323     |  51.0 | 16.31
Output  | 0          | 0          | 0          |   0.0 |  0.00
Modify  | 2.4902e-05 | 0.0032794  | 0.0069962  |   2.7 |  0.14
Other   |            | 0.299      |            |       | 12.66

Nlocal:        2776.45 ave        3959 max           0 min
Histogram: 8 4 4 0 4 12 8 2 28 34
Nghost:        3879.01 ave        5424 max         232 min
Histogram: 8 0 8 0 16 0 8 8 16 40
Neighs:        79213.5 ave      115407 max           0 min
Histogram: 8 4 4 0 10 6 8 8 24 32

Total # of neighbors = 8238202
Ave neighs/atom = 28.530471
Neighbor list builds = 0
Dangerous builds = 0
The dot product: -2.58989205982211e-07
Setting atom values ...
  1 settings made for x
[...]

Nlocal:        2776.45 ave        3942 max           0 min
Histogram: 8 4 4 0 4 12 8 1 27 36
Nghost:        3879.18 ave        5425 max         232 min
Histogram: 8 0 8 0 16 0 8 8 16 40
Neighs:        79213.4 ave      114875 max           0 min
Histogram: 8 4 4 0 10 6 8 8 22 34

Total # of neighbors = 8238191
Ave neighs/atom = 28.530433
Neighbor list builds = 8
Dangerous builds = 0
The dot product: 7.14418991023307e-06
Setting atom values ...
  1 settings made for x
  1 settings made for y
  1 settings made for z
Setting up cg style minimization ...
  Unit style    : metal
  Current step  : 8513
Per MPI rank memory allocation (min/avg/max) = 5.441 | 5.816 | 6.074 Mbytes
Step PotEng KinEng TotEng v_fx v_fy v_fz 
    8513   -1152448.7            0   -1152448.7   0.14340198  -0.15651162  -0.24835421 
    8780   -1152448.7            0   -1152448.7 3.9446103e-06 -1.3760491e-06 -3.6549113e-06 
Loop time of 3.15259 on 104 procs for 267 steps with 288751 atoms

99.9% CPU use with 104 MPI tasks x 1 OpenMP threads

Minimization stats:
  Stopping criterion = energy tolerance
  Energy initial, next-to-last, final = 
     -1152448.71649481  -1152448.72929135  -1152448.72929135
  Force two-norm initial, final = 0.35241008 3.9856888e-05
  Force max component initial, final = 0.24835421 6.7957683e-06
  Final line search alpha, max atom move = 1.0000000 6.7957683e-06
  Iterations, force evaluations = 267 534

MPI task timing breakdown:
Section |  min time  |  avg time  |  max time  |%varavg| %total
---------------------------------------------------------------
Pair    | 0.80493    | 2.2516     | 2.9595     |  40.8 | 71.42
Neigh   | 1.0153e-05 | 0.0029357  | 0.0042819  |   2.2 |  0.09
Comm    | 0.050796   | 0.51861    | 1.5046     |  58.7 | 16.45
Output  | 0          | 0          | 0          |   0.0 |  0.00
Modify  | 3.1917e-05 | 0.0044243  | 0.0093926  |   3.1 |  0.14
Other   |            | 0.375      |            |       | 11.89

Nlocal:        2776.45 ave        3960 max           0 min
Histogram: 8 4 4 0 4 12 8 4 26 34
Nghost:        3879.22 ave        5430 max         232 min
Histogram: 8 0 8 0 16 0 8 8 16 40
Neighs:        79213.4 ave      115432 max           0 min
Histogram: 8 4 4 0 10 6 8 8 24 32

Total # of neighbors = 8238190
Ave neighs/atom = 28.530429
Neighbor list builds = 1
Dangerous builds = 0
The dot product: 3.43075833161056e-07
Setting atom values ...
  1 settings made for x
  1 settings made for y
  1 settings made for z
Setting up cg style minimization ...
  Unit style    : metal
  Current step  : 8780
Per MPI rank memory allocation (min/avg/max) = 5.441 | 5.816 | 6.074 Mbytes
Step PotEng KinEng TotEng v_fx v_fy v_fz 
    8780   -1152448.7            0   -1152448.7 -0.0006103815  0.028686012  0.035651465 
    8927   -1152448.7            0   -1152448.7 -4.2185516e-05 -1.8447956e-06 2.3659287e-05 
Loop time of 1.71238 on 104 procs for 147 steps with 288751 atoms

99.9% CPU use with 104 MPI tasks x 1 OpenMP threads

Minimization stats:
  Stopping criterion = energy tolerance
  Energy initial, next-to-last, final = 
     -1152448.73675879  -1152448.73809617  -1152448.73809617
  Force two-norm initial, final = 0.14126455 0.00026435599
  Force max component initial, final = 0.069415374 6.9731035e-05
  Final line search alpha, max atom move = 1.0000000 6.9731035e-05
  Iterations, force evaluations = 147 294

MPI task timing breakdown:
Section |  min time  |  avg time  |  max time  |%varavg| %total
---------------------------------------------------------------
Pair    | 0.44229    | 1.2357     | 1.6121     |  30.1 | 72.17
Neigh   | 0          | 0          | 0          |   0.0 |  0.00
Comm    | 0.025036   | 0.2813     | 0.84482    |  44.1 | 16.43
Output  | 0          | 0          | 0          |   0.0 |  0.00
Modify  | 1.8747e-05 | 0.0024417  | 0.0052151  |   2.3 |  0.14
Other   |            | 0.1929     |            |       | 11.26

Nlocal:        2776.45 ave        3960 max           0 min
Histogram: 8 4 4 0 4 12 8 4 26 34
Nghost:        3879.16 ave        5425 max         232 min
Histogram: 8 0 8 0 16 0 8 8 16 40
Neighs:        79213.4 ave      115423 max           0 min
Histogram: 8 4 4 0 10 6 8 8 24 32

Total # of neighbors = 8238196
Ave neighs/atom = 28.530450
Neighbor list builds = 0
Dangerous builds = 0
The dot product: 1.40703002648365e-07
Setting atom values ...
  1 settings made for x
  1 settings made for y
  1 settings made for z
Setting up cg style minimization ...
  Unit style    : metal
  Current step  : 8927
Per MPI rank memory allocation (min/avg/max) = 5.441 | 5.816 | 6.074 Mbytes
Step PotEng KinEng TotEng v_fx v_fy v_fz 
    8927   -1152448.7            0   -1152448.7 0.0038648314  0.010685681  0.010495513 
    9000   -1152448.7            0   -1152448.7 -9.7301204e-05 2.3448758e-05 8.7459449e-05 
    9127   -1152448.7            0   -1152448.7 1.4854735e-06 -1.8863397e-06 -3.1730532e-06 
Loop time of 2.34658 on 104 procs for 200 steps with 288751 atoms

99.9% CPU use with 104 MPI tasks x 1 OpenMP threads

Minimization stats:
  Stopping criterion = energy tolerance
  Energy initial, next-to-last, final = 
     -1152448.74469432  -1152448.74584233  -1152448.74584233
  Force two-norm initial, final = 0.13446681 5.9547593e-05
  Force max component initial, final = 0.068978658 1.1662750e-05
  Final line search alpha, max atom move = 1.0000000 1.1662750e-05
  Iterations, force evaluations = 200 400

MPI task timing breakdown:
Section |  min time  |  avg time  |  max time  |%varavg| %total
---------------------------------------------------------------
Pair    | 0.60162    | 1.6868     | 2.2069     |  35.4 | 71.88
Neigh   | 0          | 0          | 0          |   0.0 |  0.00
Comm    | 0.035302   | 0.3869     | 1.1337     |  51.1 | 16.49
Output  | 0.00014878 | 0.00015587 | 0.00030532 |   0.0 |  0.01
Modify  | 2.4671e-05 | 0.003316   | 0.0070608  |   2.7 |  0.14
Other   |            | 0.2694     |            |       | 11.48

Nlocal:        2776.45 ave        3960 max           0 min
Histogram: 8 4 4 0 4 12 8 4 26 34
Nghost:        3879.16 ave        5425 max         232 min
Histogram: 8 0 8 0 16 0 8 8 16 40
Neighs:        79213.4 ave      115423 max           0 min
Histogram: 8 4 4 0 10 6 8 8 24 32

Total # of neighbors = 8238195
Ave neighs/atom = 28.530447
Neighbor list builds = 0
Dangerous builds = 0
The dot product: -1.91394032624107e-08
Setting atom values ...
  1 settings made for x
  1 settings made for y
  1 settings made for z
Setting up cg style minimization ...
  Unit style    : metal
  Current step  : 9127
Per MPI rank memory allocation (min/avg/max) = 5.441 | 5.816 | 6.074 Mbytes
Step PotEng KinEng TotEng v_fx v_fy v_fz 
    9127   -1152448.8            0   -1152448.8 0.0029212486  0.011991408  0.012496468 
    9311   -1152448.8            0   -1152448.8 -2.8350741e-06 1.1852138e-06 3.1347053e-06 
Loop time of 2.13592 on 104 procs for 184 steps with 288751 atoms

99.9% CPU use with 104 MPI tasks x 1 OpenMP threads

Minimization stats:
  Stopping criterion = energy tolerance
  Energy initial, next-to-last, final = 
     -1152448.75157964  -1152448.75276369  -1152448.75276369
  Force two-norm initial, final = 0.13511181 0.00010640457
  Force max component initial, final = 0.069396722 8.0221461e-06
  Final line search alpha, max atom move = 1.0000000 8.0221461e-06
  Iterations, force evaluations = 184 368

MPI task timing breakdown:
Section |  min time  |  avg time  |  max time  |%varavg| %total
---------------------------------------------------------------
Pair    | 0.55231    | 1.5447     | 2.0103     |  33.7 | 72.32
Neigh   | 0          | 0          | 0          |   0.0 |  0.00
Comm    | 0.031476   | 0.35038    | 1.0492     |  49.4 | 16.40
Output  | 0          | 0          | 0          |   0.0 |  0.00
Modify  | 2.2425e-05 | 0.0030493  | 0.0064633  |   2.6 |  0.14
Other   |            | 0.2378     |            |       | 11.13

Nlocal:        2776.45 ave        3960 max           0 min
Histogram: 8 4 4 0 4 12 8 4 26 34
Nghost:        3879.16 ave        5425 max         232 min
Histogram: 8 0 8 0 16 0 8 8 16 40
Neighs:        79213.4 ave      115423 max           0 min
Histogram: 8 4 4 0 10 6 8 8 24 32

Total # of neighbors = 8238195
Ave neighs/atom = 28.530447
Neighbor list builds = 0
Dangerous builds = 0
The dot product: 1.53826283327463e-08
Setting atom values ...
  1 settings made for x
  1 settings made for y
  1 settings made for z
Setting up cg style minimization ...
  Unit style    : metal
  Current step  : 9311
Per MPI rank memory allocation (min/avg/max) = 5.441 | 5.816 | 6.074 Mbytes
Step PotEng KinEng TotEng v_fx v_fy v_fz 
    9311   -1152448.8            0   -1152448.8  0.002060743  0.011702144  0.012524755 
    9500   -1152448.8            0   -1152448.8 8.5634699e-06 1.8345926e-06 -3.0364864e-06 
Loop time of 2.23446 on 104 procs for 189 steps with 288751 atoms

99.9% CPU use with 104 MPI tasks x 1 OpenMP threads

Minimization stats:
  Stopping criterion = energy tolerance
  Energy initial, next-to-last, final = 
     -1152448.75768613  -1152448.75884407  -1152448.75884407
  Force two-norm initial, final = 0.13554452 8.8741280e-05
  Force max component initial, final = 0.069644385 2.6247980e-05
  Final line search alpha, max atom move = 1.0000000 2.6247980e-05
  Iterations, force evaluations = 189 378

MPI task timing breakdown:
Section |  min time  |  avg time  |  max time  |%varavg| %total
---------------------------------------------------------------
Pair    | 0.56806    | 1.593      | 2.1091     |  34.4 | 71.29
Neigh   | 0          | 0          | 0          |   0.0 |  0.00
Comm    | 0.032979   | 0.36645    | 1.0687     |  49.3 | 16.40
Output  | 0          | 0          | 0          |   0.0 |  0.00
Modify  | 2.3184e-05 | 0.0031298  | 0.0066479  |   2.6 |  0.14
Other   |            | 0.2719     |            |       | 12.17

Nlocal:        2776.45 ave        3960 max           0 min
Histogram: 8 4 4 0 4 12 8 3 27 34
Nghost:        3879.16 ave        5425 max         232 min
Histogram: 8 0 8 0 16 0 8 8 16 40
Neighs:        79213.4 ave      115424 max           0 min
Histogram: 8 4 4 0 10 6 8 8 24 32

Total # of neighbors = 8238194
Ave neighs/atom = 28.530443
Neighbor list builds = 0
Dangerous builds = 0
The dot product: 8.09975260559163e-09
Setting atom values ...
  1 settings made for x
  1 settings made for y
  1 settings made for z
Setting up cg style minimization ...
  Unit style    : metal
  Current step  : 9500
Per MPI rank memory allocation (min/avg/max) = 5.441 | 5.816 | 6.074 Mbytes
Step PotEng KinEng TotEng v_fx v_fy v_fz 
    9500   -1152448.8            0   -1152448.8 0.0013221101  0.011699854  0.012838508 
    9659   -1152448.8            0   -1152448.8 7.8381954e-05 -4.2154133e-06 -5.2373676e-05 
Loop time of 1.8634 on 104 procs for 159 steps with 288751 atoms

99.9% CPU use with 104 MPI tasks x 1 OpenMP threads

Minimization stats:
  Stopping criterion = energy tolerance
  Energy initial, next-to-last, final = 
      -1152448.7629293  -1152448.76407642  -1152448.76407642
  Force two-norm initial, final = 0.13606805 0.00022081737
  Force max component initial, final = 0.069958227 9.0523935e-05
  Final line search alpha, max atom move = 1.0000000 9.0523935e-05
  Iterations, force evaluations = 159 318

MPI task timing breakdown:
Section |  min time  |  avg time  |  max time  |%varavg| %total
---------------------------------------------------------------
Pair    | 0.47667    | 1.3366     | 1.7472     |  31.3 | 71.73
Neigh   | 0          | 0          | 0          |   0.0 |  0.00
Comm    | 0.0285     | 0.30499    | 0.89929    |  45.6 | 16.37
Output  | 0          | 0          | 0          |   0.0 |  0.00
Modify  | 1.9459e-05 | 0.0026392  | 0.0056075  |   2.4 |  0.14
Other   |            | 0.2192     |            |       | 11.76

Nlocal:        2776.45 ave        3960 max           0 min
Histogram: 8 4 4 0 4 12 8 3 27 34
Nghost:        3879.16 ave        5425 max         232 min
Histogram: 8 0 8 0 16 0 8 8 16 40
Neighs:        79213.4 ave      115424 max           0 min
Histogram: 8 4 4 0 10 6 8 8 24 32

Total # of neighbors = 8238196
Ave neighs/atom = 28.530450
Neighbor list builds = 0
Dangerous builds = 0
The dot product: -1.21243233672679e-07
Setting atom values ...
  1 settings made for x
  1 settings made for y
  1 settings made for z
Setting up cg style minimization ...
  Unit style    : metal
  Current step  : 9659
Per MPI rank memory allocation (min/avg/max) = 5.441 | 5.816 | 6.074 Mbytes
Step PotEng KinEng TotEng v_fx v_fy v_fz 
    9659   -1152448.8            0   -1152448.8 0.0006280993  0.011630531  0.013057359 
    9813   -1152448.8            0   -1152448.8 -6.8208866e-06 -3.9111804e-06 -3.9751984e-07 
Loop time of 1.80346 on 104 procs for 154 steps with 288751 atoms

99.9% CPU use with 104 MPI tasks x 1 OpenMP threads

Minimization stats:
  Stopping criterion = energy tolerance
  Energy initial, next-to-last, final = 
     -1152448.76733154  -1152448.76847552  -1152448.76847552
  Force two-norm initial, final = 0.13662809 0.0002332721
  Force max component initial, final = 0.070267241 5.5897974e-05
  Final line search alpha, max atom move = 1.0000000 5.5897974e-05
  Iterations, force evaluations = 154 308

MPI task timing breakdown:
Section |  min time  |  avg time  |  max time  |%varavg| %total
---------------------------------------------------------------
Pair    | 0.46577    | 1.2985     | 1.6992     |  31.0 | 72.00
Neigh   | 0          | 0          | 0          |   0.0 |  0.00
Comm    | 0.028169   | 0.2972     | 0.87113    |  44.8 | 16.48
Output  | 0          | 0          | 0          |   0.0 |  0.00
Modify  | 1.8707e-05 | 0.0025551  | 0.0054203  |   2.4 |  0.14
Other   |            | 0.2052     |            |       | 11.38

Nlocal:        2776.45 ave        3960 max           0 min
Histogram: 8 4 4 0 4 12 8 2 28 34
Nghost:        3879.16 ave        5427 max         232 min
Histogram: 8 0 8 0 16 0 8 8 16 40
Neighs:        79213.4 ave      115434 max           0 min
Histogram: 8 4 4 0 10 6 8 8 24 32

Total # of neighbors = 8238193
Ave neighs/atom = 28.530440
Neighbor list builds = 0
Dangerous builds = 0
The dot product: -2.44464352284765e-08
Setting atom values ...
  1 settings made for x
  1 settings made for y
  1 settings made for z
Setting up cg style minimization ...
  Unit style    : metal
  Current step  : 9813
Per MPI rank memory allocation (min/avg/max) = 5.441 | 5.816 | 6.074 Mbytes
Step PotEng KinEng TotEng v_fx v_fy v_fz 
    9813   -1152448.8            0   -1152448.8 -0.00022642593  0.011535229  0.013350415 
   10000   -1152448.8            0   -1152448.8 -3.4825574e-07 -5.00201e-07 -3.6305928e-07 
   10029   -1152448.8            0   -1152448.8 -1.3244329e-05 1.1790183e-06 9.3345118e-06 
Loop time of 2.53193 on 104 procs for 216 steps with 288751 atoms

99.9% CPU use with 104 MPI tasks x 1 OpenMP threads

Minimization stats:
  Stopping criterion = energy tolerance
  Energy initial, next-to-last, final = 
     -1152448.77092631  -1152448.77207449  -1152448.77207449
  Force two-norm initial, final = 0.13726589 4.5431098e-05
  Force max component initial, final = 0.070609289 1.3244329e-05
  Final line search alpha, max atom move = 1.0000000 1.3244329e-05
  Iterations, force evaluations = 216 432

MPI task timing breakdown:
Section |  min time  |  avg time  |  max time  |%varavg| %total
---------------------------------------------------------------
Pair    | 0.64995    | 1.8192     | 2.367      |  36.7 | 71.85
Neigh   | 0          | 0          | 0          |   0.0 |  0.00
Comm    | 0.042323   | 0.41519    | 1.2475     |  53.5 | 16.40
Output  | 0.00021988 | 0.00022816 | 0.00044316 |   0.0 |  0.01
Modify  | 2.643e-05  | 0.0035822  | 0.007657   |   2.8 |  0.14
Other   |            | 0.2938     |            |       | 11.60

Nlocal:        2776.45 ave        3960 max           0 min
Histogram: 8 4 4 0 4 12 8 2 28 34
Nghost:        3879.18 ave        5429 max         232 min
Histogram: 8 0 8 0 16 0 8 8 16 40
Neighs:        79213.4 ave      115434 max           0 min
Histogram: 8 4 4 0 10 6 8 8 24 32

Total # of neighbors = 8238192
Ave neighs/atom = 28.530436
Neighbor list builds = 0
Dangerous builds = 0
The dot product: 2.70705649601064e-08
Setting atom values ...
  1 settings made for x
  1 settings made for y
  1 settings made for z
Setting up cg style minimization ...
  Unit style    : metal
  Current step  : 10029
Per MPI rank memory allocation (min/avg/max) = 5.441 | 5.816 | 6.074 Mbytes
Step PotEng KinEng TotEng v_fx v_fy v_fz 
   10029   -1152448.8            0   -1152448.8 -0.00099976492  0.011397248  0.013549569 
   10212   -1152448.8            0   -1152448.8 -2.3990007e-06 -4.6215614e-07 9.1742659e-07 
Loop time of 2.1658 on 104 procs for 183 steps with 288751 atoms

99.9% CPU use with 104 MPI tasks x 1 OpenMP threads

Minimization stats:
  Stopping criterion = energy tolerance
  Energy initial, next-to-last, final = 
     -1152448.77376548  -1152448.77492642  -1152448.77492642
  Force two-norm initial, final = 0.13796612 0.00010618219
  Force max component initial, final = 0.07083361 8.7164185e-06
  Final line search alpha, max atom move = 1.0000000 8.7164185e-06
  Iterations, force evaluations = 183 366

MPI task timing breakdown:
Section |  min time  |  avg time  |  max time  |%varavg| %total
---------------------------------------------------------------
Pair    | 0.5517     | 1.5424     | 2.025      |  33.7 | 71.22
Neigh   | 0          | 0          | 0          |   0.0 |  0.00
Comm    | 0.031637   | 0.35605    | 1.036      |  48.5 | 16.44
Output  | 0          | 0          | 0          |   0.0 |  0.00
Modify  | 2.2946e-05 | 0.0030333  | 0.0064457  |   2.6 |  0.14
Other   |            | 0.2643     |            |       | 12.21

Nlocal:        2776.45 ave        3960 max           0 min
Histogram: 8 4 4 0 4 12 8 2 28 34
Nghost:        3879.20 ave        5429 max         232 min
Histogram: 8 0 8 0 16 0 8 8 16 40
Neighs:        79213.4 ave      115434 max           0 min
Histogram: 8 4 4 0 10 6 8 8 24 32

Total # of neighbors = 8238189
Ave neighs/atom = 28.530426
Neighbor list builds = 0
Dangerous builds = 0
The dot product: -5.26270494811277e-11
Setting up cg style minimization ...
  Unit style    : metal
  Current step  : 10212
Per MPI rank memory allocation (min/avg/max) = 5.441 | 5.816 | 6.074 Mbytes
Step PotEng KinEng TotEng v_fx v_fy v_fz 
   10212   -1152448.8            0   -1152448.8  0.046227035 -0.087348936  0.076885338 
   10478   -1152448.8            0   -1152448.8 2.701505e-06 -1.2056092e-07 -1.9493686e-06 
Loop time of 3.0983 on 104 procs for 266 steps with 288751 atoms

99.9% CPU use with 104 MPI tasks x 1 OpenMP threads

Minimization stats:
  Stopping criterion = energy tolerance
  Energy initial, next-to-last, final = 
     -1152448.77492642  -1152448.77903586  -1152448.77903586
  Force two-norm initial, final = 0.12521239 1.8098806e-05
  Force max component initial, final = 0.087348936 2.7015050e-06
  Final line search alpha, max atom move = 1.0000000 2.7015050e-06
  Iterations, force evaluations = 266 532

MPI task timing breakdown:
Section |  min time  |  avg time  |  max time  |%varavg| %total
---------------------------------------------------------------
Pair    | 0.80148    | 2.234      | 2.9162     |  40.5 | 72.10
Neigh   | 0          | 0          | 0          |   0.0 |  0.00
Comm    | 0.04688    | 0.50713    | 1.5169     |  59.3 | 16.37
Output  | 0          | 0          | 0          |   0.0 |  0.00
Modify  | 3.0044e-05 | 0.002873   | 0.0073594  |   3.3 |  0.09
Other   |            | 0.3543     |            |       | 11.44

Nlocal:        2776.45 ave        3960 max           0 min
Histogram: 8 4 4 0 4 12 8 2 28 34
Nghost:        3879.18 ave        5425 max         232 min
Histogram: 8 0 8 0 16 0 8 8 16 40
Neighs:        79213.4 ave      115433 max           0 min
Histogram: 8 4 4 0 10 6 8 8 24 32

Total # of neighbors = 8238189
Ave neighs/atom = 28.530426
Neighbor list builds = 0
Dangerous builds = 0
