LAMMPS (29 Oct 2020)
OMP_NUM_THREADS environment is not set. Defaulting to 1 thread. (../comm.cpp:94)
  using 1 OpenMP thread(s) per MPI task
OMP_NUM_THREADS environment is not set. Defaulting to 1 thread. (../comm.cpp:94)
  using 1 OpenMP thread(s) per MPI task
Reading data file ...
  orthogonal box = (-122.39241 -121.13707 -37.090501) to (122.39241 121.13707 37.090501)
  13 by 4 by 2 MPI processor grid
  reading atoms ...
  288751 atoms
  read_data CPU = 0.371 seconds
199981 atoms in group inner
88770 atoms in group outer
1 atoms in group carbon
Neighbor list info ...
  update every 1 steps, delay 0 steps, check yes
  max neighbors/atom: 2000, page size: 100000
  master list distance cutoff = 5.6
  ghost atom cutoff = 5.6
  binsize = 2.8, bins = 88 87 27
  1 neighbor lists, perpetual/occasional/extra = 1 0 0
  (1) pair eam/alloy, perpetual
      attributes: half, newton on
      pair build: half/bin/atomonly/newton
      stencil: half/bin/3d/newton
      bin: standard
Setting up cg style minimization ...
  Unit style    : metal
  Current step  : 0
Per MPI rank memory allocation (min/avg/max) = 5.441 | 5.816 | 6.074 Mbytes
Step v_fx v_fy v_fz PotEng KinEng TotEng 
       0   -25.409511    15.059185      49.9568   -1152433.5            0   -1152433.5 
     171 -1.1351615e-05 1.9111511e-05 4.9456971e-06   -1152449.5            0   -1152449.5 
Loop time of 1.96826 on 104 procs for 171 steps with 288751 atoms

99.8% CPU use with 104 MPI tasks x 1 OpenMP threads

Minimization stats:
  Stopping criterion = energy tolerance
  Energy initial, next-to-last, final = 
     -1152433.47074207  -1152449.45035261  -1152449.45035261
  Force two-norm initial, final = 87.079027 9.3306139e-05
  Force max component initial, final = 57.190163 1.9111511e-05
  Final line search alpha, max atom move = 1.0000000 1.9111511e-05
  Iterations, force evaluations = 171 333

MPI task timing breakdown:
Section |  min time  |  avg time  |  max time  |%varavg| %total
---------------------------------------------------------------
Pair    | 0.52762    | 1.4055     | 1.829      |  31.2 | 71.41
Neigh   | 5.1533e-05 | 0.014681   | 0.021379   |   5.0 |  0.75
Comm    | 0.033876   | 0.31741    | 0.94535    |  46.5 | 16.13
Output  | 0          | 0          | 0          |   0.0 |  0.00
Modify  | 1.9105e-05 | 0.0018039  | 0.0046387  |   2.6 |  0.09
Other   |            | 0.2289     |            |       | 11.63

Nlocal:        2776.45 ave        3958 max           0 min
Histogram: 8 4 4 0 4 12 8 2 28 34
Nghost:        3879.03 ave        5424 max         232 min
Histogram: 8 0 8 0 16 0 8 8 16 40
Neighs:        79213.5 ave      115369 max           0 min
Histogram: 8 4 4 0 10 6 8 8 24 32

Total # of neighbors = 8238206
Ave neighs/atom = 28.530485
Neighbor list builds = 5
Dangerous builds = 0
Setting atom values ...
  1 settings made for x
  1 settings made for y
  1 settings made for z
Setting up cg style minimization ...
  Unit style    : metal
  Current step  : 171
Per MPI rank memory allocation (min/avg/max) = 5.441 | 5.816 | 6.074 Mbytes
Step PotEng KinEng TotEng v_fx v_fy v_fz 
     171   -1152449.4            0   -1152449.4  0.015516695 0.0058785067 -0.019389223 
     354   -1152449.5            0   -1152449.5 4.8751024e-06 -8.0870396e-06 -1.458984e-05 
Loop time of 2.16492 on 104 procs for 183 steps with 288751 atoms

99.9% CPU use with 104 MPI tasks x 1 OpenMP threads

Minimization stats:
  Stopping criterion = energy tolerance
  Energy initial, next-to-last, final = 
     -1152449.44949173  -1152449.45006461  -1152449.45006461
  Force two-norm initial, final = 0.11250369 7.3380756e-05
  Force max component initial, final = 0.050082798 1.6763462e-05
  Final line search alpha, max atom move = 1.0000000 1.6763462e-05
  Iterations, force evaluations = 183 366

MPI task timing breakdown:
Section |  min time  |  avg time  |  max time  |%varavg| %total
---------------------------------------------------------------
Pair    | 0.55987    | 1.5479     | 2.007      |  33.5 | 71.50
Neigh   | 0          | 0          | 0          |   0.0 |  0.00
Comm    | 0.033277   | 0.35799    | 1.0532     |  48.0 | 16.54
Output  | 0          | 0          | 0          |   0.0 |  0.00
Modify  | 2.1908e-05 | 0.0030327  | 0.006471   |   2.6 |  0.14
Other   |            | 0.256      |            |       | 11.83

Nlocal:        2776.45 ave        3960 max           0 min
Histogram: 8 4 4 0 4 12 8 2 28 34
Nghost:        3879.03 ave        5424 max         232 min
Histogram: 8 0 8 0 16 0 8 8 16 40
Neighs:        79213.4 ave      115431 max           0 min
Histogram: 8 4 4 0 10 6 8 8 24 32

Total # of neighbors = 8238197
Ave neighs/atom = 28.530454
Neighbor list builds = 0
Dangerous builds = 0
Setting atom values ...
  1 settings made for x
  1 settings made for y
  1 settings made for z
Setting up cg style minimization ...
  Unit style    : metal
  Current step  : 354
Per MPI rank memory allocation (min/avg/max) = 5.441 | 5.816 | 6.074 Mbytes
Step PotEng KinEng TotEng v_fx v_fy v_fz 
     354   -1152449.4            0   -1152449.4  0.027315761 0.0091022182  -0.04268045 
     515   -1152449.4            0   -1152449.4 -2.1716941e-05 1.9593196e-05 6.5917341e-05 
Loop time of 1.86943 on 104 procs for 161 steps with 288751 atoms

99.9% CPU use with 104 MPI tasks x 1 OpenMP threads

Minimization stats:
  Stopping criterion = energy tolerance
  Energy initial, next-to-last, final = 
     -1152449.44631789  -1152449.44814968  -1152449.44814968
  Force two-norm initial, final = 0.20349111 0.0002666345
  Force max component initial, final = 0.090358277 6.5917341e-05
  Final line search alpha, max atom move = 1.0000000 6.5917341e-05
  Iterations, force evaluations = 161 322

MPI task timing breakdown:
Section |  min time  |  avg time  |  max time  |%varavg| %total
---------------------------------------------------------------
Pair    | 0.49277    | 1.3518     | 1.7652     |  31.3 | 72.31
Neigh   | 0          | 0          | 0          |   0.0 |  0.00
Comm    | 0.031252   | 0.30416    | 0.91646    |  46.1 | 16.27
Output  | 0          | 0          | 0          |   0.0 |  0.00
Modify  | 1.9289e-05 | 0.0026579  | 0.0056807  |   2.4 |  0.14
Other   |            | 0.2108     |            |       | 11.28

Nlocal:        2776.45 ave        3960 max           0 min
Histogram: 8 4 4 0 4 12 8 2 28 34
Nghost:        3879.03 ave        5424 max         232 min
Histogram: 8 0 8 0 16 0 8 8 16 40
Neighs:        79213.4 ave      115431 max           0 min
Histogram: 8 4 4 0 10 6 8 8 24 32

Total # of neighbors = 8238197
Ave neighs/atom = 28.530454
Neighbor list builds = 0
Dangerous builds = 0
The dot product: -2.43015814113874e-07
Setting atom values ...
  1 settings made for x
  1 settings made for y
  1 settings made for z
Setting up cg style minimization ...
  Unit style    : metal
  Current step  : 515
Per MPI rank memory allocation (min/avg/max) = 5.441 | 5.816 | 6.074 Mbytes
Step PotEng KinEng TotEng v_fx v_fy v_fz 
     515   -1152449.4            0   -1152449.4  0.027321796  0.011855662  -0.05216507 
     629   -1152449.4            0   -1152449.4 9.5565284e-06 -1.0653461e-06 -2.728821e-05 
Loop time of 1.33129 on 104 procs for 114 steps with 288751 atoms

99.9% CPU use with 104 MPI tasks x 1 OpenMP threads

Minimization stats:
  Stopping criterion = energy tolerance
  Energy initial, next-to-last, final = 
     -1152449.44288409  -1152449.44468946  -1152449.44468946
  Force two-norm initial, final = 0.20379465 0.00019755538
  Force max component initial, final = 0.089309531 3.0159133e-05
  Final line search alpha, max atom move = 1.0000000 3.0159133e-05
  Iterations, force evaluations = 114 228

MPI task timing breakdown:
Section |  min time  |  avg time  |  max time  |%varavg| %total
---------------------------------------------------------------
Pair    | 0.34625    | 0.96386    | 1.2587     |  26.4 | 72.40
Neigh   | 0          | 0          | 0          |   0.0 |  0.00
Comm    | 0.024411   | 0.21841    | 0.65014    |  38.5 | 16.41
Output  | 0          | 0          | 0          |   0.0 |  0.00
Modify  | 1.4455e-05 | 0.001891   | 0.0040504  |   2.0 |  0.14
Other   |            | 0.1471     |            |       | 11.05

Nlocal:        2776.45 ave        3960 max           0 min
Histogram: 8 4 4 0 4 12 8 2 28 34
Nghost:        3879.03 ave        5424 max         232 min
Histogram: 8 0 8 0 16 0 8 8 16 40
Neighs:        79213.4 ave      115432 max           0 min
Histogram: 8 4 4 0 10 6 8 8 24 32

Total # of neighbors = 8238196
Ave neighs/atom = 28.530450
Neighbor list builds = 0
Dangerous builds = 0
The dot product: 1.59337946502498e-07
Setting atom values ...
  1 settings made for x
  1 settings made for y
  1 settings made for z
Setting up cg style minimization ...
  Unit style    : metal
  Current step  : 629
Per MPI rank memory allocation (min/avg/max) = 5.441 | 5.816 | 6.074 Mbytes
Step PotEng KinEng TotEng v_fx v_fy v_fz 
     629   -1152449.4            0   -1152449.4  0.026368947  0.020419659 -0.054847558 
     779   -1152449.4            0   -1152449.4 3.4275742e-06 -2.0020521e-06 -1.99036e-05 
Loop time of 1.74095 on 104 procs for 150 steps with 288751 atoms

99.9% CPU use with 104 MPI tasks x 1 OpenMP threads

Minimization stats:
  Stopping criterion = energy tolerance
  Energy initial, next-to-last, final = 
     -1152449.43812911  -1152449.43991199  -1152449.43991199
  Force two-norm initial, final = 0.20174316 5.2337670e-05
  Force max component initial, final = 0.085666678 1.9903600e-05
  Final line search alpha, max atom move = 1.0000000 1.9903600e-05
  Iterations, force evaluations = 150 300

MPI task timing breakdown:
Section |  min time  |  avg time  |  max time  |%varavg| %total
---------------------------------------------------------------
Pair    | 0.45515    | 1.259      | 1.6509     |  30.3 | 72.32
Neigh   | 0          | 0          | 0          |   0.0 |  0.00
Comm    | 0.026477   | 0.28314    | 0.85094    |  44.2 | 16.26
Output  | 0          | 0          | 0          |   0.0 |  0.00
Modify  | 1.8143e-05 | 0.0024758  | 0.0053166  |   2.3 |  0.14
Other   |            | 0.1963     |            |       | 11.28

Nlocal:        2776.45 ave        3960 max           0 min
Histogram: 8 4 4 0 4 12 8 2 28 34
Nghost:        3879.03 ave        5424 max         232 min
Histogram: 8 0 8 0 16 0 8 8 16 40
Neighs:        79213.5 ave      115433 max           0 min
Histogram: 8 4 4 0 10 6 8 8 24 32

Total # of neighbors = 8238201
Ave neighs/atom = 28.530467
Neighbor list builds = 0
Dangerous builds = 0
The dot product: 1.32721508792024e-07
Setting atom values ...
  1 settings made for x
  1 settings made for y
  1 settings made for z
Setting up cg style minimization ...
  Unit style    : metal
  Current step  : 779
Per MPI rank memory allocation (min/avg/max) = 5.441 | 5.816 | 6.074 Mbytes
Step PotEng KinEng TotEng v_fx v_fy v_fz 
     779   -1152449.4            0   -1152449.4  0.023551487   0.02737096 -0.051148456 
     906   -1152449.4            0   -1152449.4 -6.6343056e-06 4.9732582e-06 7.7908289e-05 
Loop time of 1.49967 on 104 procs for 127 steps with 288751 atoms

99.9% CPU use with 104 MPI tasks x 1 OpenMP threads

Minimization stats:
  Stopping criterion = energy tolerance
  Energy initial, next-to-last, final = 
     -1152449.43206409  -1152449.43379968  -1152449.43379968
  Force two-norm initial, final = 0.19753766 0.00024611227
  Force max component initial, final = 0.080780958 7.7908289e-05
  Final line search alpha, max atom move = 1.0000000 7.7908289e-05
  Iterations, force evaluations = 127 254

MPI task timing breakdown:
Section |  min time  |  avg time  |  max time  |%varavg| %total
---------------------------------------------------------------
Pair    | 0.387      | 1.0711     | 1.4008     |  27.9 | 71.42
Neigh   | 0          | 0          | 0          |   0.0 |  0.00
Comm    | 0.024024   | 0.24389    | 0.72113    |  40.4 | 16.26
Output  | 0          | 0          | 0          |   0.0 |  0.00
Modify  | 1.6324e-05 | 0.0021051  | 0.0044928  |   2.2 |  0.14
Other   |            | 0.1826     |            |       | 12.17

Nlocal:        2776.45 ave        3960 max           0 min
Histogram: 8 4 4 0 4 12 8 2 28 34
Nghost:        3879.03 ave        5424 max         232 min
Histogram: 8 0 8 0 16 0 8 8 16 40
Neighs:        79213.4 ave      115433 max           0 min
Histogram: 8 4 4 0 10 6 8 8 24 32

Total # of neighbors = 8238198
Ave neighs/atom = 28.530457
Neighbor list builds = 0
Dangerous builds = 0
The dot product: -5.02854800588092e-07
Setting atom values ...
  1 settings made for x
  1 settings made for y
  1 settings made for z
Setting up cg style minimization ...
  Unit style    : metal
  Current step  : 906
Per MPI rank memory allocation (min/avg/max) = 5.441 | 5.816 | 6.074 Mbytes
Step PotEng KinEng TotEng v_fx v_fy v_fz 
     906   -1152449.4            0   -1152449.4  0.019998511  0.030480477 -0.044384808 
    1000   -1152449.4            0   -1152449.4 9.0688785e-06 1.2610544e-05 -3.7481601e-05 
    1085   -1152449.4            0   -1152449.4 -2.4838484e-06 -3.4295157e-06 1.0614462e-05 
Loop time of 2.07682 on 104 procs for 179 steps with 288751 atoms

99.9% CPU use with 104 MPI tasks x 1 OpenMP threads

Minimization stats:
  Stopping criterion = energy tolerance
  Energy initial, next-to-last, final = 
        -1152449.42463  -1152449.42630983  -1152449.42630983
  Force two-norm initial, final = 0.19277638 0.00012676474
  Force max component initial, final = 0.075885679 1.4987556e-05
  Final line search alpha, max atom move = 1.0000000 1.4987556e-05
  Iterations, force evaluations = 179 358

MPI task timing breakdown:
Section |  min time  |  avg time  |  max time  |%varavg| %total
---------------------------------------------------------------
Pair    | 0.54237    | 1.5011     | 1.9588     |  32.9 | 72.28
Neigh   | 0          | 0          | 0          |   0.0 |  0.00
Comm    | 0.03156    | 0.33789    | 1.0084     |  48.3 | 16.27
Output  | 0.00012428 | 0.00013415 | 0.00024224 |   0.0 |  0.01
Modify  | 2.3005e-05 | 0.0029655  | 0.0063691  |   2.6 |  0.14
Other   |            | 0.2348     |            |       | 11.30

Nlocal:        2776.45 ave        3961 max           0 min
Histogram: 8 4 4 0 6 10 8 2 28 34
Nghost:        3879.03 ave        5424 max         232 min
Histogram: 8 0 8 0 16 0 8 8 16 40
Neighs:        79213.5 ave      115465 max           0 min
Histogram: 8 4 4 0 10 6 8 8 24 32

Total # of neighbors = 8238199
Ave neighs/atom = 28.530461
Neighbor list builds = 0
Dangerous builds = 0
The dot product: -7.20275836922763e-08
Setting atom values ...
  1 settings made for x
  1 settings made for y
  1 settings made for z
Setting up cg style minimization ...
  Unit style    : metal
  Current step  : 1085
Per MPI rank memory allocation (min/avg/max) = 5.441 | 5.816 | 6.074 Mbytes
Step PotEng KinEng TotEng v_fx v_fy v_fz 
    1085   -1152449.4            0   -1152449.4  0.016464302  0.030173423 -0.037527672 
    1292   -1152449.4            0   -1152449.4 -1.9571721e-06 -4.084669e-06 1.8780548e-05 
Loop time of 2.39576 on 104 procs for 207 steps with 288751 atoms

99.9% CPU use with 104 MPI tasks x 1 OpenMP threads

Minimization stats:
  Stopping criterion = energy tolerance
  Energy initial, next-to-last, final = 
     -1152449.41577534  -1152449.41740348  -1152449.41740348
  Force two-norm initial, final = 0.18846364 6.1178317e-05
  Force max component initial, final = 0.071700313 1.8780548e-05
  Final line search alpha, max atom move = 1.0000000 1.8780548e-05
  Iterations, force evaluations = 207 414

MPI task timing breakdown:
Section |  min time  |  avg time  |  max time  |%varavg| %total
---------------------------------------------------------------
Pair    | 0.62836    | 1.7425     | 2.2607     |  35.5 | 72.73
Neigh   | 0          | 0          | 0          |   0.0 |  0.00
Comm    | 0.036601   | 0.39229    | 1.1788     |  52.2 | 16.37
Output  | 0          | 0          | 0          |   0.0 |  0.00
Modify  | 2.4512e-05 | 0.0034187  | 0.0073566  |   2.8 |  0.14
Other   |            | 0.2575     |            |       | 10.75

Nlocal:        2776.45 ave        3961 max           0 min
Histogram: 8 4 4 0 6 10 8 2 28 34
Nghost:        3879.03 ave        5424 max         232 min
Histogram: 8 0 8 0 16 0 8 8 16 40
Neighs:        79213.5 ave      115454 max           0 min
Histogram: 8 4 4 0 10 6 8 8 24 32

Total # of neighbors = 8238200
Ave neighs/atom = 28.530464
Neighbor list builds = 0
Dangerous builds = 0
The dot product: -1.06768253293501e-07
Setting atom values ...
  1 settings made for x
  1 settings made for y
  1 settings made for z
Setting up cg style minimization ...
  Unit style    : metal
  Current step  : 1292
Per MPI rank memory allocation (min/avg/max) = 5.441 | 5.816 | 6.074 Mbytes
Step PotEng KinEng TotEng v_fx v_fy v_fz 
    1292   -1152449.4            0   -1152449.4  0.012868547  0.026895086 -0.031403604 
    1512   -1152449.4            0   -1152449.4 6.5612593e-07 2.2116709e-06 -8.6999617e-06 
Loop time of 2.5476 on 104 procs for 220 steps with 288751 atoms

99.9% CPU use with 104 MPI tasks x 1 OpenMP threads

Minimization stats:
  Stopping criterion = energy tolerance
  Energy initial, next-to-last, final = 
     -1152449.40546657    -1152449.407062    -1152449.407062
  Force two-norm initial, final = 0.18477062 3.3646031e-05
  Force max component initial, final = 0.068351379 8.6999617e-06
  Final line search alpha, max atom move = 1.0000000 8.6999617e-06
  Iterations, force evaluations = 220 440

MPI task timing breakdown:
Section |  min time  |  avg time  |  max time  |%varavg| %total
---------------------------------------------------------------
Pair    | 0.67355    | 1.8439     | 2.4087     |  36.5 | 72.38
Neigh   | 0          | 0          | 0          |   0.0 |  0.00
Comm    | 0.040761   | 0.41374    | 1.2438     |  53.8 | 16.24
Output  | 0          | 0          | 0          |   0.0 |  0.00
Modify  | 2.6203e-05 | 0.0036289  | 0.0077816  |   2.8 |  0.14
Other   |            | 0.2863     |            |       | 11.24

Nlocal:        2776.45 ave        3961 max           0 min
Histogram: 8 4 4 0 6 10 8 2 28 34
Nghost:        3879.03 ave        5424 max         232 min
Histogram: 8 0 8 0 16 0 8 8 16 40
Neighs:        79213.5 ave      115457 max           0 min
Histogram: 8 4 4 0 10 6 8 8 24 32

Total # of neighbors = 8238204
Ave neighs/atom = 28.530478
Neighbor list builds = 0
Dangerous builds = 0
The dot product: 4.27128809293304e-08
Setting atom values ...
  1 settings made for x
  1 settings made for y
  1 settings made for z
Setting up cg style minimization ...
  Unit style    : metal
  Current step  : 1512
Per MPI rank memory allocation (min/avg/max) = 5.441 | 5.816 | 6.074 Mbytes
Step PotEng KinEng TotEng v_fx v_fy v_fz 
    1512   -1152449.4            0   -1152449.4 0.0085259775  0.020373498 -0.027054961 
    1677   -1152449.4            0   -1152449.4 -1.9820752e-07 -1.3566756e-05 7.1447079e-05 
Loop time of 1.9088 on 104 procs for 165 steps with 288751 atoms

99.9% CPU use with 104 MPI tasks x 1 OpenMP threads

Minimization stats:
  Stopping criterion = energy tolerance
  Energy initial, next-to-last, final = 
     -1152449.39370952  -1152449.39530689  -1152449.39530689
  Force two-norm initial, final = 0.18185409 0.00022787159
  Force max component initial, final = 0.070895155 7.1447079e-05
  Final line search alpha, max atom move = 1.0000000 7.1447079e-05
  Iterations, force evaluations = 165 330

MPI task timing breakdown:
Section |  min time  |  avg time  |  max time  |%varavg| %total
---------------------------------------------------------------
Pair    | 0.49951    | 1.3921     | 1.8042     |  31.9 | 72.93
Neigh   | 0          | 0          | 0          |   0.0 |  0.00
Comm    | 0.030809   | 0.3123     | 0.93826    |  46.6 | 16.36
Output  | 0          | 0          | 0          |   0.0 |  0.00
Modify  | 1.9765e-05 | 0.0027249  | 0.0058446  |   2.5 |  0.14
Other   |            | 0.2017     |            |       | 10.56

Nlocal:        2776.45 ave        3961 max           0 min
Histogram: 8 4 4 0 6 10 8 3 27 34
Nghost:        3879.03 ave        5424 max         232 min
Histogram: 8 0 8 0 16 0 8 8 16 40
Neighs:        79213.5 ave      115456 max           0 min
Histogram: 8 4 4 0 10 6 8 8 24 32

Total # of neighbors = 8238203
Ave neighs/atom = 28.530474
Neighbor list builds = 0
Dangerous builds = 0
The dot product: -3.1927938765964e-07
Setting atom values ...
  1 settings made for x
  1 settings made for y
  1 settings made for z
Setting up cg style minimization ...
  Unit style    : metal
  Current step  : 1677
Per MPI rank memory allocation (min/avg/max) = 5.441 | 5.816 | 6.074 Mbytes
Step PotEng KinEng TotEng v_fx v_fy v_fz 
    1677   -1152449.4            0   -1152449.4 0.0033795606  0.011768415  -0.02469447 
    1896   -1152449.4            0   -1152449.4 -3.4930549e-08 -1.5312865e-06 6.1902186e-06 
Loop time of 2.5472 on 104 procs for 219 steps with 288751 atoms

99.9% CPU use with 104 MPI tasks x 1 OpenMP threads

Minimization stats:
  Stopping criterion = energy tolerance
  Energy initial, next-to-last, final = 
     -1152449.38054732  -1152449.38219777  -1152449.38219777
  Force two-norm initial, final = 0.18000134 3.7642893e-05
  Force max component initial, final = 0.074623185 7.3484721e-06
  Final line search alpha, max atom move = 1.0000000 7.3484721e-06
  Iterations, force evaluations = 219 438

MPI task timing breakdown:
Section |  min time  |  avg time  |  max time  |%varavg| %total
---------------------------------------------------------------
Pair    | 0.66747    | 1.8435     | 2.4048     |  36.5 | 72.37
Neigh   | 0          | 0          | 0          |   0.0 |  0.00
Comm    | 0.036836   | 0.41662    | 1.2541     |  53.7 | 16.36
Output  | 0          | 0          | 0          |   0.0 |  0.00
Modify  | 2.6978e-05 | 0.003613   | 0.007782   |   2.8 |  0.14
Other   |            | 0.2835     |            |       | 11.13

Nlocal:        2776.45 ave        3957 max           0 min
Histogram: 8 4 4 0 4 12 8 3 27 34
Nghost:        3879.03 ave        5424 max         232 min
Histogram: 8 0 8 0 16 0 8 8 16 40
Neighs:        79213.5 ave      115329 max           0 min
Histogram: 8 4 4 0 10 6 8 8 24 32

Total # of neighbors = 8238203
Ave neighs/atom = 28.530474
Neighbor list builds = 0
Dangerous builds = 0
The dot product: -2.79284012610567e-08
Setting atom values ...
  1 settings made for x
  1 settings made for y
  1 settings made for z
Setting up cg style minimization ...
  Unit style    : metal
  Current step  : 1896
Per MPI rank memory allocation (min/avg/max) = 5.441 | 5.816 | 6.074 Mbytes
Step PotEng KinEng TotEng v_fx v_fy v_fz 
    1896   -1152449.4            0   -1152449.4 -0.0036491453 0.0013412107 -0.025840077 
    2000   -1152449.4            0   -1152449.4 3.3062523e-06 -3.9591505e-05 0.00015874239 
    2074   -1152449.4            0   -1152449.4 3.4572624e-06 -6.4507172e-06 4.2748207e-05 
Loop time of 2.0808 on 104 procs for 178 steps with 288751 atoms

99.9% CPU use with 104 MPI tasks x 1 OpenMP threads

Minimization stats:
  Stopping criterion = energy tolerance
  Energy initial, next-to-last, final = 
     -1152449.36608024  -1152449.36799772  -1152449.36799772
  Force two-norm initial, final = 0.17953808 0.00018786112
  Force max component initial, final = 0.078988752 5.2428047e-05
  Final line search alpha, max atom move = 1.0000000 5.2428047e-05
  Iterations, force evaluations = 178 356

MPI task timing breakdown:
Section |  min time  |  avg time  |  max time  |%varavg| %total
---------------------------------------------------------------
Pair    | 0.53866    | 1.5008     | 1.9483     |  33.1 | 72.12
Neigh   | 0          | 0          | 0          |   0.0 |  0.00
Comm    | 0.030877   | 0.34282    | 1.0166     |  47.9 | 16.48
Output  | 9.7007e-05 | 9.9774e-05 | 0.00020618 |   0.0 |  0.00
Modify  | 2.1282e-05 | 0.0029409  | 0.0063205  |   2.6 |  0.14
Other   |            | 0.2342     |            |       | 11.25

Nlocal:        2776.45 ave        3956 max           0 min
Histogram: 8 4 4 0 4 12 8 0 30 34
Nghost:        3879.01 ave        5428 max         232 min
Histogram: 8 0 8 0 16 0 8 8 16 40
Neighs:        79213.5 ave      115295 max           0 min
Histogram: 8 4 4 0 10 6 8 8 24 32

Total # of neighbors = 8238202
Ave neighs/atom = 28.530471
Neighbor list builds = 0
Dangerous builds = 0
The dot product: -3.76876293059664e-07
Setting atom values ...
  1 settings made for x
  1 settings made for y
  1 settings made for z
Setting up cg style minimization ...
  Unit style    : metal
  Current step  : 2074
Per MPI rank memory allocation (min/avg/max) = 5.441 | 5.816 | 6.074 Mbytes
Step PotEng KinEng TotEng v_fx v_fy v_fz 
    2074   -1152449.4            0   -1152449.4 -0.017395857 -0.013036725 -0.036682939 
    2259   -1152449.4            0   -1152449.4 7.6651566e-06 -1.3560959e-05 7.201889e-05 
Loop time of 2.13295 on 104 procs for 185 steps with 288751 atoms

99.9% CPU use with 104 MPI tasks x 1 OpenMP threads

Minimization stats:
  Stopping criterion = energy tolerance
  Energy initial, next-to-last, final = 
     -1152449.35079256  -1152449.35297779  -1152449.35297779
  Force two-norm initial, final = 0.18206225 0.00019032838
  Force max component initial, final = 0.08507387 7.2018890e-05
  Final line search alpha, max atom move = 1.0000000 7.2018890e-05
  Iterations, force evaluations = 185 370

MPI task timing breakdown:
Section |  min time  |  avg time  |  max time  |%varavg| %total
---------------------------------------------------------------
Pair    | 0.56142    | 1.5479     | 2.0241     |  33.5 | 72.57
Neigh   | 0          | 0          | 0          |   0.0 |  0.00
Comm    | 0.030818   | 0.34863    | 1.0444     |  48.9 | 16.35
Output  | 0          | 0          | 0          |   0.0 |  0.00
Modify  | 2.1765e-05 | 0.0030615  | 0.0066282  |   2.6 |  0.14
Other   |            | 0.2334     |            |       | 10.94

Nlocal:        2776.45 ave        3955 max           0 min
Histogram: 8 4 4 0 4 12 8 0 30 34
Nghost:        3878.99 ave        5428 max         232 min
Histogram: 8 0 8 0 16 0 8 8 16 40
Neighs:        79213.5 ave      115272 max           0 min
Histogram: 8 4 4 0 10 6 8 8 24 32

Total # of neighbors = 8238203
Ave neighs/atom = 28.530474
Neighbor list builds = 0
Dangerous builds = 0
The dot product: -8.18606145853551e-07
Setting atom values ...
  1 settings made for x
  1 settings made for y
  1 settings made for z
Setting up cg style minimization ...
  Unit style    : metal
  Current step  : 2259
Per MPI rank memory allocation (min/avg/max) = 5.441 | 5.816 | 6.074 Mbytes
Step PotEng KinEng TotEng v_fx v_fy v_fz 
    2259   -1152449.3            0   -1152449.3 -0.029486632 -0.021504483 -0.041486083 
    2451   -1152449.3            0   -1152449.3 -8.6309476e-06 1.0430265e-05 -5.2973489e-05 
Loop time of 2.22842 on 104 procs for 192 steps with 288751 atoms

99.9% CPU use with 104 MPI tasks x 1 OpenMP threads

Minimization stats:
  Stopping criterion = energy tolerance
  Energy initial, next-to-last, final = 
     -1152449.33479471  -1152449.33715599  -1152449.33715599
  Force two-norm initial, final = 0.18489895 0.00015675889
  Force max component initial, final = 0.092397848 5.2973489e-05
  Final line search alpha, max atom move = 1.0000000 5.2973489e-05
  Iterations, force evaluations = 192 384

MPI task timing breakdown:
Section |  min time  |  avg time  |  max time  |%varavg| %total
---------------------------------------------------------------
Pair    | 0.58145    | 1.615      | 2.1078     |  34.2 | 72.47
Neigh   | 0          | 0          | 0          |   0.0 |  0.00
Comm    | 0.038476   | 0.36335    | 1.0841     |  50.0 | 16.31
Output  | 0          | 0          | 0          |   0.0 |  0.00
Modify  | 2.2981e-05 | 0.0031752  | 0.0068426  |   2.7 |  0.14
Other   |            | 0.2469     |            |       | 11.08

Nlocal:        2776.45 ave        3954 max           0 min
Histogram: 8 4 4 0 4 12 8 0 30 34
Nghost:        3879.03 ave        5427 max         232 min
Histogram: 8 0 8 0 16 0 8 8 16 40
Neighs:        79213.5 ave      115246 max           0 min
Histogram: 8 4 4 0 10 6 8 8 24 32

Total # of neighbors = 8238205
Ave neighs/atom = 28.530481
Neighbor list builds = 0
Dangerous builds = 0
The dot product: 6.33539610966107e-07
Setting atom values ...
  1 settings made for x
  1 settings made for y
  1 settings made for z
Setting up cg style minimization ...
  Unit style    : metal
  Current step  : 2451
Per MPI rank memory allocation (min/avg/max) = 5.441 | 5.816 | 6.074 Mbytes
Step PotEng KinEng TotEng v_fx v_fy v_fz 
    2451   -1152449.3            0   -1152449.3 -0.033897272 -0.022445717 -0.036558107 
    2627   -1152449.3            0   -1152449.3 -1.1517003e-05 1.0315361e-05 -5.1350808e-05 
Loop time of 2.03497 on 104 procs for 176 steps with 288751 atoms

99.9% CPU use with 104 MPI tasks x 1 OpenMP threads

Minimization stats:
  Stopping criterion = energy tolerance
  Energy initial, next-to-last, final = 
     -1152449.31792533  -1152449.32013697  -1152449.32013697
  Force two-norm initial, final = 0.18423273 0.00026615371
  Force max component initial, final = 0.09917637 5.1350808e-05
  Final line search alpha, max atom move = 1.0000000 5.1350808e-05
  Iterations, force evaluations = 176 352

MPI task timing breakdown:
Section |  min time  |  avg time  |  max time  |%varavg| %total
---------------------------------------------------------------
Pair    | 0.53691    | 1.4747     | 1.923      |  32.7 | 72.47
Neigh   | 0          | 0          | 0          |   0.0 |  0.00
Comm    | 0.031706   | 0.33       | 0.99902    |  48.4 | 16.22
Output  | 0          | 0          | 0          |   0.0 |  0.00
Modify  | 2.0752e-05 | 0.0029095  | 0.0062893  |   2.5 |  0.14
Other   |            | 0.2273     |            |       | 11.17

Nlocal:        2776.45 ave        3953 max           0 min
Histogram: 8 4 4 0 4 12 8 0 30 34
Nghost:        3879.11 ave        5424 max         232 min
Histogram: 8 0 8 0 16 0 8 8 16 40
Neighs:        79213.5 ave      115205 max           0 min
Histogram: 8 4 4 0 10 6 8 8 24 32

Total # of neighbors = 8238204
Ave neighs/atom = 28.530478
Neighbor list builds = 0
Dangerous builds = 0
The dot product: 5.67407595768546e-07
Setting atom values ...
  1 settings made for x
  1 settings made for y
  1 settings made for z
Setting up cg style minimization ...
  Unit style    : metal
  Current step  : 2627
Per MPI rank memory allocation (min/avg/max) = 5.441 | 5.816 | 6.074 Mbytes
Step PotEng KinEng TotEng v_fx v_fy v_fz 
    2627   -1152449.3            0   -1152449.3 -0.031671291  -0.01957392 -0.027396608 
    2817   -1152449.3            0   -1152449.3 -6.0322398e-08 5.7254748e-06 -1.1634401e-05 
Loop time of 2.20253 on 104 procs for 190 steps with 288751 atoms

99.9% CPU use with 104 MPI tasks x 1 OpenMP threads

Minimization stats:
  Stopping criterion = energy tolerance
  Energy initial, next-to-last, final = 
     -1152449.29972479  -1152449.30179156  -1152449.30179156
  Force two-norm initial, final = 0.18144006 0.00014254636
  Force max component initial, final = 0.10479033 1.5135158e-05
  Final line search alpha, max atom move = 1.0000000 1.5135158e-05
  Iterations, force evaluations = 190 380

MPI task timing breakdown:
Section |  min time  |  avg time  |  max time  |%varavg| %total
---------------------------------------------------------------
Pair    | 0.57781    | 1.597      | 2.0841     |  33.9 | 72.51
Neigh   | 0          | 0          | 0          |   0.0 |  0.00
Comm    | 0.040489   | 0.35868    | 1.0772     |  49.9 | 16.28
Output  | 0          | 0          | 0          |   0.0 |  0.00
Modify  | 2.2492e-05 | 0.0031316  | 0.0067533  |   2.6 |  0.14
Other   |            | 0.2438     |            |       | 11.07

Nlocal:        2776.45 ave        3952 max           0 min
Histogram: 8 4 4 0 4 12 8 0 30 34
Nghost:        3879.11 ave        5424 max         232 min
Histogram: 8 0 8 0 16 0 8 8 16 40
Neighs:        79213.5 ave      115151 max           0 min
Histogram: 8 4 4 0 10 6 8 8 24 32

Total # of neighbors = 8238208
Ave neighs/atom = 28.530492
Neighbor list builds = 0
Dangerous builds = 0
The dot product: 6.86908719597988e-08
Setting atom values ...
  1 settings made for x
  1 settings made for y
  1 settings made for z
Setting up cg style minimization ...
  Unit style    : metal
  Current step  : 2817
Per MPI rank memory allocation (min/avg/max) = 5.441 | 5.816 | 6.074 Mbytes
Step PotEng KinEng TotEng v_fx v_fy v_fz 
    2817   -1152449.3            0   -1152449.3 -0.027475674 -0.015656877 -0.020705285 
    3000   -1152449.3            0   -1152449.3 -1.271634e-05 1.7069495e-05 -5.5736005e-05 
    3007   -1152449.3            0   -1152449.3 4.847739e-06 3.0415143e-07 8.319229e-06 
Loop time of 2.19648 on 104 procs for 190 steps with 288751 atoms

99.9% CPU use with 104 MPI tasks x 1 OpenMP threads

Minimization stats:
  Stopping criterion = energy tolerance
  Energy initial, next-to-last, final = 
     -1152449.28017691  -1152449.28217975  -1152449.28217975
  Force two-norm initial, final = 0.17883308 0.00014775928
  Force max component initial, final = 0.10918822 3.5370916e-05
  Final line search alpha, max atom move = 1.0000000 3.5370916e-05
  Iterations, force evaluations = 190 380

MPI task timing breakdown:
Section |  min time  |  avg time  |  max time  |%varavg| %total
---------------------------------------------------------------
Pair    | 0.57559    | 1.5892     | 2.0687     |  33.9 | 72.35
Neigh   | 0          | 0          | 0          |   0.0 |  0.00
Comm    | 0.034991   | 0.35623    | 1.0675     |  50.2 | 16.22
Output  | 0.00010593 | 0.00010897 | 0.00023332 |   0.0 |  0.00
Modify  | 2.2999e-05 | 0.0031369  | 0.0067119  |   2.6 |  0.14
Other   |            | 0.2478     |            |       | 11.28

Nlocal:        2776.45 ave        3949 max           0 min
Histogram: 8 4 4 0 4 12 8 0 28 36
Nghost:        3879.16 ave        5425 max         232 min
Histogram: 8 0 8 0 16 0 8 8 16 40
Neighs:        79213.6 ave      115083 max           0 min
Histogram: 8 4 4 0 10 6 8 8 24 32

Total # of neighbors = 8238213
Ave neighs/atom = 28.530509
Neighbor list builds = 0
Dangerous builds = 0
The dot product: -1.14278560552033e-07
Setting atom values ...
  1 settings made for x
  1 settings made for y
  1 settings made for z
Setting up cg style minimization ...
  Unit style    : metal
  Current step  : 3007
Per MPI rank memory allocation (min/avg/max) = 5.441 | 5.816 | 6.074 Mbytes
Step PotEng KinEng TotEng v_fx v_fy v_fz 
    3007   -1152449.3            0   -1152449.3 -0.023520396 -0.011453467 -0.017780161 
    3187   -1152449.3            0   -1152449.3 -3.5499861e-06 -6.5945045e-06 6.0784852e-06 
Loop time of 2.10068 on 104 procs for 180 steps with 288751 atoms

99.9% CPU use with 104 MPI tasks x 1 OpenMP threads

Minimization stats:
  Stopping criterion = energy tolerance
  Energy initial, next-to-last, final = 
     -1152449.25943352  -1152449.26135207  -1152449.26135207
  Force two-norm initial, final = 0.17673416 0.00020587433
  Force max component initial, final = 0.11269767 3.9329028e-05
  Final line search alpha, max atom move = 1.0000000 3.9329028e-05
  Iterations, force evaluations = 180 360

MPI task timing breakdown:
Section |  min time  |  avg time  |  max time  |%varavg| %total
---------------------------------------------------------------
Pair    | 0.54696    | 1.5201     | 1.968      |  33.3 | 72.36
Neigh   | 0          | 0          | 0          |   0.0 |  0.00
Comm    | 0.035204   | 0.34494    | 1.0287     |  48.2 | 16.42
Output  | 0          | 0          | 0          |   0.0 |  0.00
Modify  | 2.2541e-05 | 0.0029818  | 0.0064191  |   2.6 |  0.14
Other   |            | 0.2327     |            |       | 11.08

Nlocal:        2776.45 ave        3942 max           0 min
Histogram: 8 4 4 0 4 12 8 0 28 36
Nghost:        3879.16 ave        5425 max         232 min
Histogram: 8 0 8 0 16 0 8 8 16 40
Neighs:        79213.6 ave      114864 max           0 min
Histogram: 8 4 4 0 10 6 8 8 22 34

Total # of neighbors = 8238216
Ave neighs/atom = 28.530519
Neighbor list builds = 0
Dangerous builds = 0
The dot product: -3.13729019692518e-09
Setting atom values ...
  1 settings made for x
  1 settings made for y
  1 settings made for z
Setting up cg style minimization ...
  Unit style    : metal
  Current step  : 3187
Per MPI rank memory allocation (min/avg/max) = 5.441 | 5.816 | 6.074 Mbytes
Step PotEng KinEng TotEng v_fx v_fy v_fz 
    3187   -1152449.2            0   -1152449.2 -0.020017661 -0.007923981  -0.01601877 
    3378   -1152449.2            0   -1152449.2 -3.2811439e-06 1.1910929e-06 -6.8942914e-06 
Loop time of 2.21163 on 104 procs for 191 steps with 288751 atoms

99.9% CPU use with 104 MPI tasks x 1 OpenMP threads

Minimization stats:
  Stopping criterion = energy tolerance
  Energy initial, next-to-last, final = 
     -1152449.23744326   -1152449.2393293   -1152449.2393293
  Force two-norm initial, final = 0.17515912 0.00012361269
  Force max component initial, final = 0.11587955 1.6930661e-05
  Final line search alpha, max atom move = 1.0000000 1.6930661e-05
  Iterations, force evaluations = 191 382

MPI task timing breakdown:
Section |  min time  |  avg time  |  max time  |%varavg| %total
---------------------------------------------------------------
Pair    | 0.57953    | 1.6017     | 2.0921     |  34.1 | 72.42
Neigh   | 0          | 0          | 0          |   0.0 |  0.00
Comm    | 0.0326     | 0.36129    | 1.0849     |  50.0 | 16.34
Output  | 0          | 0          | 0          |   0.0 |  0.00
Modify  | 2.259e-05  | 0.0031519  | 0.0067634  |   2.6 |  0.14
Other   |            | 0.2455     |            |       | 11.10

Nlocal:        2776.45 ave        3939 max           0 min
Histogram: 8 4 4 0 4 12 8 0 28 36
Nghost:        3879.14 ave        5425 max         232 min
Histogram: 8 0 8 0 16 0 8 8 16 40
Neighs:        79213.6 ave      114749 max           0 min
Histogram: 8 4 4 0 9 7 8 8 22 34

Total # of neighbors = 8238212
Ave neighs/atom = 28.530506
Neighbor list builds = 0
Dangerous builds = 0
The dot product: 7.99526849883701e-08
Setting atom values ...
  1 settings made for x
  1 settings made for y
  1 settings made for z
Setting up cg style minimization ...
  Unit style    : metal
  Current step  : 3378
Per MPI rank memory allocation (min/avg/max) = 5.441 | 5.816 | 6.074 Mbytes
Step PotEng KinEng TotEng v_fx v_fy v_fz 
    3378   -1152449.2            0   -1152449.2 -0.018861177 -0.0050637051  -0.01720177 
    3557   -1152449.2            0   -1152449.2 -4.5579138e-06 -1.7061532e-06 -3.3706865e-06 
Loop time of 2.06337 on 104 procs for 179 steps with 288751 atoms

99.9% CPU use with 104 MPI tasks x 1 OpenMP threads

Minimization stats:
  Stopping criterion = energy tolerance
  Energy initial, next-to-last, final = 
     -1152449.21431536  -1152449.21635515  -1152449.21635515
  Force two-norm initial, final = 0.1742176 0.00019677918
  Force max component initial, final = 0.1186865 3.2135577e-05
  Final line search alpha, max atom move = 1.0000000 3.2135577e-05
  Iterations, force evaluations = 179 358

MPI task timing breakdown:
Section |  min time  |  avg time  |  max time  |%varavg| %total
---------------------------------------------------------------
Pair    | 0.54016    | 1.5077     | 1.9516     |  33.1 | 73.07
Neigh   | 0          | 0          | 0          |   0.0 |  0.00
Comm    | 0.033328   | 0.33908    | 1.0229     |  48.7 | 16.43
Output  | 0          | 0          | 0          |   0.0 |  0.00
Modify  | 2.1238e-05 | 0.0029574  | 0.0063429  |   2.6 |  0.14
Other   |            | 0.2136     |            |       | 10.35

Nlocal:        2776.45 ave        3938 max           0 min
Histogram: 8 4 4 0 4 12 8 0 28 36
Nghost:        3879.17 ave        5425 max         232 min
Histogram: 8 0 8 0 16 0 8 8 16 40
Neighs:        79213.6 ave      114725 max           0 min
Histogram: 8 4 4 0 9 7 8 8 22 34

Total # of neighbors = 8238211
Ave neighs/atom = 28.530502
Neighbor list builds = 0
Dangerous builds = 0
The dot product: 7.41264588488724e-08
Setting atom values ...
  1 settings made for x
  1 settings made for y
  1 settings made for z
Setting up cg style minimization ...
  Unit style    : metal
  Current step  : 3557
Per MPI rank memory allocation (min/avg/max) = 5.441 | 5.816 | 6.074 Mbytes
Step PotEng KinEng TotEng v_fx v_fy v_fz 
    3557   -1152449.2            0   -1152449.2 -0.023094983 -0.0023891321 -0.024461045 
    3747   -1152449.2            0   -1152449.2 2.5505105e-06 2.0144195e-06 2.2388641e-08 
Loop time of 2.19329 on 104 procs for 190 steps with 288751 atoms

99.9% CPU use with 104 MPI tasks x 1 OpenMP threads

Minimization stats:
  Stopping criterion = energy tolerance
  Energy initial, next-to-last, final = 
     -1152449.19054385  -1152449.19278082  -1152449.19278082
  Force two-norm initial, final = 0.17446822 0.00011885407
  Force max component initial, final = 0.12129098 2.1406628e-05
  Final line search alpha, max atom move = 1.0000000 2.1406628e-05
  Iterations, force evaluations = 190 380

MPI task timing breakdown:
Section |  min time  |  avg time  |  max time  |%varavg| %total
---------------------------------------------------------------
Pair    | 0.57835    | 1.5969     | 2.082      |  34.1 | 72.81
Neigh   | 0          | 0          | 0          |   0.0 |  0.00
Comm    | 0.033418   | 0.35667    | 1.0838     |  50.6 | 16.26
Output  | 0          | 0          | 0          |   0.0 |  0.00
Modify  | 2.247e-05  | 0.0031374  | 0.0067525  |   2.6 |  0.14
Other   |            | 0.2366     |            |       | 10.79

Nlocal:        2776.45 ave        3939 max           0 min
Histogram: 8 4 4 0 4 12 8 0 28 36
Nghost:        3879.17 ave        5425 max         232 min
Histogram: 8 0 8 0 16 0 8 8 16 40
Neighs:        79213.6 ave      114741 max           0 min
Histogram: 8 4 4 0 9 7 8 8 22 34

Total # of neighbors = 8238211
Ave neighs/atom = 28.530502
Neighbor list builds = 0
Dangerous builds = 0
The dot product: -2.45843805851483e-08
Setting atom values ...
  1 settings made for x
  1 settings made for y
  1 settings made for z
Setting up cg style minimization ...
  Unit style    : metal
  Current step  : 3747
Per MPI rank memory allocation (min/avg/max) = 5.441 | 5.816 | 6.074 Mbytes
Step PotEng KinEng TotEng v_fx v_fy v_fz 
    3747   -1152449.2            0   -1152449.2 -0.028192187 -2.8589842e-05 -0.030510572 
    3965   -1152449.2            0   -1152449.2 3.9518714e-07 1.8967759e-06 -2.2728047e-06 
Loop time of 2.49959 on 104 procs for 218 steps with 288751 atoms

99.9% CPU use with 104 MPI tasks x 1 OpenMP threads

Minimization stats:
  Stopping criterion = energy tolerance
  Energy initial, next-to-last, final = 
     -1152449.16633044  -1152449.16851213  -1152449.16851213
  Force two-norm initial, final = 0.17522696 5.4214792e-05
  Force max component initial, final = 0.12399582 6.6605902e-06
  Final line search alpha, max atom move = 1.0000000 6.6605902e-06
  Iterations, force evaluations = 218 436

MPI task timing breakdown:
Section |  min time  |  avg time  |  max time  |%varavg| %total
---------------------------------------------------------------
Pair    | 0.66033    | 1.8278     | 2.3704     |  36.4 | 73.13
Neigh   | 0          | 0          | 0          |   0.0 |  0.00
Comm    | 0.040772   | 0.40761    | 1.2195     |  53.7 | 16.31
Output  | 0          | 0          | 0          |   0.0 |  0.00
Modify  | 2.5679e-05 | 0.0035962  | 0.0076739  |   2.8 |  0.14
Other   |            | 0.2605     |            |       | 10.42

Nlocal:        2776.45 ave        3939 max           0 min
Histogram: 8 4 4 0 4 12 8 0 28 36
Nghost:        3879.16 ave        5425 max         232 min
Histogram: 8 0 8 0 16 0 8 8 16 40
Neighs:        79213.6 ave      114733 max           0 min
Histogram: 8 4 4 0 9 7 8 8 22 34

Total # of neighbors = 8238215
Ave neighs/atom = 28.530516
Neighbor list builds = 0
Dangerous builds = 0
The dot product: 2.74193959261785e-08
Setting atom values ...
  1 settings made for x
  1 settings made for y
  1 settings made for z
Setting up cg style minimization ...
  Unit style    : metal
  Current step  : 3965
Per MPI rank memory allocation (min/avg/max) = 5.441 | 5.816 | 6.074 Mbytes
Step PotEng KinEng TotEng v_fx v_fy v_fz 
    3965   -1152449.1            0   -1152449.1 -0.027492111 0.0012215543 -0.028399831 
    4000   -1152449.1            0   -1152449.1 8.6805615e-05 -0.00018893772 0.00033660384 
    4152   -1152449.1            0   -1152449.1 4.7980911e-06 -1.7479824e-05 2.7993414e-05 
Loop time of 2.16336 on 104 procs for 187 steps with 288751 atoms

99.9% CPU use with 104 MPI tasks x 1 OpenMP threads

Minimization stats:
  Stopping criterion = energy tolerance
  Energy initial, next-to-last, final = 
     -1152449.14119652  -1152449.14324861  -1152449.14324861
  Force two-norm initial, final = 0.17466023 0.00013656258
  Force max component initial, final = 0.12710606 2.7993414e-05
  Final line search alpha, max atom move = 1.0000000 2.7993414e-05
  Iterations, force evaluations = 187 374

MPI task timing breakdown:
Section |  min time  |  avg time  |  max time  |%varavg| %total
---------------------------------------------------------------
Pair    | 0.56748    | 1.5687     | 2.0473     |  33.8 | 72.51
Neigh   | 0          | 0          | 0          |   0.0 |  0.00
Comm    | 0.032375   | 0.35182    | 1.0594     |  49.5 | 16.26
Output  | 9.8441e-05 | 0.00010447 | 0.00018994 |   0.0 |  0.00
Modify  | 2.2184e-05 | 0.0030935  | 0.0067031  |   2.6 |  0.14
Other   |            | 0.2396     |            |       | 11.08

Nlocal:        2776.45 ave        3940 max           0 min
Histogram: 8 4 4 0 4 12 8 0 28 36
Nghost:        3879.16 ave        5425 max         232 min
Histogram: 8 0 8 0 16 0 8 8 16 40
Neighs:        79213.6 ave      114767 max           0 min
Histogram: 8 4 4 0 10 6 8 8 22 34

Total # of neighbors = 8238215
Ave neighs/atom = 28.530516
Neighbor list builds = 0
Dangerous builds = 0
The dot product: -3.94063223762198e-07
Setting atom values ...
  1 settings made for x
  1 settings made for y
  1 settings made for z
Setting up cg style minimization ...
  Unit style    : metal
  Current step  : 4152
Per MPI rank memory allocation (min/avg/max) = 5.441 | 5.816 | 6.074 Mbytes
Step PotEng KinEng TotEng v_fx v_fy v_fz 
    4152   -1152449.1            0   -1152449.1 -0.023933253 0.0018806705 -0.023656621 
    4402   -1152449.1            0   -1152449.1 6.7199319e-08 -6.7515381e-07 9.1215558e-07 
Loop time of 2.89988 on 104 procs for 250 steps with 288751 atoms

99.9% CPU use with 104 MPI tasks x 1 OpenMP threads

Minimization stats:
  Stopping criterion = energy tolerance
  Energy initial, next-to-last, final = 
     -1152449.11493897  -1152449.11679812  -1152449.11679812
  Force two-norm initial, final = 0.17380826 1.0905484e-05
  Force max component initial, final = 0.13011465 2.3618673e-06
  Final line search alpha, max atom move = 1.0000000 2.3618673e-06
  Iterations, force evaluations = 250 500

MPI task timing breakdown:
Section |  min time  |  avg time  |  max time  |%varavg| %total
---------------------------------------------------------------
Pair    | 0.76085    | 2.103      | 2.7429     |  39.0 | 72.52
Neigh   | 0          | 0          | 0          |   0.0 |  0.00
Comm    | 0.047913   | 0.47455    | 1.4222     |  57.3 | 16.36
Output  | 0          | 0          | 0          |   0.0 |  0.00
Modify  | 2.9801e-05 | 0.0041246  | 0.0088529  |   3.0 |  0.14
Other   |            | 0.3182     |            |       | 10.97

Nlocal:        2776.45 ave        3940 max           0 min
Histogram: 8 4 4 0 4 12 8 0 28 36
Nghost:        3879.16 ave        5425 max         232 min
Histogram: 8 0 8 0 16 0 8 8 16 40
Neighs:        79213.6 ave      114765 max           0 min
Histogram: 8 4 4 0 10 6 8 8 22 34

Total # of neighbors = 8238214
Ave neighs/atom = 28.530512
Neighbor list builds = 0
Dangerous builds = 0
The dot product: -1.0567426444806e-08
Setting atom values ...
  1 settings made for x
  1 settings made for y
  1 settings made for z
Setting up cg style minimization ...
  Unit style    : metal
  Current step  : 4402
Per MPI rank memory allocation (min/avg/max) = 5.441 | 5.816 | 6.074 Mbytes
Step PotEng KinEng TotEng v_fx v_fy v_fz 
    4402   -1152449.1            0   -1152449.1 -0.018786096 0.0017457104 -0.017656404 
    4561   -1152449.1            0   -1152449.1 -1.0136673e-05 3.905199e-05 -5.5563448e-05 
Loop time of 1.83002 on 104 procs for 159 steps with 288751 atoms

99.9% CPU use with 104 MPI tasks x 1 OpenMP threads

Minimization stats:
  Stopping criterion = energy tolerance
  Energy initial, next-to-last, final = 
     -1152449.08733319  -1152449.08906357  -1152449.08906357
  Force two-norm initial, final = 0.17327165 0.00026356207
  Force max component initial, final = 0.1329746 5.5563448e-05
  Final line search alpha, max atom move = 1.0000000 5.5563448e-05
  Iterations, force evaluations = 159 318

MPI task timing breakdown:
Section |  min time  |  avg time  |  max time  |%varavg| %total
---------------------------------------------------------------
Pair    | 0.48132    | 1.3314     | 1.7351     |  31.1 | 72.75
Neigh   | 0          | 0          | 0          |   0.0 |  0.00
Comm    | 0.028664   | 0.29732    | 0.89566    |  46.1 | 16.25
Output  | 0          | 0          | 0          |   0.0 |  0.00
Modify  | 1.8762e-05 | 0.0026264  | 0.0056072  |   2.4 |  0.14
Other   |            | 0.1987     |            |       | 10.86

Nlocal:        2776.45 ave        3940 max           0 min
Histogram: 8 4 4 0 4 12 8 0 28 36
Nghost:        3879.18 ave        5425 max         232 min
Histogram: 8 0 8 0 16 0 8 8 16 40
Neighs:        79213.6 ave      114759 max           0 min
Histogram: 8 4 4 0 10 6 8 8 22 34

Total # of neighbors = 8238213
Ave neighs/atom = 28.530509
Neighbor list builds = 0
Dangerous builds = 0
The dot product: 5.76757682977158e-07
Setting atom values ...
  1 settings made for x
  1 settings made for y
  1 settings made for z
Setting up cg style minimization ...
  Unit style    : metal
  Current step  : 4561
Per MPI rank memory allocation (min/avg/max) = 5.441 | 5.816 | 6.074 Mbytes
Step PotEng KinEng TotEng v_fx v_fy v_fz 
    4561   -1152449.1            0   -1152449.1 -0.013530339 0.0014507417 -0.012290299 
    4739   -1152449.1            0   -1152449.1 -7.3146988e-08 -3.8900327e-06 4.4790656e-06 
Loop time of 2.07301 on 104 procs for 178 steps with 288751 atoms

99.9% CPU use with 104 MPI tasks x 1 OpenMP threads

Minimization stats:
  Stopping criterion = energy tolerance
  Energy initial, next-to-last, final = 
     -1152449.05838747   -1152449.0600428   -1152449.0600428
  Force two-norm initial, final = 0.17331423 0.00014654942
  Force max component initial, final = 0.13557259 1.2973583e-05
  Final line search alpha, max atom move = 1.0000000 1.2973583e-05
  Iterations, force evaluations = 178 356

MPI task timing breakdown:
Section |  min time  |  avg time  |  max time  |%varavg| %total
---------------------------------------------------------------
Pair    | 0.54043    | 1.5036     | 1.9551     |  33.0 | 72.53
Neigh   | 0          | 0          | 0          |   0.0 |  0.00
Comm    | 0.032361   | 0.34043    | 1.0155     |  48.1 | 16.42
Output  | 0          | 0          | 0          |   0.0 |  0.00
Modify  | 2.095e-05  | 0.0029362  | 0.0063073  |   2.6 |  0.14
Other   |            | 0.226      |            |       | 10.90

Nlocal:        2776.45 ave        3940 max           0 min
Histogram: 8 4 4 0 4 12 8 0 28 36
Nghost:        3879.18 ave        5426 max         232 min
Histogram: 8 0 8 0 16 0 8 8 16 40
Neighs:        79213.6 ave      114760 max           0 min
Histogram: 8 4 4 0 10 6 8 8 22 34

Total # of neighbors = 8238214
Ave neighs/atom = 28.530512
Neighbor list builds = 0
Dangerous builds = 0
The dot product: -3.745377079666e-08
Setting atom values ...
  1 settings made for x
  1 settings made for y
  1 settings made for z
Setting up cg style minimization ...
  Unit style    : metal
  Current step  : 4739
Per MPI rank memory allocation (min/avg/max) = 5.441 | 5.816 | 6.074 Mbytes
Step PotEng KinEng TotEng v_fx v_fy v_fz 
    4739     -1152449            0     -1152449 -0.0089507874 0.0011236755 -0.0079963476 
    4924     -1152449            0     -1152449 -5.4331057e-07 9.8046266e-06 -1.1515694e-05 
Loop time of 2.12778 on 104 procs for 185 steps with 288751 atoms

99.9% CPU use with 104 MPI tasks x 1 OpenMP threads

Minimization stats:
  Stopping criterion = energy tolerance
  Energy initial, next-to-last, final = 
     -1152449.02815344  -1152449.02979735  -1152449.02979735
  Force two-norm initial, final = 0.17391093 0.00014288684
  Force max component initial, final = 0.13805761 2.8418757e-05
  Final line search alpha, max atom move = 1.0000000 2.8418757e-05
  Iterations, force evaluations = 185 370

MPI task timing breakdown:
Section |  min time  |  avg time  |  max time  |%varavg| %total
---------------------------------------------------------------
Pair    | 0.56143    | 1.548      | 2.0186     |  33.5 | 72.75
Neigh   | 0          | 0          | 0          |   0.0 |  0.00
Comm    | 0.032055   | 0.3465     | 1.0463     |  49.6 | 16.28
Output  | 0          | 0          | 0          |   0.0 |  0.00
Modify  | 2.1725e-05 | 0.0030552  | 0.0065734  |   2.6 |  0.14
Other   |            | 0.2302     |            |       | 10.82

Nlocal:        2776.45 ave        3940 max           0 min
Histogram: 8 4 4 0 4 12 8 0 28 36
Nghost:        3879.17 ave        5426 max         232 min
Histogram: 8 0 8 0 16 0 8 8 16 40
Neighs:        79213.6 ave      114761 max           0 min
Histogram: 8 4 4 0 10 6 8 8 22 34

Total # of neighbors = 8238218
Ave neighs/atom = 28.530526
Neighbor list builds = 0
Dangerous builds = 0
The dot product: 9.00500899937411e-08
Setting atom values ...
  1 settings made for x
  1 settings made for y
  1 settings made for z
Setting up cg style minimization ...
  Unit style    : metal
  Current step  : 4924
Per MPI rank memory allocation (min/avg/max) = 5.441 | 5.816 | 6.074 Mbytes
Step PotEng KinEng TotEng v_fx v_fy v_fz 
    4924     -1152449            0     -1152449 -0.0055750468 0.00092297424 -0.0050711144 
    5000     -1152449            0     -1152449 3.8452177e-05 -0.00013071179 0.0001723575 
    5124     -1152449            0     -1152449 2.1630994e-06 -6.5324405e-06 8.7891605e-06 
Loop time of 2.3152 on 104 procs for 200 steps with 288751 atoms

99.9% CPU use with 104 MPI tasks x 1 OpenMP threads

Minimization stats:
  Stopping criterion = energy tolerance
  Energy initial, next-to-last, final = 
     -1152448.99679147  -1152448.99843899  -1152448.99843899
  Force two-norm initial, final = 0.17462951 9.3477325e-05
  Force max component initial, final = 0.1401164 8.7891605e-06
  Final line search alpha, max atom move = 1.0000000 8.7891605e-06
  Iterations, force evaluations = 200 400

MPI task timing breakdown:
Section |  min time  |  avg time  |  max time  |%varavg| %total
---------------------------------------------------------------
Pair    | 0.60665    | 1.6878     | 2.1767     |  35.0 | 72.90
Neigh   | 0          | 0          | 0          |   0.0 |  0.00
Comm    | 0.036526   | 0.38253    | 1.147      |  51.1 | 16.52
Output  | 9.4205e-05 | 0.00010597 | 0.00020549 |   0.0 |  0.00
Modify  | 2.3623e-05 | 0.0033026  | 0.0070973  |   2.7 |  0.14
Other   |            | 0.2414     |            |       | 10.43

Nlocal:        2776.45 ave        3940 max           0 min
Histogram: 8 4 4 0 4 12 8 0 28 36
Nghost:        3879.18 ave        5426 max         232 min
Histogram: 8 0 8 0 16 0 8 8 16 40
Neighs:        79213.6 ave      114756 max           0 min
Histogram: 8 4 4 0 10 6 8 8 22 34

Total # of neighbors = 8238215
Ave neighs/atom = 28.530516
Neighbor list builds = 0
Dangerous builds = 0
The dot product: -6.5323966570455e-08
Setting atom values ...
  1 settings made for x
  1 settings made for y
  1 settings made for z
Setting up cg style minimization ...
  Unit style    : metal
  Current step  : 5124
Per MPI rank memory allocation (min/avg/max) = 5.441 | 5.816 | 6.074 Mbytes
Step PotEng KinEng TotEng v_fx v_fy v_fz 
    5124     -1152449            0     -1152449 -0.0029937528 0.00033414915   -0.0024799 
    5335     -1152449            0     -1152449 -2.2101375e-06 7.3462206e-06 -9.5034421e-06 
Loop time of 2.43953 on 104 procs for 211 steps with 288751 atoms

99.9% CPU use with 104 MPI tasks x 1 OpenMP threads

Minimization stats:
  Stopping criterion = energy tolerance
  Energy initial, next-to-last, final = 
       -1152448.964367  -1152448.96602954  -1152448.96602954
  Force two-norm initial, final = 0.17552805 8.3870395e-05
  Force max component initial, final = 0.14207635 1.2113480e-05
  Final line search alpha, max atom move = 1.0000000 1.2113480e-05
  Iterations, force evaluations = 211 422

MPI task timing breakdown:
Section |  min time  |  avg time  |  max time  |%varavg| %total
---------------------------------------------------------------
Pair    | 0.64261    | 1.7734     | 2.3096     |  35.8 | 72.69
Neigh   | 0          | 0          | 0          |   0.0 |  0.00
Comm    | 0.037202   | 0.39766    | 1.2014     |  52.9 | 16.30
Output  | 0          | 0          | 0          |   0.0 |  0.00
Modify  | 2.5115e-05 | 0.0034796  | 0.007513   |   2.8 |  0.14
Other   |            | 0.265      |            |       | 10.86

Nlocal:        2776.45 ave        3940 max           0 min
Histogram: 8 4 4 0 4 12 8 0 28 36
Nghost:        3879.20 ave        5426 max         232 min
Histogram: 8 0 8 0 16 0 8 8 16 40
Neighs:        79213.6 ave      114759 max           0 min
Histogram: 8 4 4 0 10 6 8 8 22 34

Total # of neighbors = 8238219
Ave neighs/atom = 28.530530
Neighbor list builds = 0
Dangerous builds = 0
The dot product: 6.6235182408985e-08
Setting atom values ...
  1 settings made for x
  1 settings made for y
  1 settings made for z
Setting up cg style minimization ...
  Unit style    : metal
  Current step  : 5335
Per MPI rank memory allocation (min/avg/max) = 5.441 | 5.816 | 6.074 Mbytes
Step PotEng KinEng TotEng v_fx v_fy v_fz 
    5335   -1152448.9            0   -1152448.9 -0.0012517514 -0.00035507992 -0.00049048209 
    5524   -1152448.9            0   -1152448.9 -7.4834909e-06 1.9791323e-05 -2.6145684e-05 
Loop time of 2.20309 on 104 procs for 189 steps with 288751 atoms

99.9% CPU use with 104 MPI tasks x 1 OpenMP threads

Minimization stats:
  Stopping criterion = energy tolerance
  Energy initial, next-to-last, final = 
     -1152448.93099822  -1152448.93270881  -1152448.93270881
  Force two-norm initial, final = 0.17633732 0.00015243412
  Force max component initial, final = 0.14371921 2.6145684e-05
  Final line search alpha, max atom move = 1.0000000 2.6145684e-05
  Iterations, force evaluations = 189 378

MPI task timing breakdown:
Section |  min time  |  avg time  |  max time  |%varavg| %total
---------------------------------------------------------------
Pair    | 0.57859    | 1.593      | 2.0584     |  33.9 | 72.31
Neigh   | 0          | 0          | 0          |   0.0 |  0.00
Comm    | 0.034455   | 0.35937    | 1.0744     |  50.1 | 16.31
Output  | 0          | 0          | 0          |   0.0 |  0.00
Modify  | 2.327e-05  | 0.0031227  | 0.0067127  |   2.6 |  0.14
Other   |            | 0.2476     |            |       | 11.24

Nlocal:        2776.45 ave        3941 max           0 min
Histogram: 8 4 4 0 4 12 8 0 28 36
Nghost:        3879.20 ave        5426 max         232 min
Histogram: 8 0 8 0 16 0 8 8 16 40
Neighs:        79213.6 ave      114784 max           0 min
Histogram: 8 4 4 0 10 6 8 8 22 34

Total # of neighbors = 8238215
Ave neighs/atom = 28.530516
Neighbor list builds = 0
Dangerous builds = 0
The dot product: 1.73040698653642e-07
Setting atom values ...
  1 settings made for x
  1 settings made for y
  1 settings made for z
Setting up cg style minimization ...
  Unit style    : metal
  Current step  : 5524
Per MPI rank memory allocation (min/avg/max) = 5.441 | 5.816 | 6.074 Mbytes
Step PotEng KinEng TotEng v_fx v_fy v_fz 
    5524   -1152448.9            0   -1152448.9 3.3906611e-05 -0.0013050754 0.0013803292 
    5734   -1152448.9            0   -1152448.9 2.3596722e-06 -6.2012966e-06 8.0527457e-06 
Loop time of 2.42123 on 104 procs for 210 steps with 288751 atoms

99.9% CPU use with 104 MPI tasks x 1 OpenMP threads

Minimization stats:
  Stopping criterion = energy tolerance
  Energy initial, next-to-last, final = 
     -1152448.89679873  -1152448.89842975  -1152448.89842975
  Force two-norm initial, final = 0.17708576 8.1108998e-05
  Force max component initial, final = 0.14515441 8.7871782e-06
  Final line search alpha, max atom move = 1.0000000 8.7871782e-06
  Iterations, force evaluations = 210 420

MPI task timing breakdown:
Section |  min time  |  avg time  |  max time  |%varavg| %total
---------------------------------------------------------------
Pair    | 0.63713    | 1.7608     | 2.2962     |  35.8 | 72.72
Neigh   | 0          | 0          | 0          |   0.0 |  0.00
Comm    | 0.035708   | 0.39567    | 1.1975     |  52.8 | 16.34
Output  | 0          | 0          | 0          |   0.0 |  0.00
Modify  | 2.5493e-05 | 0.003462   | 0.0074097  |   2.8 |  0.14
Other   |            | 0.2613     |            |       | 10.79

Nlocal:        2776.45 ave        3941 max           0 min
Histogram: 8 4 4 0 4 12 8 0 28 36
Nghost:        3879.20 ave        5426 max         232 min
Histogram: 8 0 8 0 16 0 8 8 16 40
Neighs:        79213.6 ave      114782 max           0 min
Histogram: 8 4 4 0 10 6 8 8 22 34

Total # of neighbors = 8238216
Ave neighs/atom = 28.530519
Neighbor list builds = 0
Dangerous builds = 0
The dot product: -4.48762209935488e-08
Setting atom values ...
  1 settings made for x
  1 settings made for y
  1 settings made for z
Setting up cg style minimization ...
  Unit style    : metal
  Current step  : 5734
Per MPI rank memory allocation (min/avg/max) = 5.441 | 5.816 | 6.074 Mbytes
Step PotEng KinEng TotEng v_fx v_fy v_fz 
    5734   -1152448.9            0   -1152448.9 0.0016110219 -0.003314241 0.0044747105 
    5921   -1152448.9            0   -1152448.9 4.8747841e-06 -1.5038909e-05 1.8673251e-05 
Loop time of 2.15191 on 104 procs for 187 steps with 288751 atoms

99.9% CPU use with 104 MPI tasks x 1 OpenMP threads

Minimization stats:
  Stopping criterion = energy tolerance
  Energy initial, next-to-last, final = 
     -1152448.86148503  -1152448.86309614  -1152448.86309614
  Force two-norm initial, final = 0.17835918 0.00013842563
  Force max component initial, final = 0.14687226 1.8673251e-05
  Final line search alpha, max atom move = 1.0000000 1.8673251e-05
  Iterations, force evaluations = 187 374

MPI task timing breakdown:
Section |  min time  |  avg time  |  max time  |%varavg| %total
---------------------------------------------------------------
Pair    | 0.5663     | 1.5715     | 2.0358     |  33.8 | 73.03
Neigh   | 0          | 0          | 0          |   0.0 |  0.00
Comm    | 0.03295    | 0.35173    | 1.0544     |  49.8 | 16.35
Output  | 0          | 0          | 0          |   0.0 |  0.00
Modify  | 2.2894e-05 | 0.0030888  | 0.0066276  |   2.6 |  0.14
Other   |            | 0.2256     |            |       | 10.48

Nlocal:        2776.45 ave        3941 max           0 min
Histogram: 8 4 4 0 4 12 8 0 28 36
Nghost:        3879.20 ave        5426 max         232 min
Histogram: 8 0 8 0 16 0 8 8 16 40
Neighs:        79213.6 ave      114801 max           0 min
Histogram: 8 4 4 0 10 6 8 8 22 34

Total # of neighbors = 8238215
Ave neighs/atom = 28.530516
Neighbor list builds = 0
Dangerous builds = 0
The dot product: -8.55230675713146e-08
Setting atom values ...
  1 settings made for x
  1 settings made for y
  1 settings made for z
Setting up cg style minimization ...
  Unit style    : metal
  Current step  : 5921
Per MPI rank memory allocation (min/avg/max) = 5.441 | 5.816 | 6.074 Mbytes
Step PotEng KinEng TotEng v_fx v_fy v_fz 
    5921   -1152448.8            0   -1152448.8 0.0029077015 -0.0055007811 0.0074961664 
    6000   -1152448.8            0   -1152448.8 -7.3883135e-05 0.00020930178 -0.0002608609 
    6075   -1152448.8            0   -1152448.8 -3.8546262e-06 -3.2035504e-06 6.8778051e-07 
Loop time of 1.76852 on 104 procs for 154 steps with 288751 atoms

99.9% CPU use with 104 MPI tasks x 1 OpenMP threads

Minimization stats:
  Stopping criterion = energy tolerance
  Energy initial, next-to-last, final = 
     -1152448.82511064  -1152448.82683452  -1152448.82683452
  Force two-norm initial, final = 0.17966488 0.00025216948
  Force max component initial, final = 0.14848768 1.6114276e-05
  Final line search alpha, max atom move = 1.0000000 1.6114276e-05
  Iterations, force evaluations = 154 308

MPI task timing breakdown:
Section |  min time  |  avg time  |  max time  |%varavg| %total
---------------------------------------------------------------
Pair    | 0.46549    | 1.2874     | 1.6771     |  30.6 | 72.79
Neigh   | 0          | 0          | 0          |   0.0 |  0.00
Comm    | 0.026396   | 0.28652    | 0.86622    |  45.4 | 16.20
Output  | 9.1912e-05 | 0.00010515 | 0.00020109 |   0.0 |  0.01
Modify  | 1.8259e-05 | 0.0025436  | 0.0054397  |   2.4 |  0.14
Other   |            | 0.192      |            |       | 10.85

Nlocal:        2776.45 ave        3941 max           0 min
Histogram: 8 4 4 0 4 12 8 0 28 36
Nghost:        3879.18 ave        5426 max         232 min
Histogram: 8 0 8 0 16 0 8 8 16 40
Neighs:        79213.6 ave      114792 max           0 min
Histogram: 8 4 4 0 10 6 8 8 22 34

Total # of neighbors = 8238217
Ave neighs/atom = 28.530523
Neighbor list builds = 0
Dangerous builds = 0
The dot product: -5.21035605181147e-09
Setting atom values ...
  1 settings made for x
  1 settings made for y
  1 settings made for z
Setting up cg style minimization ...
  Unit style    : metal
  Current step  : 6075
Per MPI rank memory allocation (min/avg/max) = 5.441 | 5.816 | 6.074 Mbytes
Step PotEng KinEng TotEng v_fx v_fy v_fz 
    6075   -1152448.8            0   -1152448.8 0.0035803438 -0.0071908341 0.0095555141 
    6264   -1152448.8            0   -1152448.8 -5.2312235e-06 1.9631373e-05 -2.310083e-05 
Loop time of 2.19229 on 104 procs for 189 steps with 288751 atoms

99.9% CPU use with 104 MPI tasks x 1 OpenMP threads

Minimization stats:
  Stopping criterion = energy tolerance
  Energy initial, next-to-last, final = 
      -1152448.7880333  -1152448.78965506  -1152448.78965506
  Force two-norm initial, final = 0.18021913 0.00013511704
  Force max component initial, final = 0.14951046 2.9871025e-05
  Final line search alpha, max atom move = 1.0000000 2.9871025e-05
  Iterations, force evaluations = 189 378

MPI task timing breakdown:
Section |  min time  |  avg time  |  max time  |%varavg| %total
---------------------------------------------------------------
Pair    | 0.5744     | 1.594      | 2.0745     |  34.1 | 72.71
Neigh   | 0          | 0          | 0          |   0.0 |  0.00
Comm    | 0.032758   | 0.36115    | 1.0834     |  49.8 | 16.47
Output  | 0          | 0          | 0          |   0.0 |  0.00
Modify  | 2.2139e-05 | 0.0031261  | 0.0067379  |   2.6 |  0.14
Other   |            | 0.234      |            |       | 10.67

Nlocal:        2776.45 ave        3942 max           0 min
Histogram: 8 4 4 0 4 12 8 0 28 36
Nghost:        3879.22 ave        5426 max         232 min
Histogram: 8 0 8 0 16 0 8 8 16 40
Neighs:        79213.6 ave      114836 max           0 min
Histogram: 8 4 4 0 10 6 8 8 22 34

Total # of neighbors = 8238213
Ave neighs/atom = 28.530509
Neighbor list builds = 0
Dangerous builds = 0
The dot product: 6.82075335990739e-08
Setting atom values ...
  1 settings made for x
  1 settings made for y
  1 settings made for z
Setting up cg style minimization ...
  Unit style    : metal
  Current step  : 6264
Per MPI rank memory allocation (min/avg/max) = 5.441 | 5.816 | 6.074 Mbytes
Step PotEng KinEng TotEng v_fx v_fy v_fz 
    6264   -1152448.7            0   -1152448.7  0.004564283 -0.010038032  0.012965354 
    6432   -1152448.8            0   -1152448.8 2.1479891e-05 -5.0021369e-05 6.3781569e-05 
Loop time of 1.93286 on 104 procs for 168 steps with 288751 atoms

99.9% CPU use with 104 MPI tasks x 1 OpenMP threads

Minimization stats:
  Stopping criterion = energy tolerance
  Energy initial, next-to-last, final = 
     -1152448.74983631  -1152448.75146761  -1152448.75146761
  Force two-norm initial, final = 0.18119919 0.00027079103
  Force max component initial, final = 0.15082682 6.3781569e-05
  Final line search alpha, max atom move = 1.0000000 6.3781569e-05
  Iterations, force evaluations = 168 336

MPI task timing breakdown:
Section |  min time  |  avg time  |  max time  |%varavg| %total
---------------------------------------------------------------
Pair    | 0.50776    | 1.4066     | 1.8334     |  32.0 | 72.77
Neigh   | 0          | 0          | 0          |   0.0 |  0.00
Comm    | 0.028502   | 0.3153     | 0.95184    |  47.1 | 16.31
Output  | 0          | 0          | 0          |   0.0 |  0.00
Modify  | 2.0072e-05 | 0.0027794  | 0.0059923  |   2.5 |  0.14
Other   |            | 0.2082     |            |       | 10.77

Nlocal:        2776.45 ave        3942 max           0 min
Histogram: 8 4 4 0 4 12 8 0 28 36
Nghost:        3879.24 ave        5426 max         232 min
Histogram: 8 0 8 0 16 0 8 8 16 40
Neighs:        79213.6 ave      114830 max           0 min
Histogram: 8 4 4 0 10 6 8 8 22 34

Total # of neighbors = 8238213
Ave neighs/atom = 28.530509
Neighbor list builds = 0
Dangerous builds = 0
The dot product: -1.08227671346473e-07
Setting atom values ...
  1 settings made for x
  1 settings made for y
  1 settings made for z
Setting up cg style minimization ...
  Unit style    : metal
  Current step  : 6432
Per MPI rank memory allocation (min/avg/max) = 5.441 | 5.816 | 6.074 Mbytes
Step PotEng KinEng TotEng v_fx v_fy v_fz 
    6432   -1152448.7            0   -1152448.7  0.005234526  -0.01296477  0.016249804 
    6600   -1152448.7            0   -1152448.7 -8.3017509e-06 2.4657471e-05 -2.9825705e-05 
Loop time of 1.94097 on 104 procs for 168 steps with 288751 atoms

99.9% CPU use with 104 MPI tasks x 1 OpenMP threads

Minimization stats:
  Stopping criterion = energy tolerance
  Energy initial, next-to-last, final = 
     -1152448.71072151  -1152448.71253002  -1152448.71253002
  Force two-norm initial, final = 0.18172456 0.0001532736
  Force max component initial, final = 0.1519679 3.0516552e-05
  Final line search alpha, max atom move = 1.0000000 3.0516552e-05
  Iterations, force evaluations = 168 336

MPI task timing breakdown:
Section |  min time  |  avg time  |  max time  |%varavg| %total
---------------------------------------------------------------
Pair    | 0.51328    | 1.4174     | 1.8411     |  32.0 | 73.03
Neigh   | 0          | 0          | 0          |   0.0 |  0.00
Comm    | 0.030826   | 0.31639    | 0.95456    |  47.5 | 16.30
Output  | 0          | 0          | 0          |   0.0 |  0.00
Modify  | 2.0394e-05 | 0.0027731  | 0.0059782  |   2.5 |  0.14
Other   |            | 0.2044     |            |       | 10.53

Nlocal:        2776.45 ave        3942 max           0 min
Histogram: 8 4 4 0 4 12 8 0 28 36
Nghost:        3879.28 ave        5426 max         232 min
Histogram: 8 0 8 0 16 0 8 8 16 40
Neighs:        79213.6 ave      114829 max           0 min
Histogram: 8 4 4 0 10 6 8 8 22 34

Total # of neighbors = 8238212
Ave neighs/atom = 28.530506
Neighbor list builds = 0
Dangerous builds = 0
The dot product: 3.43325046582132e-08
Setting atom values ...
  1 settings made for x
  1 settings made for y
  1 settings made for z
Setting up cg style minimization ...
  Unit style    : metal
  Current step  : 6600
Per MPI rank memory allocation (min/avg/max) = 5.441 | 5.816 | 6.074 Mbytes
Step PotEng KinEng TotEng v_fx v_fy v_fz 
    6600   -1152448.7            0   -1152448.7 0.0055896432 -0.014908868  0.018359986 
    6749   -1152448.7            0   -1152448.7 -1.1187093e-05 1.6335146e-05 -2.3422616e-05 
Loop time of 1.7259 on 104 procs for 149 steps with 288751 atoms

99.9% CPU use with 104 MPI tasks x 1 OpenMP threads

Minimization stats:
  Stopping criterion = energy tolerance
  Energy initial, next-to-last, final = 
     -1152448.67133162  -1152448.67308132  -1152448.67308132
  Force two-norm initial, final = 0.18049634 0.00016532509
  Force max component initial, final = 0.15188271 3.5044766e-05
  Final line search alpha, max atom move = 1.0000000 3.5044766e-05
  Iterations, force evaluations = 149 298

MPI task timing breakdown:
Section |  min time  |  avg time  |  max time  |%varavg| %total
---------------------------------------------------------------
Pair    | 0.45414    | 1.2496     | 1.626      |  30.1 | 72.40
Neigh   | 0          | 0          | 0          |   0.0 |  0.00
Comm    | 0.026392   | 0.27985    | 0.84324    |  44.5 | 16.21
Output  | 0          | 0          | 0          |   0.0 |  0.00
Modify  | 1.7436e-05 | 0.002465   | 0.0052711  |   2.3 |  0.14
Other   |            | 0.194      |            |       | 11.24

Nlocal:        2776.45 ave        3943 max           0 min
Histogram: 8 4 4 0 4 12 8 0 28 36
Nghost:        3879.26 ave        5426 max         232 min
Histogram: 8 0 8 0 16 0 8 8 16 40
Neighs:        79213.5 ave      114848 max           0 min
Histogram: 8 4 4 0 10 6 8 8 22 34

Total # of neighbors = 8238207
Ave neighs/atom = 28.530488
Neighbor list builds = 0
Dangerous builds = 0
The dot product: -1.29036757575467e-08
Setting atom values ...
  1 settings made for x
  1 settings made for y
  1 settings made for z
Setting up cg style minimization ...
  Unit style    : metal
  Current step  : 6749
Per MPI rank memory allocation (min/avg/max) = 5.441 | 5.816 | 6.074 Mbytes
Step PotEng KinEng TotEng v_fx v_fy v_fz 
    6749   -1152448.6            0   -1152448.6 0.0059508667 -0.017856711  0.021517726 
    6913   -1152448.6            0   -1152448.6 -1.1200665e-06 -8.201323e-06 7.3559547e-06 
Loop time of 1.8974 on 104 procs for 164 steps with 288751 atoms

99.9% CPU use with 104 MPI tasks x 1 OpenMP threads

Minimization stats:
  Stopping criterion = energy tolerance
  Energy initial, next-to-last, final = 
     -1152448.63158853  -1152448.63360658  -1152448.63360658
  Force two-norm initial, final = 0.17957203 0.00022268604
  Force max component initial, final = 0.15164351 2.5733127e-05
  Final line search alpha, max atom move = 1.0000000 2.5733127e-05
  Iterations, force evaluations = 164 328

MPI task timing breakdown:
Section |  min time  |  avg time  |  max time  |%varavg| %total
---------------------------------------------------------------
Pair    | 0.49652    | 1.3806     | 1.7839     |  31.6 | 72.76
Neigh   | 0          | 0          | 0          |   0.0 |  0.00
Comm    | 0.029762   | 0.31082    | 0.92534    |  46.2 | 16.38
Output  | 0          | 0          | 0          |   0.0 |  0.00
Modify  | 1.9565e-05 | 0.0027147  | 0.0058148  |   2.5 |  0.14
Other   |            | 0.2033     |            |       | 10.71

Nlocal:        2776.45 ave        3943 max           0 min
Histogram: 8 4 4 0 4 12 8 0 28 36
Nghost:        3879.26 ave        5426 max         232 min
Histogram: 8 0 8 0 16 0 8 8 16 40
Neighs:        79213.5 ave      114844 max           0 min
Histogram: 8 4 4 0 10 6 8 8 22 34

Total # of neighbors = 8238199
Ave neighs/atom = 28.530461
Neighbor list builds = 0
Dangerous builds = 0
The dot product: -9.57255833802423e-10
Setting atom values ...
  1 settings made for x
  1 settings made for y
  1 settings made for z
Setting up cg style minimization ...
  Unit style    : metal
  Current step  : 6913
Per MPI rank memory allocation (min/avg/max) = 5.441 | 5.816 | 6.074 Mbytes
Step PotEng KinEng TotEng v_fx v_fy v_fz 
    6913   -1152448.6            0   -1152448.6  0.009420565 -0.018883081  0.024849317 
    7000   -1152448.6            0   -1152448.6 4.7252862e-05 -9.722659e-05 0.00012711963 
    7118   -1152448.6            0   -1152448.6 9.4056837e-06 -2.4192898e-05 3.0079161e-05 
Loop time of 2.3926 on 104 procs for 205 steps with 288751 atoms

99.9% CPU use with 104 MPI tasks x 1 OpenMP threads

Minimization stats:
  Stopping criterion = energy tolerance
  Energy initial, next-to-last, final = 
     -1152448.59289692  -1152448.59507071  -1152448.59507071
  Force two-norm initial, final = 0.17785544 0.0001239029
  Force max component initial, final = 0.14909369 3.0079161e-05
  Final line search alpha, max atom move = 1.0000000 3.0079161e-05
  Iterations, force evaluations = 205 410

MPI task timing breakdown:
Section |  min time  |  avg time  |  max time  |%varavg| %total
---------------------------------------------------------------
Pair    | 0.62293    | 1.7265     | 2.2547     |  35.4 | 72.16
Neigh   | 0          | 0          | 0          |   0.0 |  0.00
Comm    | 0.037529   | 0.38876    | 1.1818     |  52.1 | 16.25
Output  | 0.00015234 | 0.00015453 | 0.00025531 |   0.0 |  0.01
Modify  | 2.521e-05  | 0.0033874  | 0.0072408  |   2.7 |  0.14
Other   |            | 0.2738     |            |       | 11.44

Nlocal:        2776.45 ave        3943 max           0 min
Histogram: 8 4 4 0 4 12 8 0 28 36
Nghost:        3879.26 ave        5426 max         232 min
Histogram: 8 0 8 0 16 0 8 8 16 40
Neighs:        79213.5 ave      114853 max           0 min
Histogram: 8 4 4 0 10 6 8 8 22 34

Total # of neighbors = 8238205
Ave neighs/atom = 28.530481
Neighbor list builds = 0
Dangerous builds = 0
The dot product: 1.2467216437318e-08
Setting atom values ...
  1 settings made for x
  1 settings made for y
  1 settings made for z
Setting up cg style minimization ...
  Unit style    : metal
  Current step  : 7118
Per MPI rank memory allocation (min/avg/max) = 5.441 | 5.816 | 6.074 Mbytes
Step PotEng KinEng TotEng v_fx v_fy v_fz 
    7118   -1152448.6            0   -1152448.6  0.011440529 -0.018625677  0.025965761 
    7463   -1152448.6            0   -1152448.6 -1.0208425e-07 2.4112258e-07 -3.0558287e-07 
Loop time of 3.99289 on 104 procs for 345 steps with 288751 atoms

99.9% CPU use with 104 MPI tasks x 1 OpenMP threads

Minimization stats:
  Stopping criterion = energy tolerance
  Energy initial, next-to-last, final = 
     -1152448.55619081  -1152448.56858007  -1152448.56858007
  Force two-norm initial, final = 0.18589272 2.5621893e-06
  Force max component initial, final = 0.14655592 3.0558287e-07
  Final line search alpha, max atom move = 1.0000000 3.0558287e-07
  Iterations, force evaluations = 345 690

MPI task timing breakdown:
Section |  min time  |  avg time  |  max time  |%varavg| %total
---------------------------------------------------------------
Pair    | 1.0457     | 2.9089     | 3.7687     |  46.1 | 72.85
Neigh   | 1.021e-05  | 0.0029564  | 0.0042917  |   2.2 |  0.07
Comm    | 0.060035   | 0.6571     | 1.966      |  67.6 | 16.46
Output  | 0          | 0          | 0          |   0.0 |  0.00
Modify  | 4.0354e-05 | 0.005698   | 0.012299   |   3.6 |  0.14
Other   |            | 0.4183     |            |       | 10.48

Nlocal:        2776.45 ave        3942 max           0 min
Histogram: 8 4 4 0 4 12 8 0 28 36
Nghost:        3879.25 ave        5426 max         232 min
Histogram: 8 0 8 0 16 0 8 8 16 40
Neighs:        79213.4 ave      114821 max           0 min
Histogram: 8 4 4 0 10 6 8 8 22 34

Total # of neighbors = 8238192
Ave neighs/atom = 28.530436
Neighbor list builds = 1
Dangerous builds = 0
The dot product: 5.71769801768842e-09
Setting atom values ...
  1 settings made for x
  1 settings made for y
  1 settings made for z
Setting up cg style minimization ...
  Unit style    : metal
  Current step  : 7463
Per MPI rank memory allocation (min/avg/max) = 5.441 | 5.816 | 6.074 Mbytes
Step PotEng KinEng TotEng v_fx v_fy v_fz 
    7463   -1152448.5            0   -1152448.5 0.0053257131 -0.014133047  0.016831332 
    7670   -1152448.5            0   -1152448.5 -1.9667382e-05 4.4343388e-05 -5.4718078e-05 
[...]
Histogram: 8 0 8 0 16 0 8 8 16 40
Neighs:        79213.5 ave      115056 max           0 min
Histogram: 8 4 4 0 10 6 8 8 24 32

Total # of neighbors = 8238201
Ave neighs/atom = 28.530467
Neighbor list builds = 0
Dangerous builds = 0
The dot product: 2.67312016760484e-09
Setting atom values ...
  1 settings made for x
  1 settings made for y
  1 settings made for z
Setting up cg style minimization ...
  Unit style    : metal
  Current step  : 26822
Per MPI rank memory allocation (min/avg/max) = 5.441 | 5.816 | 6.074 Mbytes
Step PotEng KinEng TotEng v_fx v_fy v_fz 
   26822   -1152449.4            0   -1152449.4  0.024454167  0.018786196 -0.040586479 
   27000   -1152449.4            0   -1152449.4 1.7524228e-05 2.217729e-05 -3.9849031e-05 
   27010   -1152449.4            0   -1152449.4 8.7186051e-06 1.210961e-05 -2.1154638e-05 
Loop time of 2.16859 on 104 procs for 188 steps with 288751 atoms

99.9% CPU use with 104 MPI tasks x 1 OpenMP threads

Minimization stats:
  Stopping criterion = energy tolerance
  Energy initial, next-to-last, final = 
     -1152449.42823187  -1152449.42963619  -1152449.42963619
  Force two-norm initial, final = 0.17114376 0.00012341879
  Force max component initial, final = 0.073583036 2.5205101e-05
  Final line search alpha, max atom move = 1.0000000 2.5205101e-05
  Iterations, force evaluations = 188 376

MPI task timing breakdown:
Section |  min time  |  avg time  |  max time  |%varavg| %total
---------------------------------------------------------------
Pair    | 0.56939    | 1.5786     | 2.056      |  34.0 | 72.79
Neigh   | 0          | 0          | 0          |   0.0 |  0.00
Comm    | 0.034338   | 0.3537     | 1.0665     |  50.5 | 16.31
Output  | 9.768e-05  | 0.0001061  | 0.00027951 |   0.0 |  0.00
Modify  | 2.1604e-05 | 0.0031001  | 0.006621   |   2.6 |  0.14
Other   |            | 0.2331     |            |       | 10.75

Nlocal:        2776.45 ave        3947 max           0 min
Histogram: 8 4 4 0 4 12 8 0 28 36
Nghost:        3878.66 ave        5427 max         232 min
Histogram: 8 0 8 0 16 0 8 8 16 40
Neighs:        79213.5 ave      115055 max           0 min
Histogram: 8 4 4 0 10 6 8 8 24 32

Total # of neighbors = 8238205
Ave neighs/atom = 28.530481
Neighbor list builds = 0
Dangerous builds = 0
The dot product: 8.36799594882293e-08
Setting atom values ...
  1 settings made for x
  1 settings made for y
  1 settings made for z
Setting up cg style minimization ...
  Unit style    : metal
  Current step  : 27010
Per MPI rank memory allocation (min/avg/max) = 5.441 | 5.816 | 6.074 Mbytes
Step PotEng KinEng TotEng v_fx v_fy v_fz 
   27010   -1152449.4            0   -1152449.4  0.027704675  0.015111733 -0.038443921 
   27199   -1152449.4            0   -1152449.4 -1.6200941e-05 -7.3042961e-06 2.0583149e-05 
Loop time of 2.18646 on 104 procs for 189 steps with 288751 atoms

99.9% CPU use with 104 MPI tasks x 1 OpenMP threads

Minimization stats:
  Stopping criterion = energy tolerance
  Energy initial, next-to-last, final = 
     -1152449.42121278  -1152449.42256326  -1152449.42256326
  Force two-norm initial, final = 0.16845927 0.00011359259
  Force max component initial, final = 0.07281687 2.0583149e-05
  Final line search alpha, max atom move = 1.0000000 2.0583149e-05
  Iterations, force evaluations = 189 378

MPI task timing breakdown:
Section |  min time  |  avg time  |  max time  |%varavg| %total
---------------------------------------------------------------
Pair    | 0.57084    | 1.5858     | 2.0682     |  33.9 | 72.53
Neigh   | 0          | 0          | 0          |   0.0 |  0.00
Comm    | 0.032612   | 0.35636    | 1.0755     |  50.3 | 16.30
Output  | 0          | 0          | 0          |   0.0 |  0.00
Modify  | 2.1602e-05 | 0.0031198  | 0.006687   |   2.6 |  0.14
Other   |            | 0.2412     |            |       | 11.03

Nlocal:        2776.45 ave        3945 max           0 min
Histogram: 8 4 4 0 4 12 8 0 27 37
Nghost:        3878.66 ave        5427 max         232 min
Histogram: 8 0 8 0 16 0 8 8 16 40
Neighs:        79213.5 ave      115003 max           0 min
Histogram: 8 4 4 0 10 6 8 8 24 32

Total # of neighbors = 8238205
Ave neighs/atom = 28.530481
Neighbor list builds = 0
Dangerous builds = 0
The dot product: -7.63861583733414e-08
Setting atom values ...
  1 settings made for x
  1 settings made for y
  1 settings made for z
Setting up cg style minimization ...
  Unit style    : metal
  Current step  : 27199
Per MPI rank memory allocation (min/avg/max) = 5.441 | 5.816 | 6.074 Mbytes
Step PotEng KinEng TotEng v_fx v_fy v_fz 
   27199   -1152449.4            0   -1152449.4  0.031808039  0.010457347 -0.035681043 
   27376   -1152449.4            0   -1152449.4 3.1216928e-06 -1.5900629e-05 1.7504884e-05 
Loop time of 2.04137 on 104 procs for 177 steps with 288751 atoms

99.9% CPU use with 104 MPI tasks x 1 OpenMP threads

Minimization stats:
  Stopping criterion = energy tolerance
  Energy initial, next-to-last, final = 
     -1152449.41265606  -1152449.41395091  -1152449.41395091
  Force two-norm initial, final = 0.1660165 0.00016540327
  Force max component initial, final = 0.071963166 1.8196747e-05
  Final line search alpha, max atom move = 1.0000000 1.8196747e-05
  Iterations, force evaluations = 177 354

MPI task timing breakdown:
Section |  min time  |  avg time  |  max time  |%varavg| %total
---------------------------------------------------------------
Pair    | 0.53718    | 1.4864     | 1.9358     |  33.0 | 72.81
Neigh   | 0          | 0          | 0          |   0.0 |  0.00
Comm    | 0.031617   | 0.33423    | 1.0173     |  49.2 | 16.37
Output  | 0          | 0          | 0          |   0.0 |  0.00
Modify  | 2.0135e-05 | 0.0029179  | 0.0062544  |   2.6 |  0.14
Other   |            | 0.2178     |            |       | 10.67

Nlocal:        2776.45 ave        3945 max           0 min
Histogram: 8 4 4 0 4 12 8 0 27 37
Nghost:        3878.66 ave        5427 max         232 min
Histogram: 8 0 8 0 16 0 8 8 16 40
Neighs:        79213.5 ave      115016 max           0 min
Histogram: 8 4 4 0 10 6 8 8 24 32

Total # of neighbors = 8238207
Ave neighs/atom = 28.530488
Neighbor list builds = 0
Dangerous builds = 0
The dot product: -5.21876068764778e-08
Setting atom values ...
  1 settings made for x
  1 settings made for y
  1 settings made for z
Setting up cg style minimization ...
  Unit style    : metal
  Current step  : 27376
Per MPI rank memory allocation (min/avg/max) = 5.441 | 5.816 | 6.074 Mbytes
Step PotEng KinEng TotEng v_fx v_fy v_fz 
   27376   -1152449.4            0   -1152449.4  0.038105584 0.0033962927 -0.031490229 
   27515   -1152449.4            0   -1152449.4 -9.475147e-06 -2.1917132e-05 3.4030019e-05 
Loop time of 1.61798 on 104 procs for 139 steps with 288751 atoms

99.9% CPU use with 104 MPI tasks x 1 OpenMP threads

Minimization stats:
  Stopping criterion = energy tolerance
  Energy initial, next-to-last, final = 
     -1152449.40272968  -1152449.40398848  -1152449.40398848
  Force two-norm initial, final = 0.16484768 0.00029772874
  Force max component initial, final = 0.071625815 4.7151732e-05
  Final line search alpha, max atom move = 1.0000000 4.7151732e-05
  Iterations, force evaluations = 139 278

MPI task timing breakdown:
Section |  min time  |  avg time  |  max time  |%varavg| %total
---------------------------------------------------------------
Pair    | 0.42025    | 1.1661     | 1.5239     |  29.2 | 72.07
Neigh   | 0          | 0          | 0          |   0.0 |  0.00
Comm    | 0.025156   | 0.26446    | 0.79159    |  42.8 | 16.34
Output  | 0          | 0          | 0          |   0.0 |  0.00
Modify  | 1.5717e-05 | 0.002292   | 0.0049431  |   2.3 |  0.14
Other   |            | 0.1851     |            |       | 11.44

Nlocal:        2776.45 ave        3945 max           0 min
Histogram: 8 4 4 0 4 12 8 0 26 38
Nghost:        3878.68 ave        5427 max         232 min
Histogram: 8 0 8 0 16 0 8 8 16 40
Neighs:        79213.5 ave      115013 max           0 min
Histogram: 8 4 4 0 10 6 8 8 24 32

Total # of neighbors = 8238204
Ave neighs/atom = 28.530478
Neighbor list builds = 0
Dangerous builds = 0
The dot product: -8.8748741460261e-08
Setting atom values ...
  1 settings made for x
  1 settings made for y
  1 settings made for z
Setting up cg style minimization ...
  Unit style    : metal
  Current step  : 27515
Per MPI rank memory allocation (min/avg/max) = 5.441 | 5.816 | 6.074 Mbytes
Step PotEng KinEng TotEng v_fx v_fy v_fz 
   27515   -1152449.4            0   -1152449.4  0.045811468 -0.0052164529 -0.026409939 
   27639   -1152449.4            0   -1152449.4 1.030314e-05 -5.5902943e-06 -4.4240101e-07 
Loop time of 1.43048 on 104 procs for 124 steps with 288751 atoms

99.9% CPU use with 104 MPI tasks x 1 OpenMP threads

Minimization stats:
  Stopping criterion = energy tolerance
  Energy initial, next-to-last, final = 
     -1152449.39184234  -1152449.39331021  -1152449.39331021
  Force two-norm initial, final = 0.1672179 9.2374498e-05
  Force max component initial, final = 0.071412098 1.0303140e-05
  Final line search alpha, max atom move = 1.0000000 1.0303140e-05
  Iterations, force evaluations = 124 248

MPI task timing breakdown:
Section |  min time  |  avg time  |  max time  |%varavg| %total
---------------------------------------------------------------
Pair    | 0.37521    | 1.0413     | 1.3551     |  27.7 | 72.79
Neigh   | 0          | 0          | 0          |   0.0 |  0.00
Comm    | 0.021772   | 0.2345     | 0.7052     |  40.8 | 16.39
Output  | 0          | 0          | 0          |   0.0 |  0.00
Modify  | 1.3987e-05 | 0.0020465  | 0.0043982  |   2.1 |  0.14
Other   |            | 0.1526     |            |       | 10.67

Nlocal:        2776.45 ave        3945 max           0 min
Histogram: 8 4 4 0 4 12 8 0 26 38
Nghost:        3878.70 ave        5427 max         232 min
Histogram: 8 0 8 0 16 0 8 8 16 40
Neighs:        79213.5 ave      115015 max           0 min
Histogram: 8 4 4 0 10 6 8 8 24 32

Total # of neighbors = 8238204
Ave neighs/atom = 28.530478
Neighbor list builds = 0
Dangerous builds = 0
The dot product: 1.11688068834066e-07
Setting atom values ...
  1 settings made for x
  1 settings made for y
  1 settings made for z
Setting up cg style minimization ...
  Unit style    : metal
  Current step  : 27639
Per MPI rank memory allocation (min/avg/max) = 5.441 | 5.816 | 6.074 Mbytes
Step PotEng KinEng TotEng v_fx v_fy v_fz 
   27639   -1152449.4            0   -1152449.4   0.05335454 -0.013207528  -0.02218864 
   27854   -1152449.4            0   -1152449.4 -6.4268855e-06 -1.5665914e-06 6.5964381e-06 
Loop time of 2.51758 on 104 procs for 215 steps with 288751 atoms

99.9% CPU use with 104 MPI tasks x 1 OpenMP threads

Minimization stats:
  Stopping criterion = energy tolerance
  Energy initial, next-to-last, final = 
     -1152449.38125864  -1152449.38324845  -1152449.38324845
  Force two-norm initial, final = 0.17127349 4.1035215e-05
  Force max component initial, final = 0.070113803 7.0103252e-06
  Final line search alpha, max atom move = 1.0000000 7.0103252e-06
  Iterations, force evaluations = 215 430

MPI task timing breakdown:
Section |  min time  |  avg time  |  max time  |%varavg| %total
---------------------------------------------------------------
Pair    | 0.65108    | 1.8066     | 2.3535     |  36.4 | 71.76
Neigh   | 0          | 0          | 0          |   0.0 |  0.00
Comm    | 0.038111   | 0.41302    | 1.2368     |  53.2 | 16.41
Output  | 0          | 0          | 0          |   0.0 |  0.00
Modify  | 2.5125e-05 | 0.0035375  | 0.0075653  |   2.8 |  0.14
Other   |            | 0.2944     |            |       | 11.70

Nlocal:        2776.45 ave        3945 max           0 min
Histogram: 8 4 4 0 4 12 8 0 26 38
Nghost:        3878.70 ave        5427 max         232 min
Histogram: 8 0 8 0 16 0 8 8 16 40
Neighs:        79213.5 ave      115017 max           0 min
Histogram: 8 4 4 0 10 6 8 8 24 32

Total # of neighbors = 8238207
Ave neighs/atom = 28.530488
Neighbor list builds = 0
Dangerous builds = 0
The dot product: -8.22203575408033e-08
Setting atom values ...
  1 settings made for x
  1 settings made for y
  1 settings made for z
Setting up cg style minimization ...
  Unit style    : metal
  Current step  : 27854
Per MPI rank memory allocation (min/avg/max) = 5.441 | 5.816 | 6.074 Mbytes
Step PotEng KinEng TotEng v_fx v_fy v_fz 
   27854   -1152449.4            0   -1152449.4  0.052918344 -0.013495808 -0.022042334 
   27963   -1152449.4            0   -1152449.4 1.4199646e-05 -2.1686084e-05 1.6440068e-05 
Loop time of 1.26443 on 104 procs for 109 steps with 288751 atoms

99.9% CPU use with 104 MPI tasks x 1 OpenMP threads

Minimization stats:
  Stopping criterion = energy tolerance
  Energy initial, next-to-last, final = 
     -1152449.37208484  -1152449.37373285  -1152449.37373285
  Force two-norm initial, final = 0.16740586 9.5188704e-05
  Force max component initial, final = 0.070094931 2.1686084e-05
  Final line search alpha, max atom move = 1.0000000 2.1686084e-05
  Iterations, force evaluations = 109 218

MPI task timing breakdown:
Section |  min time  |  avg time  |  max time  |%varavg| %total
---------------------------------------------------------------
Pair    | 0.32997    | 0.92017    | 1.1924     |  25.8 | 72.77
Neigh   | 0          | 0          | 0          |   0.0 |  0.00
Comm    | 0.019772   | 0.20766    | 0.63368    |  38.4 | 16.42
Output  | 0          | 0          | 0          |   0.0 |  0.00
Modify  | 1.2115e-05 | 0.0017973  | 0.0038627  |   2.0 |  0.14
Other   |            | 0.1348     |            |       | 10.66

Nlocal:        2776.45 ave        3945 max           0 min
Histogram: 8 4 4 0 4 12 8 0 26 38
Nghost:        3878.68 ave        5427 max         232 min
Histogram: 8 0 8 0 16 0 8 8 16 40
Neighs:        79213.5 ave      115015 max           0 min
Histogram: 8 4 4 0 10 6 8 8 24 32

Total # of neighbors = 8238205
Ave neighs/atom = 28.530481
Neighbor list builds = 0
Dangerous builds = 0
The dot product: 2.77643629731259e-07
Setting atom values ...
  1 settings made for x
  1 settings made for y
  1 settings made for z
Setting up cg style minimization ...
  Unit style    : metal
  Current step  : 27963
Per MPI rank memory allocation (min/avg/max) = 5.441 | 5.816 | 6.074 Mbytes
Step PotEng KinEng TotEng v_fx v_fy v_fz 
   27963   -1152449.4            0   -1152449.4  0.050162762 -0.011967114 -0.022271066 
   28000   -1152449.4            0   -1152449.4 8.3681491e-05 -6.1333166e-05 1.390795e-05 
   28064   -1152449.4            0   -1152449.4 1.7777599e-05 -2.0785861e-05 1.2527535e-05 
Loop time of 1.16825 on 104 procs for 101 steps with 288751 atoms

99.9% CPU use with 104 MPI tasks x 1 OpenMP threads

Minimization stats:
  Stopping criterion = energy tolerance
  Energy initial, next-to-last, final = 
     -1152449.36268387  -1152449.36412833  -1152449.36412833
  Force two-norm initial, final = 0.16304818 0.00011050952
  Force max component initial, final = 0.069791078 2.0785861e-05
  Final line search alpha, max atom move = 1.0000000 2.0785861e-05
  Iterations, force evaluations = 101 202

MPI task timing breakdown:
Section |  min time  |  avg time  |  max time  |%varavg| %total
---------------------------------------------------------------
Pair    | 0.30699    | 0.84928    | 1.1073     |  24.9 | 72.70
Neigh   | 0          | 0          | 0          |   0.0 |  0.00
Comm    | 0.01866    | 0.19156    | 0.57985    |  36.8 | 16.40
Output  | 9.3204e-05 | 0.00010036 | 0.00021598 |   0.0 |  0.01
Modify  | 1.1995e-05 | 0.0016664  | 0.0035673  |   1.9 |  0.14
Other   |            | 0.1256     |            |       | 10.75

Nlocal:        2776.45 ave        3945 max           0 min
Histogram: 8 4 4 0 4 12 8 0 26 38
Nghost:        3878.68 ave        5427 max         232 min
Histogram: 8 0 8 0 16 0 8 8 16 40
Neighs:        79213.5 ave      115015 max           0 min
Histogram: 8 4 4 0 10 6 8 8 24 32

Total # of neighbors = 8238206
Ave neighs/atom = 28.530485
Neighbor list builds = 0
Dangerous builds = 0
The dot product: 2.22080725878875e-07
Setting atom values ...
  1 settings made for x
  1 settings made for y
  1 settings made for z
Setting up cg style minimization ...
  Unit style    : metal
  Current step  : 28064
Per MPI rank memory allocation (min/avg/max) = 5.441 | 5.816 | 6.074 Mbytes
Step PotEng KinEng TotEng v_fx v_fy v_fz 
   28064   -1152449.4            0   -1152449.4    0.0487325 -0.011714663 -0.021784913 
   28342   -1152449.4            0   -1152449.4 -7.1016422e-08 1.0873961e-07 -8.1215016e-08 
Loop time of 3.20422 on 104 procs for 278 steps with 288751 atoms

99.9% CPU use with 104 MPI tasks x 1 OpenMP threads

Minimization stats:
  Stopping criterion = energy tolerance
  Energy initial, next-to-last, final = 
     -1152449.35275725  -1152449.35413268  -1152449.35413268
  Force two-norm initial, final = 0.1601276 1.0298474e-06
  Force max component initial, final = 0.069235331 1.3473563e-07
  Final line search alpha, max atom move = 1.0000000 1.3473563e-07
  Iterations, force evaluations = 278 556

MPI task timing breakdown:
Section |  min time  |  avg time  |  max time  |%varavg| %total
---------------------------------------------------------------
Pair    | 0.83879    | 2.3341     | 3.0386     |  41.5 | 72.84
Neigh   | 0          | 0          | 0          |   0.0 |  0.00
Comm    | 0.050916   | 0.52527    | 1.5797     |  61.2 | 16.39
Output  | 0          | 0          | 0          |   0.0 |  0.00
Modify  | 3.0318e-05 | 0.0045697  | 0.0097919  |   3.2 |  0.14
Other   |            | 0.3403     |            |       | 10.62

Nlocal:        2776.45 ave        3945 max           0 min
Histogram: 8 4 4 0 4 12 8 0 26 38
Nghost:        3878.68 ave        5427 max         232 min
Histogram: 8 0 8 0 16 0 8 8 16 40
Neighs:        79213.5 ave      115013 max           0 min
Histogram: 8 4 4 0 10 6 8 8 24 32

Total # of neighbors = 8238203
Ave neighs/atom = 28.530474
Neighbor list builds = 0
Dangerous builds = 0
The dot product: -8.33102307091363e-10
Setting atom values ...
  1 settings made for x
  1 settings made for y
  1 settings made for z
Setting up cg style minimization ...
  Unit style    : metal
  Current step  : 28342
Per MPI rank memory allocation (min/avg/max) = 5.441 | 5.816 | 6.074 Mbytes
Step PotEng KinEng TotEng v_fx v_fy v_fz 
   28342   -1152449.3            0   -1152449.3  0.048951648 -0.013382671 -0.020120777 
   28501   -1152449.3            0   -1152449.3 -1.2436588e-05 -2.2269325e-06 1.2036951e-05 
Loop time of 1.84332 on 104 procs for 159 steps with 288751 atoms

99.9% CPU use with 104 MPI tasks x 1 OpenMP threads

Minimization stats:
  Stopping criterion = energy tolerance
  Energy initial, next-to-last, final = 
     -1152449.34233565  -1152449.34372439  -1152449.34372439
  Force two-norm initial, final = 0.15854726 7.0564192e-05
  Force max component initial, final = 0.068553383 1.3866209e-05
  Final line search alpha, max atom move = 1.0000000 1.3866209e-05
  Iterations, force evaluations = 159 318

MPI task timing breakdown:
Section |  min time  |  avg time  |  max time  |%varavg| %total
---------------------------------------------------------------
Pair    | 0.48147    | 1.3334     | 1.7413     |  31.2 | 72.34
Neigh   | 0          | 0          | 0          |   0.0 |  0.00
Comm    | 0.028032   | 0.30177    | 0.90465    |  45.8 | 16.37
Output  | 0          | 0          | 0          |   0.0 |  0.00
Modify  | 1.8172e-05 | 0.002619   | 0.0056179  |   2.4 |  0.14
Other   |            | 0.2055     |            |       | 11.15

Nlocal:        2776.45 ave        3945 max           0 min
Histogram: 8 4 4 0 4 12 8 0 26 38
Nghost:        3878.70 ave        5427 max         232 min
Histogram: 8 0 8 0 16 0 8 8 16 40
Neighs:        79213.5 ave      115013 max           0 min
Histogram: 8 4 4 0 10 6 8 8 24 32

Total # of neighbors = 8238204
Ave neighs/atom = 28.530478
Neighbor list builds = 0
Dangerous builds = 0
The dot product: -8.66617708228319e-08
