LAMMPS (29 Oct 2020)
OMP_NUM_THREADS environment is not set. Defaulting to 1 thread. (../comm.cpp:94)
  using 1 OpenMP thread(s) per MPI task
OMP_NUM_THREADS environment is not set. Defaulting to 1 thread. (../comm.cpp:94)
  using 1 OpenMP thread(s) per MPI task
Reading data file ...
  orthogonal box = (-122.39241 -121.13707 -37.090501) to (122.39241 121.13707 37.090501)
  13 by 4 by 2 MPI processor grid
  reading atoms ...
  288751 atoms
  read_data CPU = 0.369 seconds
199981 atoms in group inner
88770 atoms in group outer
1 atoms in group carbon
Neighbor list info ...
  update every 1 steps, delay 0 steps, check yes
  max neighbors/atom: 2000, page size: 100000
  master list distance cutoff = 5.6
  ghost atom cutoff = 5.6
  binsize = 2.8, bins = 88 87 27
  1 neighbor lists, perpetual/occasional/extra = 1 0 0
  (1) pair eam/alloy, perpetual
      attributes: half, newton on
      pair build: half/bin/atomonly/newton
      stencil: half/bin/3d/newton
      bin: standard
Setting up cg style minimization ...
  Unit style    : metal
  Current step  : 0
Per MPI rank memory allocation (min/avg/max) = 5.441 | 5.816 | 6.074 Mbytes
Step v_fx v_fy v_fz PotEng KinEng TotEng 
       0   0.20449552   0.65209998  -0.61032476   -1152447.8            0   -1152447.8 
     169 -4.4707674e-06 1.0910604e-05 2.5914883e-06   -1152449.5            0   -1152449.5 
Loop time of 2.02287 on 104 procs for 169 steps with 288751 atoms

99.8% CPU use with 104 MPI tasks x 1 OpenMP threads

Minimization stats:
  Stopping criterion = energy tolerance
  Energy initial, next-to-last, final = 
     -1152447.84041673  -1152449.45035271  -1152449.45035271
  Force two-norm initial, final = 9.8465003 6.5913427e-05
  Force max component initial, final = 4.6667073 1.0910604e-05
  Final line search alpha, max atom move = 1.0000000 1.0910604e-05
  Iterations, force evaluations = 169 337

MPI task timing breakdown:
Section |  min time  |  avg time  |  max time  |%varavg| %total
---------------------------------------------------------------
Pair    | 0.52837    | 1.4245     | 1.869      |  31.8 | 70.42
Neigh   | 2.1162e-05 | 0.0058539  | 0.0084767  |   3.2 |  0.29
Comm    | 0.034598   | 0.3271     | 0.9677     |  46.2 | 16.17
Output  | 0          | 0          | 0          |   0.0 |  0.00
Modify  | 1.9186e-05 | 0.0018247  | 0.0046387  |   2.7 |  0.09
Other   |            | 0.2636     |            |       | 13.03

Nlocal:        2776.45 ave        3960 max           0 min
Histogram: 8 4 4 0 4 12 8 2 28 34
Nghost:        3879.05 ave        5424 max         232 min
Histogram: 8 0 8 0 16 0 8 8 16 40
Neighs:        79213.7 ave      115436 max           0 min
Histogram: 8 4 4 0 10 6 8 8 24 32

Total # of neighbors = 8238223
Ave neighs/atom = 28.530544
Neighbor list builds = 2
Dangerous builds = 0
Setting atom values ...
  1 settings made for x
  1 settings made for y
  1 settings made for z
Setting up cg style minimization ...
  Unit style    : metal
  Current step  : 169
Per MPI rank memory allocation (min/avg/max) = 5.441 | 5.816 | 6.074 Mbytes
Step PotEng KinEng TotEng v_fx v_fy v_fz 
     169   -1152449.4            0   -1152449.4  0.053578151 0.0011906617  0.058662882 
     365   -1152449.4            0   -1152449.4 1.4177375e-05 9.9584366e-06 1.6886195e-05 
Loop time of 2.3917 on 104 procs for 196 steps with 288751 atoms

99.9% CPU use with 104 MPI tasks x 1 OpenMP threads

Minimization stats:
  Stopping criterion = energy tolerance
  Energy initial, next-to-last, final = 
     -1152449.44617877  -1152449.44885963  -1152449.44885963
  Force two-norm initial, final = 0.23814803 0.00013460439
  Force max component initial, final = 0.096565427 1.8964313e-05
  Final line search alpha, max atom move = 1.0000000 1.8964313e-05
  Iterations, force evaluations = 196 392

MPI task timing breakdown:
Section |  min time  |  avg time  |  max time  |%varavg| %total
---------------------------------------------------------------
Pair    | 0.60174    | 1.6644     | 2.2052     |  34.5 | 69.59
Neigh   | 0          | 0          | 0          |   0.0 |  0.00
Comm    | 0.042855   | 0.38617    | 1.1335     |  50.2 | 16.15
Output  | 0          | 0          | 0          |   0.0 |  0.00
Modify  | 2.4954e-05 | 0.0032575  | 0.0069012  |   2.7 |  0.14
Other   |            | 0.3378     |            |       | 14.13

Nlocal:        2776.45 ave        3961 max           0 min
Histogram: 8 4 4 0 6 10 8 2 28 34
Nghost:        3879.01 ave        5424 max         232 min
Histogram: 8 0 8 0 16 0 8 8 16 40
Neighs:        79213.4 ave      115458 max           0 min
Histogram: 8 4 4 0 10 6 8 8 24 32

Total # of neighbors = 8238198
Ave neighs/atom = 28.530457
Neighbor list builds = 0
Dangerous builds = 0
Setting atom values ...
  1 settings made for x
  1 settings made for y
  1 settings made for z
Setting up cg style minimization ...
  Unit style    : metal
  Current step  : 365
Per MPI rank memory allocation (min/avg/max) = 5.441 | 5.816 | 6.074 Mbytes
Step PotEng KinEng TotEng v_fx v_fy v_fz 
     365   -1152449.4            0   -1152449.4  0.048866977 0.0059040478  0.080359036 
     555   -1152449.4            0   -1152449.4 1.7087353e-05 -4.1089278e-05 2.6037364e-05 
Loop time of 2.24693 on 104 procs for 190 steps with 288751 atoms

99.9% CPU use with 104 MPI tasks x 1 OpenMP threads

Minimization stats:
  Stopping criterion = energy tolerance
  Energy initial, next-to-last, final = 
     -1152449.44055647  -1152449.44388138  -1152449.44388138
  Force two-norm initial, final = 0.26054564 0.00014122103
  Force max component initial, final = 0.10481478 4.1089278e-05
  Final line search alpha, max atom move = 1.0000000 4.1089278e-05
  Iterations, force evaluations = 190 380

MPI task timing breakdown:
Section |  min time  |  avg time  |  max time  |%varavg| %total
---------------------------------------------------------------
Pair    | 0.58005    | 1.5993     | 2.1046     |  34.1 | 71.18
Neigh   | 0          | 0          | 0          |   0.0 |  0.00
Comm    | 0.040481   | 0.36366    | 1.0812     |  49.6 | 16.18
Output  | 0          | 0          | 0          |   0.0 |  0.00
Modify  | 2.2743e-05 | 0.0031501  | 0.0066518  |   2.6 |  0.14
Other   |            | 0.2808     |            |       | 12.50

Nlocal:        2776.45 ave        3961 max           0 min
Histogram: 8 4 4 0 6 10 8 2 28 34
Nghost:        3879.05 ave        5429 max         232 min
Histogram: 8 0 8 0 16 0 8 8 16 40
Neighs:        79213.5 ave      115446 max           0 min
Histogram: 8 4 4 0 10 6 8 8 24 32

Total # of neighbors = 8238199
Ave neighs/atom = 28.530461
Neighbor list builds = 0
Dangerous builds = 0
The dot product: 7.58419538230219e-06
The cos of the angle between the force vector and the displacement vector: 0.147099617138957
The angle: 81.5411176647748
Setting atom values ...
  1 settings made for x
  1 settings made for y
  1 settings made for z
Setting up cg style minimization ...
  Unit style    : metal
  Current step  : 555
Per MPI rank memory allocation (min/avg/max) = 5.441 | 5.816 | 6.074 Mbytes
Step PotEng KinEng TotEng v_fx v_fy v_fz 
     555   -1152449.4            0   -1152449.4  0.029520114  0.017379515  0.071786781 
     700   -1152449.4            0   -1152449.4 -5.9070065e-06 4.3710604e-06 -1.5105656e-05 
Loop time of 1.71536 on 104 procs for 145 steps with 288751 atoms

99.9% CPU use with 104 MPI tasks x 1 OpenMP threads

Minimization stats:
  Stopping criterion = energy tolerance
  Energy initial, next-to-last, final = 
     -1152449.43254693  -1152449.43568654  -1152449.43568654
  Force two-norm initial, final = 0.24659616 7.9509355e-05
  Force max component initial, final = 0.096383512 1.5105656e-05
  Final line search alpha, max atom move = 1.0000000 1.5105656e-05
  Iterations, force evaluations = 145 290

MPI task timing breakdown:
Section |  min time  |  avg time  |  max time  |%varavg| %total
---------------------------------------------------------------
Pair    | 0.44409    | 1.2278     | 1.6046     |  29.7 | 71.58
Neigh   | 0          | 0          | 0          |   0.0 |  0.00
Comm    | 0.031967   | 0.27656    | 0.82794    |  44.2 | 16.12
Output  | 0          | 0          | 0          |   0.0 |  0.00
Modify  | 1.7209e-05 | 0.0024071  | 0.0050998  |   2.3 |  0.14
Other   |            | 0.2086     |            |       | 12.16

Nlocal:        2776.45 ave        3960 max           0 min
Histogram: 8 4 4 0 4 12 8 3 27 34
Nghost:        3879.09 ave        5425 max         232 min
Histogram: 8 0 8 0 16 0 8 8 16 40
Neighs:        79213.5 ave      115423 max           0 min
Histogram: 8 4 4 0 10 6 8 8 24 32

Total # of neighbors = 8238203
Ave neighs/atom = 28.530474
Neighbor list builds = 0
Dangerous builds = 0
The dot product: -2.10859295029006e-06
The cos of the angle between the force vector and the displacement vector: -0.125524884923692
The angle: 97.2110682243434
Setting atom values ...
  1 settings made for x
  1 settings made for y
  1 settings made for z
Setting up cg style minimization ...
  Unit style    : metal
  Current step  : 700
Per MPI rank memory allocation (min/avg/max) = 5.441 | 5.816 | 6.074 Mbytes
Step PotEng KinEng TotEng v_fx v_fy v_fz 
     700   -1152449.4            0   -1152449.4  0.015214406  0.031960046   0.04751161 
     816   -1152449.4            0   -1152449.4 2.5405809e-05 -1.85592e-05 9.9980603e-05 
Loop time of 1.3746 on 104 procs for 116 steps with 288751 atoms

99.9% CPU use with 104 MPI tasks x 1 OpenMP threads

Minimization stats:
  Stopping criterion = energy tolerance
  Energy initial, next-to-last, final = 
     -1152449.42125393  -1152449.42422125  -1152449.42422125
  Force two-norm initial, final = 0.23822479 0.00029002321
  Force max component initial, final = 0.095064386 9.9980603e-05
  Final line search alpha, max atom move = 1.0000000 9.9980603e-05
  Iterations, force evaluations = 116 232

MPI task timing breakdown:
Section |  min time  |  avg time  |  max time  |%varavg| %total
---------------------------------------------------------------
Pair    | 0.35997    | 0.9783     | 1.2812     |  26.4 | 71.17
Neigh   | 0          | 0          | 0          |   0.0 |  0.00
Comm    | 0.02264    | 0.22192    | 0.6584     |  38.7 | 16.14
Output  | 0          | 0          | 0          |   0.0 |  0.00
Modify  | 1.419e-05  | 0.001916   | 0.004061   |   2.1 |  0.14
Other   |            | 0.1725     |            |       | 12.55

Nlocal:        2776.45 ave        3960 max           0 min
Histogram: 8 4 4 0 4 12 8 3 27 34
Nghost:        3879.09 ave        5425 max         232 min
Histogram: 8 0 8 0 16 0 8 8 16 40
Neighs:        79213.5 ave      115423 max           0 min
Histogram: 8 4 4 0 10 6 8 8 24 32

Total # of neighbors = 8238206
Ave neighs/atom = 28.530485
Neighbor list builds = 0
Dangerous builds = 0
The dot product: 8.28454825107645e-06
The cos of the angle between the force vector and the displacement vector: 0.0790403103278728
The angle: 85.466595114396
Setting atom values ...
  1 settings made for x
  1 settings made for y
  1 settings made for z
Setting up cg style minimization ...
  Unit style    : metal
  Current step  : 816
Per MPI rank memory allocation (min/avg/max) = 5.441 | 5.816 | 6.074 Mbytes
Step PotEng KinEng TotEng v_fx v_fy v_fz 
     816   -1152449.4            0   -1152449.4 0.0078087891  0.048162533  0.017336394 
    1000   -1152449.4            0   -1152449.4 -2.0670147e-06 7.2046692e-06 -1.4702911e-05 
    1007   -1152449.4            0   -1152449.4 -9.9613154e-07 -1.2695476e-05 1.1093162e-06 
Loop time of 2.25233 on 104 procs for 191 steps with 288751 atoms

99.9% CPU use with 104 MPI tasks x 1 OpenMP threads

Minimization stats:
  Stopping criterion = energy tolerance
  Energy initial, next-to-last, final = 
      -1152449.4066042  -1152449.40942418  -1152449.40942418
  Force two-norm initial, final = 0.23627044 8.7410198e-05
  Force max component initial, final = 0.092526334 1.8179807e-05
  Final line search alpha, max atom move = 1.0000000 1.8179807e-05
  Iterations, force evaluations = 191 382

MPI task timing breakdown:
Section |  min time  |  avg time  |  max time  |%varavg| %total
---------------------------------------------------------------
Pair    | 0.58153    | 1.6125     | 2.1175     |  34.2 | 71.59
Neigh   | 0          | 0          | 0          |   0.0 |  0.00
Comm    | 0.04104    | 0.36278    | 1.0862     |  50.3 | 16.11
Output  | 0.00016059 | 0.0001698  | 0.00032055 |   0.0 |  0.01
Modify  | 2.3066e-05 | 0.0031549  | 0.0067151  |   2.6 |  0.14
Other   |            | 0.2738     |            |       | 12.16

Nlocal:        2776.45 ave        3960 max           0 min
Histogram: 8 4 4 0 4 12 8 4 26 34
Nghost:        3879.01 ave        5426 max         232 min
Histogram: 8 0 8 0 16 0 8 8 16 40
Neighs:        79213.5 ave      115423 max           0 min
Histogram: 8 4 4 0 10 6 8 8 24 32

Total # of neighbors = 8238204
Ave neighs/atom = 28.530478
Neighbor list builds = 0
Dangerous builds = 0
The dot product: 3.16622507395845e-08
The cos of the angle between the force vector and the displacement vector: 0.00247695687939798
The angle: 89.8580806796542
Setting atom values ...
  1 settings made for x
  1 settings made for y
  1 settings made for z
Setting up cg style minimization ...
  Unit style    : metal
  Current step  : 1007
Per MPI rank memory allocation (min/avg/max) = 5.441 | 5.816 | 6.074 Mbytes
Step PotEng KinEng TotEng v_fx v_fy v_fz 
    1007   -1152449.4            0   -1152449.4 0.0040261072  0.068783924 -0.016793792 
    1154   -1152449.4            0   -1152449.4 4.9774659e-06 1.578882e-05 2.4436442e-05 
Loop time of 1.71174 on 104 procs for 147 steps with 288751 atoms

99.9% CPU use with 104 MPI tasks x 1 OpenMP threads

Minimization stats:
  Stopping criterion = energy tolerance
  Energy initial, next-to-last, final = 
     -1152449.38874361  -1152449.39159575  -1152449.39159575
  Force two-norm initial, final = 0.24151609 0.00013076802
  Force max component initial, final = 0.093816338 2.4436442e-05
  Final line search alpha, max atom move = 1.0000000 2.4436442e-05
  Iterations, force evaluations = 147 294

MPI task timing breakdown:
Section |  min time  |  avg time  |  max time  |%varavg| %total
---------------------------------------------------------------
Pair    | 0.44779    | 1.2348     | 1.6056     |  29.9 | 72.14
Neigh   | 0          | 0          | 0          |   0.0 |  0.00
Comm    | 0.030345   | 0.27633    | 0.83205    |  44.4 | 16.14
Output  | 0          | 0          | 0          |   0.0 |  0.00
Modify  | 1.7568e-05 | 0.0024423  | 0.0052262  |   2.3 |  0.14
Other   |            | 0.1981     |            |       | 11.58

Nlocal:        2776.45 ave        3960 max           0 min
Histogram: 8 4 4 0 4 12 8 4 26 34
Nghost:        3879.01 ave        5429 max         232 min
Histogram: 8 0 8 0 16 0 8 8 16 40
Neighs:        79213.5 ave      115423 max           0 min
Histogram: 8 4 4 0 10 6 8 8 24 32

Total # of neighbors = 8238201
Ave neighs/atom = 28.530467
Neighbor list builds = 0
Dangerous builds = 0
The dot product: 5.48627713094173e-07
The cos of the angle between the force vector and the displacement vector: 0.0185873887628732
The angle: 88.9349597387395
Setting atom values ...
  1 settings made for x
  1 settings made for y
  1 settings made for z
Setting up cg style minimization ...
  Unit style    : metal
  Current step  : 1154
Per MPI rank memory allocation (min/avg/max) = 5.441 | 5.816 | 6.074 Mbytes
Step PotEng KinEng TotEng v_fx v_fy v_fz 
    1154   -1152449.4            0   -1152449.4 -0.0035025762   0.10649855 -0.062524183 
    1316   -1152449.4            0   -1152449.4 -7.5624564e-06 -1.0378053e-05 -4.7818929e-05 
Loop time of 1.8957 on 104 procs for 162 steps with 288751 atoms

99.9% CPU use with 104 MPI tasks x 1 OpenMP threads

Minimization stats:
  Stopping criterion = energy tolerance
  Energy initial, next-to-last, final = 
     -1152449.36889985  -1152449.37462429  -1152449.37462429
  Force two-norm initial, final = 0.26151452 0.00016199878
  Force max component initial, final = 0.10649855 4.7818929e-05
  Final line search alpha, max atom move = 1.0000000 4.7818929e-05
  Iterations, force evaluations = 162 324

MPI task timing breakdown:
Section |  min time  |  avg time  |  max time  |%varavg| %total
---------------------------------------------------------------
Pair    | 0.49271    | 1.3661     | 1.7901     |  31.4 | 72.06
Neigh   | 0          | 0          | 0          |   0.0 |  0.00
Comm    | 0.032388   | 0.3068     | 0.91931    |  46.5 | 16.18
Output  | 0          | 0          | 0          |   0.0 |  0.00
Modify  | 1.9311e-05 | 0.0026735  | 0.0056708  |   2.4 |  0.14
Other   |            | 0.2201     |            |       | 11.61

Nlocal:        2776.45 ave        3961 max           0 min
Histogram: 8 4 4 0 6 10 8 4 26 34
Nghost:        3879.01 ave        5429 max         232 min
Histogram: 8 0 8 0 16 0 8 8 16 40
Neighs:        79213.5 ave      115446 max           0 min
Histogram: 8 4 4 0 10 6 8 8 24 32

Total # of neighbors = 8238199
Ave neighs/atom = 28.530461
Neighbor list builds = 0
Dangerous builds = 0
The dot product: 3.86516350748137e-06
The cos of the angle between the force vector and the displacement vector: 0.0780634903447062
The angle: 85.522736253745
Setting atom values ...
  1 settings made for x
  1 settings made for y
  1 settings made for z
Setting up cg style minimization ...
  Unit style    : metal
  Current step  : 1316
Per MPI rank memory allocation (min/avg/max) = 5.441 | 5.816 | 6.074 Mbytes
Step PotEng KinEng TotEng v_fx v_fy v_fz 
    1316   -1152449.4            0   -1152449.4 -0.050772949   0.16717596 -0.095321623 
    1507   -1152449.4            0   -1152449.4 9.2520075e-06 -3.2527078e-05 1.626507e-05 
Loop time of 2.25717 on 104 procs for 191 steps with 288751 atoms

99.9% CPU use with 104 MPI tasks x 1 OpenMP threads

Minimization stats:
  Stopping criterion = energy tolerance
  Energy initial, next-to-last, final = 
      -1152449.3553724  -1152449.36203657  -1152449.36203657
  Force two-norm initial, final = 0.29129507 0.00015905013
  Force max component initial, final = 0.16717596 3.5398519e-05
  Final line search alpha, max atom move = 1.0000000 3.5398519e-05
  Iterations, force evaluations = 191 382

MPI task timing breakdown:
Section |  min time  |  avg time  |  max time  |%varavg| %total
---------------------------------------------------------------
Pair    | 0.58143    | 1.6085     | 2.1094     |  34.1 | 71.26
Neigh   | 0          | 0          | 0          |   0.0 |  0.00
Comm    | 0.037451   | 0.36702    | 1.0967     |  49.8 | 16.26
Output  | 0          | 0          | 0          |   0.0 |  0.00
Modify  | 2.2418e-05 | 0.003155   | 0.0066872  |   2.6 |  0.14
Other   |            | 0.2785     |            |       | 12.34

Nlocal:        2776.45 ave        3961 max           0 min
Histogram: 8 4 4 0 6 10 8 4 26 34
Nghost:        3879.01 ave        5429 max         232 min
Histogram: 8 0 8 0 16 0 8 8 16 40
Neighs:        79213.5 ave      115446 max           0 min
Histogram: 8 4 4 0 10 6 8 8 24 32

Total # of neighbors = 8238202
Ave neighs/atom = 28.530471
Neighbor list builds = 0
Dangerous builds = 0
The dot product: -6.85956740561505e-06
The cos of the angle between the force vector and the displacement vector: -0.182797509919039
The angle: 100.532749435534
Setting atom values ...
  1 settings made for x
  1 settings made for y
  1 settings made for z
Setting up cg style minimization ...
  Unit style    : metal
  Current step  : 1507
Per MPI rank memory allocation (min/avg/max) = 5.441 | 5.816 | 6.074 Mbytes
Step PotEng KinEng TotEng v_fx v_fy v_fz 
    1507   -1152449.3            0   -1152449.3 -0.055189839   0.10929238 -0.050164262 
    1684   -1152449.3            0   -1152449.3 -2.7763446e-05 -4.4894461e-06 -7.6132114e-05 
Loop time of 2.09858 on 104 procs for 177 steps with 288751 atoms

99.9% CPU use with 104 MPI tasks x 1 OpenMP threads

Minimization stats:
  Stopping criterion = energy tolerance
  Energy initial, next-to-last, final = 
     -1152449.34394724   -1152449.3482731   -1152449.3482731
  Force two-norm initial, final = 0.24296391 0.00023664218
  Force max component initial, final = 0.10929238 7.6132114e-05
  Final line search alpha, max atom move = 1.0000000 7.6132114e-05
  Iterations, force evaluations = 177 354

MPI task timing breakdown:
Section |  min time  |  avg time  |  max time  |%varavg| %total
---------------------------------------------------------------
Pair    | 0.54206    | 1.4974     | 1.9647     |  32.9 | 71.36
Neigh   | 0          | 0          | 0          |   0.0 |  0.00
Comm    | 0.036327   | 0.33997    | 1.0025     |  48.3 | 16.20
Output  | 0          | 0          | 0          |   0.0 |  0.00
Modify  | 2.1115e-05 | 0.0029231  | 0.006197   |   2.6 |  0.14
Other   |            | 0.2582     |            |       | 12.31

Nlocal:        2776.45 ave        3960 max           0 min
Histogram: 8 4 4 0 4 12 8 4 26 34
Nghost:        3879.11 ave        5428 max         232 min
Histogram: 8 0 8 0 16 0 8 8 16 40
Neighs:        79213.5 ave      115423 max           0 min
Histogram: 8 4 4 0 10 6 8 8 24 32

Total # of neighbors = 8238206
Ave neighs/atom = 28.530485
Neighbor list builds = 0
Dangerous builds = 0
The dot product: 4.61520972504129e-06
The cos of the angle between the force vector and the displacement vector: 0.0568650650786404
The angle: 86.7401132759527
Setting atom values ...
  1 settings made for x
  1 settings made for y
  1 settings made for z
Setting up cg style minimization ...
  Unit style    : metal
  Current step  : 1684
Per MPI rank memory allocation (min/avg/max) = 5.441 | 5.816 | 6.074 Mbytes
Step PotEng KinEng TotEng v_fx v_fy v_fz 
    1684   -1152449.3            0   -1152449.3 -0.041874508   0.05360459 -0.039370641 
    1929   -1152449.3            0   -1152449.3 -1.0679167e-05 1.671226e-05 -7.1389576e-06 
Loop time of 2.86892 on 104 procs for 245 steps with 288751 atoms

99.9% CPU use with 104 MPI tasks x 1 OpenMP threads

Minimization stats:
  Stopping criterion = energy tolerance
  Energy initial, next-to-last, final = 
     -1152449.33155826  -1152449.34561716  -1152449.34561716
  Force two-norm initial, final = 0.2253815 0.00010616213
  Force max component initial, final = 0.099258619 2.3308094e-05
  Final line search alpha, max atom move = 1.0000000 2.3308094e-05
  Iterations, force evaluations = 245 490

MPI task timing breakdown:
Section |  min time  |  avg time  |  max time  |%varavg| %total
---------------------------------------------------------------
Pair    | 0.74879    | 2.0624     | 2.7047     |  38.6 | 71.89
Neigh   | 1.0238e-05 | 0.002955   | 0.0042862  |   2.2 |  0.10
Comm    | 0.046716   | 0.46575    | 1.3995     |  57.1 | 16.23
Output  | 0          | 0          | 0          |   0.0 |  0.00
Modify  | 2.898e-05  | 0.0040409  | 0.00855    |   3.0 |  0.14
Other   |            | 0.3337     |            |       | 11.63

Nlocal:        2776.45 ave        3960 max           0 min
Histogram: 8 4 4 0 4 12 8 4 26 34
Nghost:        3879.16 ave        5424 max         232 min
Histogram: 8 0 8 0 16 0 8 8 16 40
Neighs:        79213.5 ave      115431 max           0 min
Histogram: 8 4 4 0 10 6 8 8 24 32

Total # of neighbors = 8238200
Ave neighs/atom = 28.530464
Neighbor list builds = 1
Dangerous builds = 0
The dot product: 2.15969029266847e-06
The cos of the angle between the force vector and the displacement vector: 0.102458721741316
The angle: 84.119227714712
Setting atom values ...
  1 settings made for x
  1 settings made for y
  1 settings made for z
Setting up cg style minimization ...
  Unit style    : metal
  Current step  : 1929
Per MPI rank memory allocation (min/avg/max) = 5.441 | 5.816 | 6.074 Mbytes
Step PotEng KinEng TotEng v_fx v_fy v_fz 
    1929   -1152449.3            0   -1152449.3  0.031886227 0.0054547833  0.050822074 
    2000   -1152449.3            0   -1152449.3 -1.5472516e-05 -2.7006296e-05 -4.3117264e-05 
    2073   -1152449.3            0   -1152449.3 3.3527149e-06 7.6992091e-06 1.0742616e-05 
Loop time of 1.71194 on 104 procs for 144 steps with 288751 atoms

99.9% CPU use with 104 MPI tasks x 1 OpenMP threads

Minimization stats:
  Stopping criterion = energy tolerance
  Energy initial, next-to-last, final = 
     -1152449.34774037  -1152449.34989711  -1152449.34989711
  Force two-norm initial, final = 0.19483422 0.00014323622
  Force max component initial, final = 0.071707515 1.0742616e-05
  Final line search alpha, max atom move = 1.0000000 1.0742616e-05
  Iterations, force evaluations = 144 288

MPI task timing breakdown:
Section |  min time  |  avg time  |  max time  |%varavg| %total
---------------------------------------------------------------
Pair    | 0.43603    | 1.2152     | 1.6177     |  29.7 | 70.99
Neigh   | 0          | 0          | 0          |   0.0 |  0.00
Comm    | 0.028015   | 0.27835    | 0.82969    |  43.3 | 16.26
Output  | 0.00010624 | 0.00011057 | 0.00021813 |   0.0 |  0.01
Modify  | 1.7337e-05 | 0.002385   | 0.0050427  |   2.3 |  0.14
Other   |            | 0.2159     |            |       | 12.61

Nlocal:        2776.45 ave        3960 max           0 min
Histogram: 8 4 4 0 4 12 8 2 28 34
Nghost:        3879.05 ave        5424 max         232 min
Histogram: 8 0 8 0 16 0 8 8 16 40
Neighs:        79213.4 ave      115434 max           0 min
Histogram: 8 4 4 0 10 6 8 8 24 32

Total # of neighbors = 8238191
Ave neighs/atom = 28.530433
Neighbor list builds = 0
Dangerous builds = 0
The dot product: 1.49233825656807e-07
The cos of the angle between the force vector and the displacement vector: 0.0109446409093408
The angle: 89.3729057477522
Setting atom values ...
  1 settings made for x
  1 settings made for y
  1 settings made for z
Setting up cg style minimization ...
  Unit style    : metal
  Current step  : 2073
Per MPI rank memory allocation (min/avg/max) = 5.441 | 5.816 | 6.074 Mbytes
Step PotEng KinEng TotEng v_fx v_fy v_fz 
    2073   -1152449.3            0   -1152449.3   0.01372338   0.01004711  0.028584939 
    2284   -1152449.4            0   -1152449.4 1.4665884e-05 -4.7026446e-06 1.8614076e-05 
Loop time of 2.47123 on 104 procs for 211 steps with 288751 atoms

99.9% CPU use with 104 MPI tasks x 1 OpenMP threads

Minimization stats:
  Stopping criterion = energy tolerance
  Energy initial, next-to-last, final = 
     -1152449.34953994   -1152449.3515659   -1152449.3515659
  Force two-norm initial, final = 0.18756199 8.1728328e-05
  Force max component initial, final = 0.070133532 1.8614076e-05
  Final line search alpha, max atom move = 1.0000000 1.8614076e-05
  Iterations, force evaluations = 211 422

MPI task timing breakdown:
Section |  min time  |  avg time  |  max time  |%varavg| %total
---------------------------------------------------------------
Pair    | 0.63943    | 1.7695     | 2.3016     |  35.8 | 71.60
Neigh   | 0          | 0          | 0          |   0.0 |  0.00
Comm    | 0.042243   | 0.39907    | 1.1921     |  52.4 | 16.15
Output  | 0          | 0          | 0          |   0.0 |  0.00
Modify  | 2.4952e-05 | 0.0034789  | 0.0073714  |   2.8 |  0.14
Other   |            | 0.2992     |            |       | 12.11

Nlocal:        2776.45 ave        3960 max           0 min
Histogram: 8 4 4 0 4 12 8 2 28 34
Nghost:        3879.05 ave        5424 max         232 min
Histogram: 8 0 8 0 16 0 8 8 16 40
Neighs:        79213.4 ave      115434 max           0 min
Histogram: 8 4 4 0 10 6 8 8 24 32

Total # of neighbors = 8238189
Ave neighs/atom = 28.530426
Neighbor list builds = 0
Dangerous builds = 0
The dot product: 1.70121568510958e-08
The cos of the angle between the force vector and the displacement vector: 0.000704156872568017
The angle: 89.9596547797528
Setting atom values ...
  1 settings made for x
  1 settings made for y
  1 settings made for z
Setting up cg style minimization ...
  Unit style    : metal
  Current step  : 2284
Per MPI rank memory allocation (min/avg/max) = 5.441 | 5.816 | 6.074 Mbytes
Step PotEng KinEng TotEng v_fx v_fy v_fz 
    2284   -1152449.3            0   -1152449.3  0.013202611 0.0098269667  0.027711866 
    2475   -1152449.4            0   -1152449.4 1.8840946e-05 -4.5245185e-06 2.513493e-05 
Loop time of 2.2471 on 104 procs for 191 steps with 288751 atoms

99.9% CPU use with 104 MPI tasks x 1 OpenMP threads

Minimization stats:
  Stopping criterion = energy tolerance
  Energy initial, next-to-last, final = 
     -1152449.34826549  -1152449.35026548  -1152449.35026548
  Force two-norm initial, final = 0.18674247 0.00014667168
  Force max component initial, final = 0.068760641 3.0899854e-05
  Final line search alpha, max atom move = 1.0000000 3.0899854e-05
  Iterations, force evaluations = 191 382

MPI task timing breakdown:
Section |  min time  |  avg time  |  max time  |%varavg| %total
---------------------------------------------------------------
Pair    | 0.57907    | 1.6092     | 2.1066     |  34.1 | 71.61
Neigh   | 0          | 0          | 0          |   0.0 |  0.00
Comm    | 0.041174   | 0.35964    | 1.0798     |  50.6 | 16.00
Output  | 0          | 0          | 0          |   0.0 |  0.00
Modify  | 2.29e-05   | 0.0031512  | 0.0066738  |   2.6 |  0.14
Other   |            | 0.2751     |            |       | 12.24

Nlocal:        2776.45 ave        3960 max           0 min
Histogram: 8 4 4 0 4 12 8 2 28 34
Nghost:        3879.05 ave        5424 max         232 min
Histogram: 8 0 8 0 16 0 8 8 16 40
Neighs:        79213.4 ave      115434 max           0 min
Histogram: 8 4 4 0 10 6 8 8 24 32

Total # of neighbors = 8238191
Ave neighs/atom = 28.530433
Neighbor list builds = 0
Dangerous builds = 0
The dot product: 4.25748378248037e-08
The cos of the angle between the force vector and the displacement vector: 0.00134150233651061
The angle: 89.9231375548571
Setting atom values ...
  1 settings made for x
  1 settings made for y
  1 settings made for z
Setting up cg style minimization ...
  Unit style    : metal
  Current step  : 2475
Per MPI rank memory allocation (min/avg/max) = 5.441 | 5.816 | 6.074 Mbytes
Step PotEng KinEng TotEng v_fx v_fy v_fz 
    2475   -1152449.3            0   -1152449.3  0.011069328 0.0091117748  0.024021311 
    2656   -1152449.3            0   -1152449.3 -5.3753491e-06 -3.7673746e-08 -8.2340964e-06 
Loop time of 2.13739 on 104 procs for 181 steps with 288751 atoms

99.9% CPU use with 104 MPI tasks x 1 OpenMP threads

Minimization stats:
  Stopping criterion = energy tolerance
  Energy initial, next-to-last, final = 
     -1152449.34396137  -1152449.34591732  -1152449.34591732
  Force two-norm initial, final = 0.18462627 0.00020697807
  Force max component initial, final = 0.06725485 3.8837620e-05
  Final line search alpha, max atom move = 1.0000000 3.8837620e-05
  Iterations, force evaluations = 181 362

MPI task timing breakdown:
Section |  min time  |  avg time  |  max time  |%varavg| %total
---------------------------------------------------------------
Pair    | 0.55033    | 1.5217     | 2.0045     |  33.3 | 71.19
Neigh   | 0          | 0          | 0          |   0.0 |  0.00
Comm    | 0.034746   | 0.34686    | 1.036      |  48.4 | 16.23
Output  | 0          | 0          | 0          |   0.0 |  0.00
Modify  | 2.1914e-05 | 0.002989   | 0.006357   |   2.6 |  0.14
Other   |            | 0.2658     |            |       | 12.44

Nlocal:        2776.45 ave        3960 max           0 min
Histogram: 8 4 4 0 4 12 8 2 28 34
Nghost:        3879.09 ave        5424 max         232 min
Histogram: 8 0 8 0 16 0 8 8 16 40
Neighs:        79213.4 ave      115424 max           0 min
Histogram: 8 4 4 0 10 6 8 8 24 32

Total # of neighbors = 8238191
Ave neighs/atom = 28.530433
Neighbor list builds = 0
Dangerous builds = 0
The dot product: -1.1881113276443e-08
The cos of the angle between the force vector and the displacement vector: -0.00120823820762366
The angle: 90.0692269667865
Setting atom values ...
  1 settings made for x
  1 settings made for y
  1 settings made for z
Setting up cg style minimization ...
  Unit style    : metal
  Current step  : 2656
Per MPI rank memory allocation (min/avg/max) = 5.441 | 5.816 | 6.074 Mbytes
Step PotEng KinEng TotEng v_fx v_fy v_fz 
    2656   -1152449.3            0   -1152449.3 0.0093333154  0.007424044  0.020125033 
    2874   -1152449.3            0   -1152449.3 4.7102132e-07 -2.6473217e-06 -1.3609042e-06 
Loop time of 2.53366 on 104 procs for 218 steps with 288751 atoms

99.9% CPU use with 104 MPI tasks x 1 OpenMP threads

Minimization stats:
  Stopping criterion = energy tolerance
  Energy initial, next-to-last, final = 
     -1152449.33658245  -1152449.33849971  -1152449.33849971
  Force two-norm initial, final = 0.18302535 5.2361475e-05
  Force max component initial, final = 0.06686921 2.6473217e-06
  Final line search alpha, max atom move = 1.0000000 2.6473217e-06
  Iterations, force evaluations = 218 436

MPI task timing breakdown:
Section |  min time  |  avg time  |  max time  |%varavg| %total
---------------------------------------------------------------
Pair    | 0.66169    | 1.8367     | 2.3852     |  36.5 | 72.49
Neigh   | 0          | 0          | 0          |   0.0 |  0.00
Comm    | 0.050308   | 0.4078     | 1.2328     |  54.5 | 16.10
Output  | 0          | 0          | 0          |   0.0 |  0.00
Modify  | 2.641e-05  | 0.0035982  | 0.0076176  |   2.8 |  0.14
Other   |            | 0.2856     |            |       | 11.27

Nlocal:        2776.45 ave        3960 max           0 min
Histogram: 8 4 4 0 4 12 8 4 26 34
Nghost:        3879.12 ave        5424 max         232 min
Histogram: 8 0 8 0 16 0 8 8 16 40
Neighs:        79213.4 ave      115432 max           0 min
Histogram: 8 4 4 0 10 6 8 8 24 32

Total # of neighbors = 8238190
Ave neighs/atom = 28.530429
Neighbor list builds = 0
Dangerous builds = 0
The dot product: -3.607593255537e-09
The cos of the angle between the force vector and the displacement vector: -0.0011970746667552
The angle: 90.0685873425479
Setting atom values ...
  1 settings made for x
  1 settings made for y
  1 settings made for z
Setting up cg style minimization ...
  Unit style    : metal
  Current step  : 2874
Per MPI rank memory allocation (min/avg/max) = 5.441 | 5.816 | 6.074 Mbytes
Step PotEng KinEng TotEng v_fx v_fy v_fz 
    2874   -1152449.3            0   -1152449.3 0.0084379572 0.0046836956  0.016642956 
    3000   -1152449.3            0   -1152449.3 0.00014991454 -0.00010560157 0.00014657763 
    3110   -1152449.3            0   -1152449.3 1.6508364e-06 1.0503356e-06 3.361918e-06 
Loop time of 2.74218 on 104 procs for 236 steps with 288751 atoms

99.9% CPU use with 104 MPI tasks x 1 OpenMP threads

Minimization stats:
  Stopping criterion = energy tolerance
  Energy initial, next-to-last, final = 
     -1152449.32605955  -1152449.32796402  -1152449.32796402
  Force two-norm initial, final = 0.18265231 2.3250213e-05
  Force max component initial, final = 0.066488427 3.8940416e-06
  Final line search alpha, max atom move = 1.0000000 3.8940416e-06
  Iterations, force evaluations = 236 472

MPI task timing breakdown:
Section |  min time  |  avg time  |  max time  |%varavg| %total
---------------------------------------------------------------
Pair    | 0.71667    | 1.9785     | 2.5837     |  37.9 | 72.15
Neigh   | 0          | 0          | 0          |   0.0 |  0.00
Comm    | 0.0488     | 0.44292    | 1.3316     |  56.0 | 16.15
Output  | 0.00015397 | 0.00016099 | 0.00029595 |   0.0 |  0.01
Modify  | 2.8301e-05 | 0.0038975  | 0.0083037  |   2.9 |  0.14
Other   |            | 0.3167     |            |       | 11.55

Nlocal:        2776.45 ave        3960 max           0 min
Histogram: 8 4 4 0 4 12 8 4 26 34
Nghost:        3879.11 ave        5427 max         232 min
Histogram: 8 0 8 0 16 0 8 8 16 40
Neighs:        79213.4 ave      115432 max           0 min
Histogram: 8 4 4 0 10 6 8 8 24 32

Total # of neighbors = 8238190
Ave neighs/atom = 28.530429
Neighbor list builds = 0
Dangerous builds = 0
The dot product: 3.55931739580851e-09
The cos of the angle between the force vector and the displacement vector: 0.000915026143269442
The angle: 89.9475728565306
Setting atom values ...
  1 settings made for x
  1 settings made for y
  1 settings made for z
Setting up cg style minimization ...
  Unit style    : metal
  Current step  : 3110
Per MPI rank memory allocation (min/avg/max) = 5.441 | 5.816 | 6.074 Mbytes
Step PotEng KinEng TotEng v_fx v_fy v_fz 
    3110   -1152449.3            0   -1152449.3 0.0085047612 0.00098499042  0.013851302 
    3349   -1152449.3            0   -1152449.3 2.1993516e-06 -2.2677909e-06 1.5843041e-06 
Loop time of 2.83031 on 104 procs for 239 steps with 288751 atoms

99.9% CPU use with 104 MPI tasks x 1 OpenMP threads

Minimization stats:
  Stopping criterion = energy tolerance
  Energy initial, next-to-last, final = 
     -1152449.31229952  -1152449.31421789  -1152449.31421789
  Force two-norm initial, final = 0.18344112 1.9148175e-05
  Force max component initial, final = 0.06611233 2.2677909e-06
  Final line search alpha, max atom move = 1.0000000 2.2677909e-06
  Iterations, force evaluations = 239 478

MPI task timing breakdown:
Section |  min time  |  avg time  |  max time  |%varavg| %total
---------------------------------------------------------------
Pair    | 0.72795    | 2.0203     | 2.6615     |  38.2 | 71.38
Neigh   | 0          | 0          | 0          |   0.0 |  0.00
Comm    | 0.050294   | 0.45702    | 1.3561     |  56.4 | 16.15
Output  | 0          | 0          | 0          |   0.0 |  0.00
Modify  | 2.8767e-05 | 0.0039399  | 0.0083633  |   3.0 |  0.14
Other   |            | 0.349      |            |       | 12.33

Nlocal:        2776.45 ave        3960 max           0 min
Histogram: 8 4 4 0 4 12 8 4 26 34
Nghost:        3879.12 ave        5424 max         232 min
Histogram: 8 0 8 0 16 0 8 8 16 40
Neighs:        79213.3 ave      115431 max           0 min
Histogram: 8 4 4 0 10 6 8 8 24 32

Total # of neighbors = 8238188
Ave neighs/atom = 28.530422
Neighbor list builds = 0
Dangerous builds = 0
The dot product: 1.91642160666617e-09
The cos of the angle between the force vector and the displacement vector: 0.000542261915912707
The angle: 89.9689306793049
Setting atom values ...
  1 settings made for x
  1 settings made for y
  1 settings made for z
Setting up cg style minimization ...
  Unit style    : metal
  Current step  : 3349
Per MPI rank memory allocation (min/avg/max) = 5.441 | 5.816 | 6.074 Mbytes
Step PotEng KinEng TotEng v_fx v_fy v_fz 
    3349   -1152449.3            0   -1152449.3 0.0095920042 -0.0034732582  0.012015204 
    3574   -1152449.3            0   -1152449.3 -4.5417263e-06 2.1395763e-06 -5.2965368e-06 
Loop time of 2.62297 on 104 procs for 225 steps with 288751 atoms

99.9% CPU use with 104 MPI tasks x 1 OpenMP threads

Minimization stats:
  Stopping criterion = energy tolerance
  Energy initial, next-to-last, final = 
     -1152449.29521016  -1152449.29714975  -1152449.29714975
  Force two-norm initial, final = 0.18489236 3.6871129e-05
  Force max component initial, final = 0.065708101 6.1050664e-06
  Final line search alpha, max atom move = 1.0000000 6.1050664e-06
  Iterations, force evaluations = 225 450

MPI task timing breakdown:
Section |  min time  |  avg time  |  max time  |%varavg| %total
---------------------------------------------------------------
Pair    | 0.68439    | 1.8912     | 2.4623     |  37.1 | 72.10
Neigh   | 0          | 0          | 0          |   0.0 |  0.00
Comm    | 0.041776   | 0.42441    | 1.2844     |  55.0 | 16.18
Output  | 0          | 0          | 0          |   0.0 |  0.00
Modify  | 2.6909e-05 | 0.003716   | 0.0079367  |   2.9 |  0.14
Other   |            | 0.3037     |            |       | 11.58

Nlocal:        2776.45 ave        3960 max           0 min
Histogram: 8 4 4 0 4 12 8 4 26 34
Nghost:        3879.08 ave        5424 max         232 min
Histogram: 8 0 8 0 16 0 8 8 16 40
Neighs:        79213.4 ave      115431 max           0 min
Histogram: 8 4 4 0 10 6 8 8 24 32

Total # of neighbors = 8238189
Ave neighs/atom = 28.530426
Neighbor list builds = 0
Dangerous builds = 0
The dot product: -7.3899177979443e-09
The cos of the angle between the force vector and the displacement vector: -0.00101261809070873
The angle: 90.0580187527715
Setting atom values ...
  1 settings made for x
  1 settings made for y
  1 settings made for z
Setting up cg style minimization ...
  Unit style    : metal
  Current step  : 3574
Per MPI rank memory allocation (min/avg/max) = 5.441 | 5.816 | 6.074 Mbytes
Step PotEng KinEng TotEng v_fx v_fy v_fz 
    3574   -1152449.3            0   -1152449.3  0.012073871 -0.0082376405  0.012097828 
    3804   -1152449.3            0   -1152449.3 5.0850474e-06 -2.2645165e-06 6.0506212e-06 
Loop time of 2.71274 on 104 procs for 230 steps with 288751 atoms

99.9% CPU use with 104 MPI tasks x 1 OpenMP threads

Minimization stats:
  Stopping criterion = energy tolerance
  Energy initial, next-to-last, final = 
     -1152449.27474042  -1152449.27668102  -1152449.27668102
  Force two-norm initial, final = 0.18635329 3.0282720e-05
  Force max component initial, final = 0.065269019 6.0506212e-06
  Final line search alpha, max atom move = 1.0000000 6.0506212e-06
  Iterations, force evaluations = 230 460

MPI task timing breakdown:
Section |  min time  |  avg time  |  max time  |%varavg| %total
---------------------------------------------------------------
Pair    | 0.69765    | 1.9405     | 2.5648     |  37.5 | 71.53
Neigh   | 0          | 0          | 0          |   0.0 |  0.00
Comm    | 0.048452   | 0.43995    | 1.3073     |  55.0 | 16.22
Output  | 0          | 0          | 0          |   0.0 |  0.00
Modify  | 2.7518e-05 | 0.0037936  | 0.0080606  |   2.9 |  0.14
Other   |            | 0.3285     |            |       | 12.11

Nlocal:        2776.45 ave        3960 max           0 min
Histogram: 8 4 4 0 4 12 8 4 26 34
Nghost:        3879.07 ave        5424 max         232 min
Histogram: 8 0 8 0 16 0 8 8 16 40
Neighs:        79213.3 ave      115431 max           0 min
Histogram: 8 4 4 0 10 6 8 8 24 32

Total # of neighbors = 8238186
Ave neighs/atom = 28.530415
Neighbor list builds = 0
Dangerous builds = 0
The dot product: 1.28188590954666e-08
The cos of the angle between the force vector and the displacement vector: 0.00155915628984251
The angle: 89.9106668887962
Setting atom values ...
  1 settings made for x
  1 settings made for y
  1 settings made for z
Setting up cg style minimization ...
  Unit style    : metal
  Current step  : 3804
Per MPI rank memory allocation (min/avg/max) = 5.441 | 5.816 | 6.074 Mbytes
Step PotEng KinEng TotEng v_fx v_fy v_fz 
    3804   -1152449.3            0   -1152449.3  0.016540698 -0.012494779  0.015701044 
    3977   -1152449.3            0   -1152449.3 -5.1678515e-05 5.4682284e-05 -3.6658086e-05 
Loop time of 2.03904 on 104 procs for 173 steps with 288751 atoms

99.9% CPU use with 104 MPI tasks x 1 OpenMP threads

Minimization stats:
  Stopping criterion = energy tolerance
  Energy initial, next-to-last, final = 
     -1152449.25093374  -1152449.25283753  -1152449.25283753
  Force two-norm initial, final = 0.18772761 0.00027683181
  Force max component initial, final = 0.066864839 5.4682284e-05
  Final line search alpha, max atom move = 1.0000000 5.4682284e-05
  Iterations, force evaluations = 173 346

MPI task timing breakdown:
Section |  min time  |  avg time  |  max time  |%varavg| %total
---------------------------------------------------------------
Pair    | 0.52682    | 1.4595     | 1.9206     |  32.5 | 71.58
Neigh   | 0          | 0          | 0          |   0.0 |  0.00
Comm    | 0.033141   | 0.33057    | 0.98943    |  47.9 | 16.21
Output  | 0          | 0          | 0          |   0.0 |  0.00
Modify  | 2.0782e-05 | 0.0028515  | 0.0060545  |   2.5 |  0.14
Other   |            | 0.2461     |            |       | 12.07

Nlocal:        2776.45 ave        3960 max           0 min
Histogram: 8 4 4 0 4 12 8 4 26 34
Nghost:        3879.11 ave        5425 max         232 min
Histogram: 8 0 8 0 16 0 8 8 16 40
Neighs:        79213.3 ave      115421 max           0 min
Histogram: 8 4 4 0 10 6 8 8 24 32

Total # of neighbors = 8238187
Ave neighs/atom = 28.530419
Neighbor list builds = 0
Dangerous builds = 0
The dot product: -2.34412897985793e-07
The cos of the angle between the force vector and the displacement vector: -0.00280084261926269
The angle: 90.1604766709802
Setting atom values ...
  1 settings made for x
  1 settings made for y
  1 settings made for z
Setting up cg style minimization ...
  Unit style    : metal
  Current step  : 3977
Per MPI rank memory allocation (min/avg/max) = 5.441 | 5.816 | 6.074 Mbytes
Step PotEng KinEng TotEng v_fx v_fy v_fz 
    3977   -1152449.2            0   -1152449.2  0.024232976 -0.015514764  0.025438093 
    4000   -1152449.2            0   -1152449.2 -0.00055254637 -3.1140502e-05 -0.00088512309 
    4173   -1152449.2            0   -1152449.2 8.6630686e-06 8.4145456e-06 2.0160309e-05 
Loop time of 2.34281 on 104 procs for 196 steps with 288751 atoms

99.9% CPU use with 104 MPI tasks x 1 OpenMP threads

Minimization stats:
  Stopping criterion = energy tolerance
  Energy initial, next-to-last, final = 
     -1152449.22407132  -1152449.22598145  -1152449.22598145
  Force two-norm initial, final = 0.19160258 0.00010048801
  Force max component initial, final = 0.074259968 2.0160309e-05
  Final line search alpha, max atom move = 1.0000000 2.0160309e-05
  Iterations, force evaluations = 196 392

MPI task timing breakdown:
Section |  min time  |  avg time  |  max time  |%varavg| %total
---------------------------------------------------------------
Pair    | 0.5923     | 1.6515     | 2.1663     |  34.6 | 70.49
Neigh   | 0          | 0          | 0          |   0.0 |  0.00
Comm    | 0.041302   | 0.3749     | 1.1078     |  50.3 | 16.00
Output  | 0.00010283 | 0.00011358 | 0.00020783 |   0.0 |  0.00
Modify  | 2.314e-05  | 0.0032327  | 0.0068537  |   2.7 |  0.14
Other   |            | 0.3131     |            |       | 13.36

Nlocal:        2776.45 ave        3960 max           0 min
Histogram: 8 4 4 0 4 12 8 4 26 34
Nghost:        3879.11 ave        5425 max         232 min
Histogram: 8 0 8 0 16 0 8 8 16 40
Neighs:        79213.3 ave      115421 max           0 min
Histogram: 8 4 4 0 10 6 8 8 24 32

Total # of neighbors = 8238185
Ave neighs/atom = 28.530412
Neighbor list builds = 0
Dangerous builds = 0
The dot product: 1.45943181637595e-07
The cos of the angle between the force vector and the displacement vector: 0.00621011539500477
The angle: 89.644184310515
Setting atom values ...
  1 settings made for x
  1 settings made for y
  1 settings made for z
Setting up cg style minimization ...
  Unit style    : metal
  Current step  : 4173
Per MPI rank memory allocation (min/avg/max) = 5.441 | 5.816 | 6.074 Mbytes
Step PotEng KinEng TotEng v_fx v_fy v_fz 
    4173   -1152449.2            0   -1152449.2   0.03901942 -0.015679094  0.049270791 
    4434   -1152449.3            0   -1152449.3 1.4211417e-05 5.0957185e-06 2.6591995e-05 
Loop time of 3.06145 on 104 procs for 261 steps with 288751 atoms

99.9% CPU use with 104 MPI tasks x 1 OpenMP threads

Minimization stats:
  Stopping criterion = energy tolerance
  Energy initial, next-to-last, final = 
     -1152449.19550921  -1152449.25031719  -1152449.25031719
  Force two-norm initial, final = 0.21264103 9.1513494e-05
  Force max component initial, final = 0.08157527 2.6591995e-05
  Final line search alpha, max atom move = 1.0000000 2.6591995e-05
  Iterations, force evaluations = 261 522

MPI task timing breakdown:
Section |  min time  |  avg time  |  max time  |%varavg| %total
---------------------------------------------------------------
Pair    | 0.79874    | 2.1921     | 2.8705     |  39.8 | 71.60
Neigh   | 1.024e-05  | 0.0029523  | 0.0042843  |   2.2 |  0.10
Comm    | 0.051002   | 0.49474    | 1.4827     |  58.6 | 16.16
Output  | 0          | 0          | 0          |   0.0 |  0.00
Modify  | 3.088e-05  | 0.0043121  | 0.0091444  |   3.1 |  0.14
Other   |            | 0.3673     |            |       | 12.00

Nlocal:        2776.45 ave        3960 max           0 min
Histogram: 8 4 4 0 4 12 8 4 26 34
Nghost:        3879.14 ave        5425 max         232 min
Histogram: 8 0 8 0 16 0 8 8 16 40
Neighs:        79213.3 ave      115436 max           0 min
Histogram: 8 4 4 0 10 6 8 8 24 32

Total # of neighbors = 8238188
Ave neighs/atom = 28.530422
Neighbor list builds = 1
Dangerous builds = 0
The dot product: 5.36086930462944e-06
The cos of the angle between the force vector and the displacement vector: 0.175313090658835
The angle: 79.9031214414592
Setting atom values ...
  1 settings made for x
  1 settings made for y
  1 settings made for z
Setting up cg style minimization ...
  Unit style    : metal
  Current step  : 4434
Per MPI rank memory allocation (min/avg/max) = 5.441 | 5.816 | 6.074 Mbytes
Step PotEng KinEng TotEng v_fx v_fy v_fz 
    4434   -1152449.3            0   -1152449.3  0.009994861 -0.063124133  -0.03855459 
    4622   -1152449.3            0   -1152449.3 -2.9366225e-06 -7.0175701e-07 -8.4561022e-06 
Loop time of 2.24395 on 104 procs for 188 steps with 288751 atoms

99.9% CPU use with 104 MPI tasks x 1 OpenMP threads

Minimization stats:
  Stopping criterion = energy tolerance
  Energy initial, next-to-last, final = 
     -1152449.25264663   -1152449.2553356   -1152449.2553356
  Force two-norm initial, final = 0.2298164 5.3864463e-05
  Force max component initial, final = 0.084165908 8.4561022e-06
  Final line search alpha, max atom move = 1.0000000 8.4561022e-06
  Iterations, force evaluations = 188 376

MPI task timing breakdown:
Section |  min time  |  avg time  |  max time  |%varavg| %total
---------------------------------------------------------------
Pair    | 0.57194    | 1.5923     | 2.091      |  33.8 | 70.96
Neigh   | 0          | 0          | 0          |   0.0 |  0.00
Comm    | 0.042187   | 0.36182    | 1.0876     |  50.1 | 16.12
Output  | 0          | 0          | 0          |   0.0 |  0.00
Modify  | 2.2594e-05 | 0.0031075  | 0.0071364  |   2.6 |  0.14
Other   |            | 0.2867     |            |       | 12.78

Nlocal:        2776.45 ave        3960 max           0 min
Histogram: 8 4 4 0 4 12 8 2 28 34
Nghost:        3879.05 ave        5424 max         232 min
Histogram: 8 0 8 0 16 0 8 8 16 40
Neighs:        79213.3 ave      115434 max           0 min
Histogram: 8 4 4 0 10 6 8 8 24 32

Total # of neighbors = 8238183
Ave neighs/atom = 28.530405
Neighbor list builds = 0
Dangerous builds = 0
The dot product: 2.07003281319745e-09
The cos of the angle between the force vector and the displacement vector: 0.000230542378690431
The angle: 89.9867908945849
Setting atom values ...
  1 settings made for x
  1 settings made for y
  1 settings made for z
Setting up cg style minimization ...
  Unit style    : metal
  Current step  : 4622
Per MPI rank memory allocation (min/avg/max) = 5.441 | 5.816 | 6.074 Mbytes
Step PotEng KinEng TotEng v_fx v_fy v_fz 
    4622   -1152449.3            0   -1152449.3   0.02122041 -0.089323351 -0.032056017 
    4858   -1152449.3            0   -1152449.3 1.2849089e-05 8.3267511e-06 4.2157342e-05 
Loop time of 2.73442 on 104 procs for 236 steps with 288751 atoms

99.9% CPU use with 104 MPI tasks x 1 OpenMP threads

Minimization stats:
  Stopping criterion = energy tolerance
  Energy initial, next-to-last, final = 
     -1152449.25630182   -1152449.3035206   -1152449.3035206
  Force two-norm initial, final = 0.23937811 0.00015517453
  Force max component initial, final = 0.089323351 4.7638289e-05
  Final line search alpha, max atom move = 1.0000000 4.7638289e-05
  Iterations, force evaluations = 236 471

MPI task timing breakdown:
Section |  min time  |  avg time  |  max time  |%varavg| %total
---------------------------------------------------------------
Pair    | 0.71908    | 1.9763     | 2.5683     |  37.7 | 72.28
Neigh   | 1.0267e-05 | 0.0029712  | 0.0042927  |   2.2 |  0.11
Comm    | 0.047637   | 0.44251    | 1.3439     |  56.0 | 16.18
Output  | 0          | 0          | 0          |   0.0 |  0.00
Modify  | 2.8882e-05 | 0.0038884  | 0.0082489  |   2.9 |  0.14
Other   |            | 0.3087     |            |       | 11.29

Nlocal:        2776.45 ave        3960 max           0 min
Histogram: 8 4 4 0 4 12 8 2 28 34
Nghost:        3879.05 ave        5424 max         232 min
Histogram: 8 0 8 0 16 0 8 8 16 40
Neighs:        79213.4 ave      115434 max           0 min
Histogram: 8 4 4 0 10 6 8 8 24 32

Total # of neighbors = 8238195
Ave neighs/atom = 28.530447
Neighbor list builds = 1
Dangerous builds = 0
The dot product: 1.03592602423775e-06
The cos of the angle between the force vector and the displacement vector: 0.0230966925414896
The angle: 88.6765393105976
Setting atom values ...
  1 settings made for x
  1 settings made for y
  1 settings made for z
Setting up cg style minimization ...
  Unit style    : metal
  Current step  : 4858
Per MPI rank memory allocation (min/avg/max) = 5.441 | 5.816 | 6.074 Mbytes
Step PotEng KinEng TotEng v_fx v_fy v_fz 
    4858   -1152449.3            0   -1152449.3 -0.026929018  0.022485075 -0.073204267 
    5000   -1152449.3            0   -1152449.3 -3.9592411e-05 -3.1645661e-05 -0.00014409462 
    5079   -1152449.3            0   -1152449.3 -1.0815446e-06 1.1143598e-06 -2.8210057e-06 
Loop time of 2.60061 on 104 procs for 221 steps with 288751 atoms

99.9% CPU use with 104 MPI tasks x 1 OpenMP threads

Minimization stats:
  Stopping criterion = energy tolerance
  Energy initial, next-to-last, final = 
     -1152449.31791575  -1152449.32133642  -1152449.32133642
  Force two-norm initial, final = 0.22419217 6.5043178e-05
  Force max component initial, final = 0.075644884 5.1646106e-06
  Final line search alpha, max atom move = 1.0000000 5.1646106e-06
  Iterations, force evaluations = 221 442

MPI task timing breakdown:
Section |  min time  |  avg time  |  max time  |%varavg| %total
---------------------------------------------------------------
Pair    | 0.68101    | 1.8741     | 2.4493     |  36.7 | 72.07
Neigh   | 0          | 0          | 0          |   0.0 |  0.00
Comm    | 0.0509     | 0.41979    | 1.2547     |  54.6 | 16.14
Output  | 0.00011065 | 0.00011658 | 0.00025026 |   0.0 |  0.00
Modify  | 2.6082e-05 | 0.0036481  | 0.0077214  |   2.9 |  0.14
Other   |            | 0.3029     |            |       | 11.65

Nlocal:        2776.45 ave        3958 max           0 min
Histogram: 8 4 4 0 4 12 8 2 28 34
Nghost:        3879.09 ave        5424 max         232 min
Histogram: 8 0 8 0 16 0 8 8 16 40
Neighs:        79213.4 ave      115370 max           0 min
Histogram: 8 4 4 0 10 6 8 8 24 32

Total # of neighbors = 8238198
Ave neighs/atom = 28.530457
Neighbor list builds = 0
Dangerous builds = 0
The dot product: 5.88742427498316e-08
The cos of the angle between the force vector and the displacement vector: 0.0182828597325573
The angle: 88.952410932663
Setting atom values ...
  1 settings made for x
  1 settings made for y
  1 settings made for z
Setting up cg style minimization ...
  Unit style    : metal
  Current step  : 5079
Per MPI rank memory allocation (min/avg/max) = 5.441 | 5.816 | 6.074 Mbytes
Step PotEng KinEng TotEng v_fx v_fy v_fz 
    5079   -1152449.3            0   -1152449.3 0.0058423959 -0.099578698 -0.044214587 
    5273   -1152449.3            0   -1152449.3 1.1446842e-06 -1.3342891e-05 -4.8127438e-06 
Loop time of 2.26535 on 104 procs for 194 steps with 288751 atoms

99.9% CPU use with 104 MPI tasks x 1 OpenMP threads

Minimization stats:
  Stopping criterion = energy tolerance
  Energy initial, next-to-last, final = 
     -1152449.33150348  -1152449.33429902  -1152449.33429902
  Force two-norm initial, final = 0.24281387 0.00011224052
  Force max component initial, final = 0.099578698 2.2720427e-05
  Final line search alpha, max atom move = 1.0000000 2.2720427e-05
  Iterations, force evaluations = 194 388

MPI task timing breakdown:
Section |  min time  |  avg time  |  max time  |%varavg| %total
---------------------------------------------------------------
Pair    | 0.58998    | 1.6275     | 2.1386     |  34.4 | 71.84
Neigh   | 0          | 0          | 0          |   0.0 |  0.00
Comm    | 0.037728   | 0.3669     | 1.0976     |  50.5 | 16.20
Output  | 0          | 0          | 0          |   0.0 |  0.00
Modify  | 2.3241e-05 | 0.0031986  | 0.0067697  |   2.7 |  0.14
Other   |            | 0.2678     |            |       | 11.82

Nlocal:        2776.45 ave        3959 max           0 min
Histogram: 8 4 4 0 4 12 8 2 28 34
Nghost:        3879.03 ave        5424 max         232 min
Histogram: 8 0 8 0 16 0 8 8 16 40
Neighs:        79213.4 ave      115403 max           0 min
Histogram: 8 4 4 0 10 6 8 8 24 32

Total # of neighbors = 8238197
Ave neighs/atom = 28.530454
Neighbor list builds = 0
Dangerous builds = 0
The dot product: 1.43930899025157e-07
The cos of the angle between the force vector and the displacement vector: 0.0101142939981861
The angle: 89.4204837602132
Setting atom values ...
  1 settings made for x
  1 settings made for y
  1 settings made for z
Setting up cg style minimization ...
  Unit style    : metal
  Current step  : 5273
Per MPI rank memory allocation (min/avg/max) = 5.441 | 5.816 | 6.074 Mbytes
Step PotEng KinEng TotEng v_fx v_fy v_fz 
    5273   -1152449.3            0   -1152449.3 0.0017044087 -0.086697116 -0.045704161 
    5458   -1152449.3            0   -1152449.3 -3.666984e-07 1.7203761e-05 8.9824533e-06 
Loop time of 2.16105 on 104 procs for 185 steps with 288751 atoms

99.9% CPU use with 104 MPI tasks x 1 OpenMP threads

Minimization stats:
  Stopping criterion = energy tolerance
  Energy initial, next-to-last, final = 
     -1152449.34088035  -1152449.34363207  -1152449.34363207
  Force two-norm initial, final = 0.23863934 0.00015099349
  Force max component initial, final = 0.086697116 1.9679250e-05
  Final line search alpha, max atom move = 1.0000000 1.9679250e-05
  Iterations, force evaluations = 185 370

MPI task timing breakdown:
Section |  min time  |  avg time  |  max time  |%varavg| %total
---------------------------------------------------------------
Pair    | 0.5604     | 1.5603     | 2.041      |  33.6 | 72.20
Neigh   | 0          | 0          | 0          |   0.0 |  0.00
Comm    | 0.040433   | 0.35062    | 1.0525     |  49.7 | 16.22
Output  | 0          | 0          | 0          |   0.0 |  0.00
Modify  | 2.2209e-05 | 0.0030609  | 0.0064735  |   2.6 |  0.14
Other   |            | 0.247      |            |       | 11.43

Nlocal:        2776.45 ave        3959 max           0 min
Histogram: 8 4 4 0 4 12 8 2 28 34
Nghost:        3879.01 ave        5424 max         232 min
Histogram: 8 0 8 0 16 0 8 8 16 40
Neighs:        79213.4 ave      115403 max           0 min
Histogram: 8 4 4 0 10 6 8 8 24 32

Total # of neighbors = 8238196
Ave neighs/atom = 28.530450
Neighbor list builds = 0
Dangerous builds = 0
The dot product: -1.27125881509893e-07
The cos of the angle between the force vector and the displacement vector: -0.00654915473473359
The angle: 90.3752416081522
Setting atom values ...
  1 settings made for x
  1 settings made for y
  1 settings made for z
Setting up cg style minimization ...
  Unit style    : metal
  Current step  : 5458
Per MPI rank memory allocation (min/avg/max) = 5.441 | 5.816 | 6.074 Mbytes
Step PotEng KinEng TotEng v_fx v_fy v_fz 
    5458   -1152449.3            0   -1152449.3 0.0023954117 -0.088223749 -0.042404663 
    5666   -1152449.3            0   -1152449.3 -3.9698001e-06 3.0872077e-06 -1.024375e-05 
Loop time of 2.42853 on 104 procs for 208 steps with 288751 atoms

99.9% CPU use with 104 MPI tasks x 1 OpenMP threads

Minimization stats:
  Stopping criterion = energy tolerance
  Energy initial, next-to-last, final = 
     -1152449.34659501  -1152449.34936884  -1152449.34936884
  Force two-norm initial, final = 0.23848642 9.1668288e-05
  Force max component initial, final = 0.08968083 1.5610657e-05
  Final line search alpha, max atom move = 1.0000000 1.5610657e-05
  Iterations, force evaluations = 208 416

MPI task timing breakdown:
Section |  min time  |  avg time  |  max time  |%varavg| %total
---------------------------------------------------------------
Pair    | 0.63035    | 1.7488     | 2.2915     |  35.7 | 72.01
Neigh   | 0          | 0          | 0          |   0.0 |  0.00
Comm    | 0.039253   | 0.39159    | 1.1874     |  53.0 | 16.12
Output  | 0          | 0          | 0          |   0.0 |  0.00
Modify  | 2.4737e-05 | 0.0034379  | 0.0073216  |   2.8 |  0.14
Other   |            | 0.2847     |            |       | 11.72

Nlocal:        2776.45 ave        3959 max           0 min
Histogram: 8 4 4 0 4 12 8 2 28 34
Nghost:        3879.01 ave        5424 max         232 min
Histogram: 8 0 8 0 16 0 8 8 16 40
Neighs:        79213.4 ave      115403 max           0 min
Histogram: 8 4 4 0 10 6 8 8 24 32

Total # of neighbors = 8238189
Ave neighs/atom = 28.530426
Neighbor list builds = 0
Dangerous builds = 0
The dot product: 1.24607615797828e-08
The cos of the angle between the force vector and the displacement vector: 0.00109193834104754
The angle: 89.9374365291369
Setting atom values ...
  1 settings made for x
  1 settings made for y
  1 settings made for z
Setting up cg style minimization ...
  Unit style    : metal
  Current step  : 5666
Per MPI rank memory allocation (min/avg/max) = 5.441 | 5.816 | 6.074 Mbytes
Step PotEng KinEng TotEng v_fx v_fy v_fz 
    5666   -1152449.3            0   -1152449.3 0.0027104109 -0.086716063  -0.03853509 
    5853   -1152449.4            0   -1152449.4 5.4116592e-06 2.0470561e-05 2.718232e-05 
Loop time of 2.21375 on 104 procs for 187 steps with 288751 atoms

99.9% CPU use with 104 MPI tasks x 1 OpenMP threads

Minimization stats:
  Stopping criterion = energy tolerance
  Energy initial, next-to-last, final = 
     -1152449.34878519  -1152449.35154719  -1152449.35154719
  Force two-norm initial, final = 0.23662361 0.00014457439
  Force max component initial, final = 0.092989782 2.7182320e-05
  Final line search alpha, max atom move = 1.0000000 2.7182320e-05
  Iterations, force evaluations = 187 374

MPI task timing breakdown:
Section |  min time  |  avg time  |  max time  |%varavg| %total
---------------------------------------------------------------
Pair    | 0.56815    | 1.5783     | 2.0868     |  33.8 | 71.29
Neigh   | 0          | 0          | 0          |   0.0 |  0.00
Comm    | 0.035708   | 0.36013    | 1.0781     |  49.5 | 16.27
Output  | 0          | 0          | 0          |   0.0 |  0.00
Modify  | 2.2769e-05 | 0.0030907  | 0.0065885  |   2.6 |  0.14
Other   |            | 0.2722     |            |       | 12.30

Nlocal:        2776.45 ave        3959 max           0 min
Histogram: 8 4 4 0 4 12 8 2 28 34
Nghost:        3879.01 ave        5424 max         232 min
Histogram: 8 0 8 0 16 0 8 8 16 40
Neighs:        79213.4 ave      115403 max           0 min
Histogram: 8 4 4 0 10 6 8 8 24 32

Total # of neighbors = 8238189
Ave neighs/atom = 28.530426
Neighbor list builds = 0
Dangerous builds = 0
The dot product: -1.94755947110978e-07
The cos of the angle between the force vector and the displacement vector: -0.00565232644094829
The angle: 90.3238561739812
Setting atom values ...
  1 settings made for x
  1 settings made for y
  1 settings made for z
Setting up cg style minimization ...
  Unit style    : metal
  Current step  : 5853
Per MPI rank memory allocation (min/avg/max) = 5.441 | 5.816 | 6.074 Mbytes
Step PotEng KinEng TotEng v_fx v_fy v_fz 
    5853   -1152449.3            0   -1152449.3 0.0028568437 -0.086027409  -0.03581586 
    6000   -1152449.4            0   -1152449.4 3.4545137e-05 -2.1705758e-05 9.1150045e-05 
    6057   -1152449.4            0   -1152449.4 -3.1363063e-06 -1.1916877e-05 -1.5423205e-05 
Loop time of 2.39756 on 104 procs for 204 steps with 288751 atoms

99.9% CPU use with 104 MPI tasks x 1 OpenMP threads

Minimization stats:
  Stopping criterion = energy tolerance
  Energy initial, next-to-last, final = 
     -1152449.34753006  -1152449.35027625  -1152449.35027625
  Force two-norm initial, final = 0.23508004 9.7518030e-05
  Force max component initial, final = 0.096140776 1.5423205e-05
  Final line search alpha, max atom move = 1.0000000 1.5423205e-05
  Iterations, force evaluations = 204 408

MPI task timing breakdown:
Section |  min time  |  avg time  |  max time  |%varavg| %total
---------------------------------------------------------------
Pair    | 0.62313    | 1.7157     | 2.2522     |  35.2 | 71.56
Neigh   | 0          | 0          | 0          |   0.0 |  0.00
Comm    | 0.044118   | 0.38887    | 1.1735     |  52.1 | 16.22
Output  | 0.00014949 | 0.0001523  | 0.00029489 |   0.0 |  0.01
Modify  | 2.4448e-05 | 0.0033715  | 0.0071629  |   2.7 |  0.14
Other   |            | 0.2895     |            |       | 12.07

Nlocal:        2776.45 ave        3960 max           0 min
Histogram: 8 4 4 0 4 12 8 2 28 34
Nghost:        3879.01 ave        5424 max         232 min
Histogram: 8 0 8 0 16 0 8 8 16 40
Neighs:        79213.4 ave      115434 max           0 min
Histogram: 8 4 4 0 10 6 8 8 24 32

Total # of neighbors = 8238195
Ave neighs/atom = 28.530447
Neighbor list builds = 0
Dangerous builds = 0
The dot product: 1.11917887645747e-07
The cos of the angle between the force vector and the displacement vector: 0.00566919167981468
The angle: 89.6751775035284
Setting atom values ...
  1 settings made for x
  1 settings made for y
  1 settings made for z
Setting up cg style minimization ...
  Unit style    : metal
  Current step  : 6057
Per MPI rank memory allocation (min/avg/max) = 5.441 | 5.816 | 6.074 Mbytes
Step PotEng KinEng TotEng v_fx v_fy v_fz 
    6057   -1152449.3            0   -1152449.3 0.0022797804 -0.089379362 -0.037280379 
    6240   -1152449.3            0   -1152449.3 2.6094873e-06 -1.7797917e-06 6.786211e-06 
Loop time of 2.14632 on 104 procs for 183 steps with 288751 atoms

99.9% CPU use with 104 MPI tasks x 1 OpenMP threads

Minimization stats:
  Stopping criterion = energy tolerance
  Energy initial, next-to-last, final = 
     -1152449.34310252  -1152449.34588974  -1152449.34588974
  Force two-norm initial, final = 0.23574425 0.00013746498
  Force max component initial, final = 0.099115174 2.3492674e-05
  Final line search alpha, max atom move = 1.0000000 2.3492674e-05
  Iterations, force evaluations = 183 366

MPI task timing breakdown:
Section |  min time  |  avg time  |  max time  |%varavg| %total
---------------------------------------------------------------
Pair    | 0.5586     | 1.5417     | 2.0267     |  33.4 | 71.83
Neigh   | 0          | 0          | 0          |   0.0 |  0.00
Comm    | 0.035515   | 0.34664    | 1.0374     |  49.4 | 16.15
Output  | 0          | 0          | 0          |   0.0 |  0.00
Modify  | 2.1977e-05 | 0.0030206  | 0.0063864  |   2.6 |  0.14
Other   |            | 0.2549     |            |       | 11.88

Nlocal:        2776.45 ave        3961 max           0 min
Histogram: 8 4 4 0 6 10 8 2 28 34
Nghost:        3879.03 ave        5424 max         232 min
Histogram: 8 0 8 0 16 0 8 8 16 40
Neighs:        79213.4 ave      115465 max           0 min
Histogram: 8 4 4 0 10 6 8 8 24 32

Total # of neighbors = 8238193
Ave neighs/atom = 28.530440
Neighbor list builds = 0
Dangerous builds = 0
The dot product: -1.1851418339279e-08
The cos of the angle between the force vector and the displacement vector: -0.00158329199289571
The angle: 90.0907159868314
Setting atom values ...
  1 settings made for x
  1 settings made for y
  1 settings made for z
Setting up cg style minimization ...
  Unit style    : metal
  Current step  : 6240
Per MPI rank memory allocation (min/avg/max) = 5.441 | 5.816 | 6.074 Mbytes
Step PotEng KinEng TotEng v_fx v_fy v_fz 
    6240   -1152449.3            0   -1152449.3 -5.36259e-05  -0.10171304 -0.047369179 
    6537   -1152449.4            0   -1152449.4 -5.1416883e-07 -2.1631234e-06 -2.4967604e-06 
Loop time of 3.46473 on 104 procs for 297 steps with 288751 atoms

99.9% CPU use with 104 MPI tasks x 1 OpenMP threads

Minimization stats:
  Stopping criterion = energy tolerance
  Energy initial, next-to-last, final = 
     -1152449.33634321  -1152449.36620499  -1152449.36620499
  Force two-norm initial, final = 0.2440487 1.9164005e-05
  Force max component initial, final = 0.10195127 2.4967604e-06
  Final line search alpha, max atom move = 1.0000000 2.4967604e-06
  Iterations, force evaluations = 297 594

MPI task timing breakdown:
Section |  min time  |  avg time  |  max time  |%varavg| %total
---------------------------------------------------------------
Pair    | 0.90372    | 2.488      | 3.2676     |  42.3 | 71.81
Neigh   | 1.0212e-05 | 0.002965   | 0.0043064  |   2.2 |  0.09
Comm    | 0.056417   | 0.56144    | 1.6912     |  62.4 | 16.20
Output  | 0          | 0          | 0          |   0.0 |  0.00
Modify  | 3.5243e-05 | 0.004901   | 0.010376   |   3.3 |  0.14
Other   |            | 0.4074     |            |       | 11.76

Nlocal:        2776.45 ave        3961 max           0 min
Histogram: 8 4 4 0 6 10 8 2 28 34
Nghost:        3879.03 ave        5424 max         232 min
Histogram: 8 0 8 0 16 0 8 8 16 40
Neighs:        79213.4 ave      115457 max           0 min
Histogram: 8 4 4 0 10 6 8 8 24 32

Total # of neighbors = 8238194
Ave neighs/atom = 28.530443
Neighbor list builds = 1
Dangerous builds = 0
The dot product: 4.50286845436717e-07
The cos of the angle between the force vector and the displacement vector: 0.134685579646123
The angle: 82.2595611177996
Setting atom values ...
  1 settings made for x
  1 settings made for y
  1 settings made for z
Setting up cg style minimization ...
  Unit style    : metal
  Current step  : 6537
Per MPI rank memory allocation (min/avg/max) = 5.441 | 5.816 | 6.074 Mbytes
Step PotEng KinEng TotEng v_fx v_fy v_fz 
    6537   -1152449.4            0   -1152449.4  0.012292818 -0.0094633944  0.028395495 
    6685   -1152449.4            0   -1152449.4 8.3262812e-06 -1.200518e-05 1.8892169e-05 
Loop time of 1.75523 on 104 procs for 148 steps with 288751 atoms

99.9% CPU use with 104 MPI tasks x 1 OpenMP threads

Minimization stats:
  Stopping criterion = energy tolerance
  Energy initial, next-to-last, final = 
     -1152449.37912536  -1152449.38214817  -1152449.38214817
  Force two-norm initial, final = 0.22598007 0.00013105831
  Force max component initial, final = 0.098273948 2.4818547e-05
  Final line search alpha, max atom move = 1.0000000 2.4818547e-05
  Iterations, force evaluations = 148 296

MPI task timing breakdown:
Section |  min time  |  avg time  |  max time  |%varavg| %total
---------------------------------------------------------------
Pair    | 0.44717    | 1.2516     | 1.6578     |  30.2 | 71.30
Neigh   | 0          | 0          | 0          |   0.0 |  0.00
Comm    | 0.029737   | 0.28243    | 0.84466    |  44.6 | 16.09
Output  | 0          | 0          | 0          |   0.0 |  0.00
Modify  | 1.7738e-05 | 0.0024491  | 0.00519    |   2.3 |  0.14
Other   |            | 0.2188     |            |       | 12.47

Nlocal:        2776.45 ave        3958 max           0 min
Histogram: 8 4 4 0 4 12 8 2 28 34
Nghost:        3879.05 ave        5424 max         232 min
Histogram: 8 0 8 0 16 0 8 8 16 40
Neighs:        79213.5 ave      115369 max           0 min
Histogram: 8 4 4 0 10 6 8 8 24 32

Total # of neighbors = 8238201
Ave neighs/atom = 28.530467
Neighbor list builds = 0
Dangerous builds = 0
The dot product: -1.13803703446392e-08
The cos of the angle between the force vector and the displacement vector: -0.000476518566904767
The angle: 90.0273025037768
Setting atom values ...
  1 settings made for x
  1 settings made for y
  1 settings made for z
Setting up cg style minimization ...
  Unit style    : metal
  Current step  : 6685
Per MPI rank memory allocation (min/avg/max) = 5.441 | 5.816 | 6.074 Mbytes
Step PotEng KinEng TotEng v_fx v_fy v_fz 
    6685   -1152449.4            0   -1152449.4 -0.001551411 -0.085007671 -0.010667586 
    6879   -1152449.4            0   -1152449.4 9.8121595e-06 1.2855006e-05 2.4442783e-05 
Loop time of 2.25878 on 104 procs for 194 steps with 288751 atoms

99.9% CPU use with 104 MPI tasks x 1 OpenMP threads

Minimization stats:
  Stopping criterion = energy tolerance
  Energy initial, next-to-last, final = 
     -1152449.39342096  -1152449.39742585  -1152449.39742585
  Force two-norm initial, final = 0.24371268 7.7168121e-05
  Force max component initial, final = 0.10100765 2.4442783e-05
  Final line search alpha, max atom move = 1.0000000 2.4442783e-05
  Iterations, force evaluations = 194 388

MPI task timing breakdown:
Section |  min time  |  avg time  |  max time  |%varavg| %total
---------------------------------------------------------------
Pair    | 0.58878    | 1.6269     | 2.1247     |  34.3 | 72.03
Neigh   | 0          | 0          | 0          |   0.0 |  0.00
Comm    | 0.038748   | 0.36455    | 1.098      |  50.9 | 16.14
Output  | 0          | 0          | 0          |   0.0 |  0.00
Modify  | 2.3225e-05 | 0.003201   | 0.0067899  |   2.7 |  0.14
Other   |            | 0.2641     |            |       | 11.69

Nlocal:        2776.45 ave        3959 max           0 min
Histogram: 8 4 4 0 4 12 8 2 28 34
Nghost:        3879.01 ave        5424 max         232 min
Histogram: 8 0 8 0 16 0 8 8 16 40
Neighs:        79213.5 ave      115403 max           0 min
Histogram: 8 4 4 0 10 6 8 8 24 32

Total # of neighbors = 8238206
Ave neighs/atom = 28.530485
Neighbor list builds = 0
Dangerous builds = 0
The dot product: -5.62425429981488e-07
The cos of the angle between the force vector and the displacement vector: -0.0191899389999483
The angle: 91.0995700076512
Setting atom values ...
  1 settings made for x
  1 settings made for y
  1 settings made for z
Setting up cg style minimization ...
  Unit style    : metal
  Current step  : 6879
Per MPI rank memory allocation (min/avg/max) = 5.441 | 5.816 | 6.074 Mbytes
Step PotEng KinEng TotEng v_fx v_fy v_fz 
    6879   -1152449.4            0   -1152449.4 0.0012349578  -0.06273069  0.001876689 
    6987   -1152449.4            0   -1152449.4 1.5448217e-05 -1.2522334e-05 3.5721736e-05 
Loop time of 1.27782 on 104 procs for 108 steps with 288751 atoms

99.9% CPU use with 104 MPI tasks x 1 OpenMP threads

Minimization stats:
  Stopping criterion = energy tolerance
  Energy initial, next-to-last, final = 
     -1152449.41041011  -1152449.41359643  -1152449.41359643
  Force two-norm initial, final = 0.2399606 0.00013167479
  Force max component initial, final = 0.099008709 3.5721736e-05
  Final line search alpha, max atom move = 1.0000000 3.5721736e-05
  Iterations, force evaluations = 108 216

MPI task timing breakdown:
Section |  min time  |  avg time  |  max time  |%varavg| %total
---------------------------------------------------------------
Pair    | 0.32655    | 0.9137     | 1.207      |  25.8 | 71.50
Neigh   | 0          | 0          | 0          |   0.0 |  0.00
Comm    | 0.023953   | 0.20602    | 0.61735    |  38.1 | 16.12
Output  | 0          | 0          | 0          |   0.0 |  0.00
Modify  | 1.3282e-05 | 0.001789   | 0.0037891  |   2.0 |  0.14
Other   |            | 0.1563     |            |       | 12.23

Nlocal:        2776.45 ave        3959 max           0 min
Histogram: 8 4 4 0 4 12 8 2 28 34
Nghost:        3879.09 ave        5424 max         232 min
Histogram: 8 0 8 0 16 0 8 8 16 40
Neighs:        79213.5 ave      115404 max           0 min
Histogram: 8 4 4 0 10 6 8 8 24 32

Total # of neighbors = 8238204
Ave neighs/atom = 28.530478
Neighbor list builds = 0
Dangerous builds = 0
The dot product: 6.46490721174186e-09
The cos of the angle between the force vector and the displacement vector: 0.000158128181359539
The angle: 89.9909399225484
Setting atom values ...
  1 settings made for x
  1 settings made for y
  1 settings made for z
Setting up cg style minimization ...
  Unit style    : metal
  Current step  : 6987
Per MPI rank memory allocation (min/avg/max) = 5.441 | 5.816 | 6.074 Mbytes
Step PotEng KinEng TotEng v_fx v_fy v_fz 
    6987   -1152449.4            0   -1152449.4  0.011650863 -0.040480636  0.027090885 
    7000   -1152449.4            0   -1152449.4 -0.00053890503 -0.00053616915 -0.0012423896 
    7314   -1152449.4            0   -1152449.4 2.1213262e-08 3.1555104e-08 4.8858612e-08 
Loop time of 3.86606 on 104 procs for 327 steps with 288751 atoms

99.9% CPU use with 104 MPI tasks x 1 OpenMP threads

Minimization stats:
  Stopping criterion = energy tolerance
  Energy initial, next-to-last, final = 
     -1152449.42501862  -1152449.42766929  -1152449.42766929
  Force two-norm initial, final = 0.23314438 4.5299136e-07
  Force max component initial, final = 0.099104952 8.8777401e-08
  Final line search alpha, max atom move = 1.0000000 8.8777401e-08
  Iterations, force evaluations = 327 654

MPI task timing breakdown:
Section |  min time  |  avg time  |  max time  |%varavg| %total
---------------------------------------------------------------
Pair    | 0.99731    | 2.7476     | 3.6097     |  44.6 | 71.07
Neigh   | 0          | 0          | 0          |   0.0 |  0.00
Comm    | 0.074078   | 0.62439    | 1.8546     |  65.3 | 16.15
Output  | 0.00015894 | 0.00016182 | 0.0002295  |   0.0 |  0.00
Modify  | 3.8337e-05 | 0.005387   | 0.011406   |   3.5 |  0.14
Other   |            | 0.4885     |            |       | 12.64

Nlocal:        2776.45 ave        3959 max           0 min
Histogram: 8 4 4 0 4 12 8 2 28 34
Nghost:        3879.05 ave        5424 max         232 min
Histogram: 8 0 8 0 16 0 8 8 16 40
Neighs:        79213.5 ave      115404 max           0 min
Histogram: 8 4 4 0 10 6 8 8 24 32

Total # of neighbors = 8238202
Ave neighs/atom = 28.530471
Neighbor list builds = 0
Dangerous builds = 0
The dot product: 4.55300274441305e-11
The cos of the angle between the force vector and the displacement vector: 0.000735418714065908
The angle: 89.9578636077109
Setting up cg style minimization ...
  Unit style    : metal
  Current step  : 7314
Per MPI rank memory allocation (min/avg/max) = 5.441 | 5.816 | 6.074 Mbytes
Step PotEng KinEng TotEng v_fx v_fy v_fz 
    7314   -1152449.4            0   -1152449.4   0.38266287 -0.00073498883  -0.16566846 
    7538   -1152449.5            0   -1152449.5 1.2794611e-05 2.1650177e-05 -4.0333271e-05 
Loop time of 2.61323 on 104 procs for 224 steps with 288751 atoms

99.9% CPU use with 104 MPI tasks x 1 OpenMP threads

Minimization stats:
  Stopping criterion = energy tolerance
  Energy initial, next-to-last, final = 
     -1152449.42766929  -1152449.45035269  -1152449.45035269
  Force two-norm initial, final = 0.41698615 0.00017207776
  Force max component initial, final = 0.38266287 4.0333271e-05
  Final line search alpha, max atom move = 1.0000000 4.0333271e-05
  Iterations, force evaluations = 224 448

MPI task timing breakdown:
Section |  min time  |  avg time  |  max time  |%varavg| %total
---------------------------------------------------------------
Pair    | 0.68395    | 1.8875     | 2.459      |  36.9 | 72.23
Neigh   | 1.018e-05  | 0.0029578  | 0.0042969  |   2.2 |  0.11
Comm    | 0.051047   | 0.42309    | 1.2667     |  54.8 | 16.19
Output  | 0          | 0          | 0          |   0.0 |  0.00
Modify  | 2.3785e-05 | 0.002407   | 0.006132   |   3.1 |  0.09
Other   |            | 0.2973     |            |       | 11.38

Nlocal:        2776.45 ave        3959 max           0 min
Histogram: 8 4 4 0 4 12 8 2 28 34
Nghost:        3879.01 ave        5424 max         232 min
Histogram: 8 0 8 0 16 0 8 8 16 40
Neighs:        79213.5 ave      115403 max           0 min
Histogram: 8 4 4 0 10 6 8 8 24 32

Total # of neighbors = 8238208
Ave neighs/atom = 28.530492
Neighbor list builds = 1
Dangerous builds = 0
OMP_NUM_THREADS environment is not set. Defaulting to 1 thread. (../comm.cpp:94)
  using 1 OpenMP thread(s) per MPI task
Reading data file ...
  orthogonal box = (-122.39241 -121.13707 -37.090501) to (122.39241 121.13707 37.090501)
[...]
      -1152449.3322757  -1152449.33507221  -1152449.33507221
  Force two-norm initial, final = 0.2428004 0.00024451937
  Force max component initial, final = 0.099241778 4.9056046e-05
  Final line search alpha, max atom move = 1.0000000 4.9056046e-05
  Iterations, force evaluations = 174 348

MPI task timing breakdown:
Section |  min time  |  avg time  |  max time  |%varavg| %total
---------------------------------------------------------------
Pair    | 0.52419    | 1.4656     | 1.9366     |  32.8 | 71.47
Neigh   | 0          | 0          | 0          |   0.0 |  0.00
Comm    | 0.02925    | 0.33476    | 0.99248    |  47.5 | 16.32
Output  | 0          | 0          | 0          |   0.0 |  0.00
Modify  | 2.1116e-05 | 0.00288    | 0.006163   |   2.5 |  0.14
Other   |            | 0.2474     |            |       | 12.06

Nlocal:        2776.45 ave        3959 max           0 min
Histogram: 8 4 4 0 4 12 8 2 28 34
Nghost:        3879.03 ave        5424 max         232 min
Histogram: 8 0 8 0 16 0 8 8 16 40
Neighs:        79213.4 ave      115403 max           0 min
Histogram: 8 4 4 0 10 6 8 8 24 32

Total # of neighbors = 8238197
Ave neighs/atom = 28.530454
Neighbor list builds = 0
Dangerous builds = 0
The dot product: -5.76912044050928e-08
The cos of the angle between the force vector and the displacement vector: -0.00103743681695408
The angle: 90.0594407617857
Setting atom values ...
  1 settings made for x
  1 settings made for y
  1 settings made for z
Setting up cg style minimization ...
  Unit style    : metal
  Current step  : 5536
Per MPI rank memory allocation (min/avg/max) = 5.441 | 5.816 | 6.074 Mbytes
Step PotEng KinEng TotEng v_fx v_fy v_fz 
    5536   -1152449.3            0   -1152449.3 0.0017264085 -0.086842982 -0.045576906 
    5732   -1152449.3            0   -1152449.3 -6.3374271e-06 1.239218e-05 -1.2058443e-05 
Loop time of 2.3065 on 104 procs for 196 steps with 288751 atoms

99.9% CPU use with 104 MPI tasks x 1 OpenMP threads

Minimization stats:
  Stopping criterion = energy tolerance
  Energy initial, next-to-last, final = 
     -1152449.34139764  -1152449.34415216  -1152449.34415216
  Force two-norm initial, final = 0.23868962 0.0001183196
  Force max component initial, final = 0.086842982 1.3269870e-05
  Final line search alpha, max atom move = 1.0000000 1.3269870e-05
  Iterations, force evaluations = 196 392

MPI task timing breakdown:
Section |  min time  |  avg time  |  max time  |%varavg| %total
---------------------------------------------------------------
Pair    | 0.59023    | 1.6591     | 2.1731     |  34.9 | 71.93
Neigh   | 0          | 0          | 0          |   0.0 |  0.00
Comm    | 0.034068   | 0.3774     | 1.128      |  50.9 | 16.36
Output  | 0          | 0          | 0          |   0.0 |  0.00
Modify  | 2.3953e-05 | 0.0032351  | 0.0068987  |   2.7 |  0.14
Other   |            | 0.2668     |            |       | 11.57

Nlocal:        2776.45 ave        3959 max           0 min
Histogram: 8 4 4 0 4 12 8 2 28 34
Nghost:        3879.01 ave        5424 max         232 min
Histogram: 8 0 8 0 16 0 8 8 16 40
Neighs:        79213.4 ave      115403 max           0 min
Histogram: 8 4 4 0 10 6 8 8 24 32

Total # of neighbors = 8238196
Ave neighs/atom = 28.530450
Neighbor list builds = 0
Dangerous builds = 0
The dot product: -3.22953522260898e-08
The cos of the angle between the force vector and the displacement vector: -0.00175369318237247
The angle: 90.1004792694141
Setting atom values ...
  1 settings made for x
  1 settings made for y
  1 settings made for z
Setting up cg style minimization ...
  Unit style    : metal
  Current step  : 5732
Per MPI rank memory allocation (min/avg/max) = 5.441 | 5.816 | 6.074 Mbytes
Step PotEng KinEng TotEng v_fx v_fy v_fz 
    5732   -1152449.3            0   -1152449.3 0.0024131468 -0.088147737 -0.042155318 
    5978   -1152449.3            0   -1152449.3 -8.2381974e-07 1.5953805e-07 -2.3949676e-06 
Loop time of 2.92763 on 104 procs for 246 steps with 288751 atoms

99.9% CPU use with 104 MPI tasks x 1 OpenMP threads

Minimization stats:
  Stopping criterion = energy tolerance
  Energy initial, next-to-last, final = 
     -1152449.34686367  -1152449.34963732  -1152449.34963732
  Force two-norm initial, final = 0.23838086 1.6831299e-05
  Force max component initial, final = 0.089911794 2.3949676e-06
  Final line search alpha, max atom move = 1.0000000 2.3949676e-06
  Iterations, force evaluations = 246 492

MPI task timing breakdown:
Section |  min time  |  avg time  |  max time  |%varavg| %total
---------------------------------------------------------------
Pair    | 0.7384     | 2.0695     | 2.7234     |  39.0 | 70.69
Neigh   | 0          | 0          | 0          |   0.0 |  0.00
Comm    | 0.0454     | 0.47013    | 1.3978     |  56.6 | 16.06
Output  | 0          | 0          | 0          |   0.0 |  0.00
Modify  | 3.049e-05  | 0.0040599  | 0.0086004  |   3.0 |  0.14
Other   |            | 0.3839     |            |       | 13.11

Nlocal:        2776.45 ave        3959 max           0 min
Histogram: 8 4 4 0 4 12 8 2 28 34
Nghost:        3879.01 ave        5424 max         232 min
Histogram: 8 0 8 0 16 0 8 8 16 40
Neighs:        79213.4 ave      115403 max           0 min
Histogram: 8 4 4 0 10 6 8 8 24 32

Total # of neighbors = 8238189
Ave neighs/atom = 28.530426
Neighbor list builds = 0
Dangerous builds = 0
The dot product: 6.28276306655825e-09
The cos of the angle between the force vector and the displacement vector: 0.00247575525241636
The angle: 89.8581495280201
Setting atom values ...
  1 settings made for x
  1 settings made for y
  1 settings made for z
Setting up cg style minimization ...
  Unit style    : metal
  Current step  : 5978
Per MPI rank memory allocation (min/avg/max) = 5.441 | 5.816 | 6.074 Mbytes
Step PotEng KinEng TotEng v_fx v_fy v_fz 
    5978   -1152449.3            0   -1152449.3 0.0027338571 -0.086614837 -0.038270397 
    6000   -1152449.4            0   -1152449.4 -0.00028972087 -0.00064139661 -0.0012091434 
    6240   -1152449.4            0   -1152449.4 -3.8074074e-07 -1.2213852e-06 -1.7919234e-06 
Loop time of 3.09604 on 104 procs for 262 steps with 288751 atoms

99.9% CPU use with 104 MPI tasks x 1 OpenMP threads

Minimization stats:
  Stopping criterion = energy tolerance
  Energy initial, next-to-last, final = 
     -1152449.34880776  -1152449.35156854  -1152449.35156854
  Force two-norm initial, final = 0.23649422 7.5531459e-06
  Force max component initial, final = 0.093226799 1.7919234e-06
  Final line search alpha, max atom move = 1.0000000 1.7919234e-06
  Iterations, force evaluations = 262 524

MPI task timing breakdown:
Section |  min time  |  avg time  |  max time  |%varavg| %total
---------------------------------------------------------------
Pair    | 0.78614    | 2.2118     | 2.9304     |  40.5 | 71.44
Neigh   | 0          | 0          | 0          |   0.0 |  0.00
Comm    | 0.045977   | 0.5061     | 1.4931     |  58.1 | 16.35
Output  | 0.00010529 | 0.00010892 | 0.00019795 |   0.0 |  0.00
Modify  | 3.1667e-05 | 0.0043141  | 0.00917    |   3.1 |  0.14
Other   |            | 0.3737     |            |       | 12.07

Nlocal:        2776.45 ave        3960 max           0 min
Histogram: 8 4 4 0 4 12 8 2 28 34
Nghost:        3879.01 ave        5424 max         232 min
Histogram: 8 0 8 0 16 0 8 8 16 40
Neighs:        79213.4 ave      115434 max           0 min
Histogram: 8 4 4 0 10 6 8 8 24 32

Total # of neighbors = 8238189
Ave neighs/atom = 28.530426
Neighbor list builds = 0
Dangerous builds = 0
The dot product: 1.20728581421524e-08
The cos of the angle between the force vector and the displacement vector: 0.00548328313556305
The angle: 89.6858294441143
Setting atom values ...
  1 settings made for x
  1 settings made for y
  1 settings made for z
Setting up cg style minimization ...
  Unit style    : metal
  Current step  : 6240
Per MPI rank memory allocation (min/avg/max) = 5.441 | 5.816 | 6.074 Mbytes
Step PotEng KinEng TotEng v_fx v_fy v_fz 
    6240   -1152449.3            0   -1152449.3 0.0028422567 -0.086108853 -0.035768774 
    6480   -1152449.4            0   -1152449.4 -3.0630143e-07 -1.5546991e-06 -1.7043752e-06 
Loop time of 2.79172 on 104 procs for 240 steps with 288751 atoms

99.9% CPU use with 104 MPI tasks x 1 OpenMP threads

Minimization stats:
  Stopping criterion = energy tolerance
  Energy initial, next-to-last, final = 
     -1152449.34731742   -1152449.3500635   -1152449.3500635
  Force two-norm initial, final = 0.23505253 2.0917372e-05
  Force max component initial, final = 0.096359087 3.8515087e-06
  Final line search alpha, max atom move = 1.0000000 3.8515087e-06
  Iterations, force evaluations = 240 480

MPI task timing breakdown:
Section |  min time  |  avg time  |  max time  |%varavg| %total
---------------------------------------------------------------
Pair    | 0.72269    | 2.0173     | 2.6323     |  38.3 | 72.26
Neigh   | 0          | 0          | 0          |   0.0 |  0.00
Comm    | 0.046933   | 0.45365    | 1.3617     |  56.5 | 16.25
Output  | 0          | 0          | 0          |   0.0 |  0.00
Modify  | 2.8984e-05 | 0.0039475  | 0.0084224  |   3.0 |  0.14
Other   |            | 0.3168     |            |       | 11.35

Nlocal:        2776.45 ave        3960 max           0 min
Histogram: 8 4 4 0 4 12 8 2 28 34
Nghost:        3879.01 ave        5424 max         232 min
Histogram: 8 0 8 0 16 0 8 8 16 40
Neighs:        79213.4 ave      115434 max           0 min
Histogram: 8 4 4 0 10 6 8 8 24 32

Total # of neighbors = 8238196
Ave neighs/atom = 28.530450
Neighbor list builds = 0
Dangerous builds = 0
The dot product: 1.38073759922494e-08
The cos of the angle between the force vector and the displacement vector: 0.0059330724945871
The angle: 89.6600579920925
Setting atom values ...
  1 settings made for x
  1 settings made for y
  1 settings made for z
Setting up cg style minimization ...
  Unit style    : metal
  Current step  : 6480
Per MPI rank memory allocation (min/avg/max) = 5.441 | 5.816 | 6.074 Mbytes
Step PotEng KinEng TotEng v_fx v_fy v_fz 
    6480   -1152449.3            0   -1152449.3 0.0021956414 -0.089859439 -0.037617153 
    6658   -1152449.3            0   -1152449.3 -6.7720163e-06 -1.7147442e-05 -2.8278059e-05 
Loop time of 2.13679 on 104 procs for 178 steps with 288751 atoms

99.9% CPU use with 104 MPI tasks x 1 OpenMP threads

Minimization stats:
  Stopping criterion = energy tolerance
  Energy initial, next-to-last, final = 
     -1152449.34268751  -1152449.34548543  -1152449.34548543
  Force two-norm initial, final = 0.23594503 0.00016912607
  Force max component initial, final = 0.099317479 2.8278059e-05
  Final line search alpha, max atom move = 1.0000000 2.8278059e-05
  Iterations, force evaluations = 178 356

MPI task timing breakdown:
Section |  min time  |  avg time  |  max time  |%varavg| %total
---------------------------------------------------------------
Pair    | 0.54371    | 1.513      | 1.9855     |  33.2 | 70.81
Neigh   | 0          | 0          | 0          |   0.0 |  0.00
Comm    | 0.03513    | 0.3498     | 1.0319     |  47.9 | 16.37
Output  | 0          | 0          | 0          |   0.0 |  0.00
Modify  | 2.3024e-05 | 0.0029398  | 0.0062476  |   2.5 |  0.14
Other   |            | 0.2711     |            |       | 12.69

Nlocal:        2776.45 ave        3961 max           0 min
Histogram: 8 4 4 0 6 10 8 2 28 34
Nghost:        3879.03 ave        5424 max         232 min
Histogram: 8 0 8 0 16 0 8 8 16 40
Neighs:        79213.4 ave      115465 max           0 min
Histogram: 8 4 4 0 10 6 8 8 24 32

Total # of neighbors = 8238193
Ave neighs/atom = 28.530440
Neighbor list builds = 0
Dangerous builds = 0
The dot product: 2.34033602151382e-07
The cos of the angle between the force vector and the displacement vector: 0.00693286503347822
The angle: 89.6027729115097
Setting atom values ...
  1 settings made for x
  1 settings made for y
  1 settings made for z
Setting up cg style minimization ...
  Unit style    : metal
  Current step  : 6658
Per MPI rank memory allocation (min/avg/max) = 5.441 | 5.816 | 6.074 Mbytes
Step PotEng KinEng TotEng v_fx v_fy v_fz 
    6658   -1152449.3            0   -1152449.3 -0.00036179789  -0.10320896 -0.048687251 
    6925   -1152449.4            0   -1152449.4 -3.4578163e-06 5.6575206e-06 -7.4155747e-06 
Loop time of 3.14116 on 104 procs for 267 steps with 288751 atoms

99.9% CPU use with 104 MPI tasks x 1 OpenMP threads

Minimization stats:
  Stopping criterion = energy tolerance
  Energy initial, next-to-last, final = 
      -1152449.3358408  -1152449.36731444  -1152449.36731444
  Force two-norm initial, final = 0.24538077 4.7618484e-05
  Force max component initial, final = 0.10320896 9.1890524e-06
  Final line search alpha, max atom move = 1.0000000 9.1890524e-06
  Iterations, force evaluations = 267 534

MPI task timing breakdown:
Section |  min time  |  avg time  |  max time  |%varavg| %total
---------------------------------------------------------------
Pair    | 0.80654    | 2.2496     | 2.9559     |  40.6 | 71.62
Neigh   | 1.0171e-05 | 0.0029593  | 0.0042838  |   2.2 |  0.09
Comm    | 0.046695   | 0.51144    | 1.5249     |  59.0 | 16.28
Output  | 0          | 0          | 0          |   0.0 |  0.00
Modify  | 3.2456e-05 | 0.0044107  | 0.009416   |   3.1 |  0.14
Other   |            | 0.3728     |            |       | 11.87

Nlocal:        2776.45 ave        3961 max           0 min
Histogram: 8 4 4 0 6 10 8 2 28 34
Nghost:        3879.07 ave        5424 max         232 min
Histogram: 8 0 8 0 16 0 8 8 16 40
Neighs:        79213.4 ave      115457 max           0 min
Histogram: 8 4 4 0 10 6 8 8 24 32

Total # of neighbors = 8238189
Ave neighs/atom = 28.530426
Neighbor list builds = 1
Dangerous builds = 0
The dot product: -1.54541523040569e-07
The cos of the angle between the force vector and the displacement vector: -0.0155355558873519
The angle: 90.8901575942918
Setting atom values ...
  1 settings made for x
  1 settings made for y
  1 settings made for z
Setting up cg style minimization ...
  Unit style    : metal
  Current step  : 6925
Per MPI rank memory allocation (min/avg/max) = 5.441 | 5.816 | 6.074 Mbytes
Step PotEng KinEng TotEng v_fx v_fy v_fz 
    6925   -1152449.4            0   -1152449.4  0.012202122 -0.0098507897  0.028159346 
    7000   -1152449.4            0   -1152449.4 6.3575489e-05 -0.00016448304 0.00014005761 
    7065   -1152449.4            0   -1152449.4 -5.1309926e-07 -2.7477453e-05 -2.8252372e-06 
Loop time of 1.64355 on 104 procs for 140 steps with 288751 atoms

99.9% CPU use with 104 MPI tasks x 1 OpenMP threads

Minimization stats:
  Stopping criterion = energy tolerance
  Energy initial, next-to-last, final = 
     -1152449.38017493  -1152449.38320238  -1152449.38320238
  Force two-norm initial, final = 0.22627283 0.00013638766
  Force max component initial, final = 0.098294456 2.7477453e-05
  Final line search alpha, max atom move = 1.0000000 2.7477453e-05
  Iterations, force evaluations = 140 280

MPI task timing breakdown:
Section |  min time  |  avg time  |  max time  |%varavg| %total
---------------------------------------------------------------
Pair    | 0.4223     | 1.1873     | 1.5469     |  29.5 | 72.24
Neigh   | 0          | 0          | 0          |   0.0 |  0.00
Comm    | 0.026262   | 0.26869    | 0.80783    |  43.4 | 16.35
Output  | 0.00016865 | 0.00017111 | 0.00030413 |   0.0 |  0.01
Modify  | 1.7205e-05 | 0.0023214  | 0.0049302  |   2.3 |  0.14
Other   |            | 0.185      |            |       | 11.26

Nlocal:        2776.45 ave        3958 max           0 min
Histogram: 8 4 4 0 4 12 8 2 28 34
Nghost:        3879.05 ave        5424 max         232 min
Histogram: 8 0 8 0 16 0 8 8 16 40
Neighs:        79213.5 ave      115369 max           0 min
Histogram: 8 4 4 0 10 6 8 8 24 32

Total # of neighbors = 8238202
Ave neighs/atom = 28.530471
Neighbor list builds = 0
Dangerous builds = 0
The dot product: -2.20087909928531e-07
The cos of the angle between the force vector and the displacement vector: -0.00796638271058531
The angle: 90.4564449353026
Setting atom values ...
  1 settings made for x
  1 settings made for y
  1 settings made for z
Setting up cg style minimization ...
  Unit style    : metal
  Current step  : 7065
Per MPI rank memory allocation (min/avg/max) = 5.441 | 5.816 | 6.074 Mbytes
Step PotEng KinEng TotEng v_fx v_fy v_fz 
    7065   -1152449.4            0   -1152449.4 -0.0016340786 -0.085051898 -0.010614439 
    7440   -1152449.4            0   -1152449.4 -2.1949471e-08 -1.4373743e-09 -5.2377274e-08 
Loop time of 4.38249 on 104 procs for 375 steps with 288751 atoms

99.9% CPU use with 104 MPI tasks x 1 OpenMP threads

Minimization stats:
  Stopping criterion = energy tolerance
  Energy initial, next-to-last, final = 
     -1152449.39448691  -1152449.39857412  -1152449.39857412
  Force two-norm initial, final = 0.24410723 1.8036650e-07
  Force max component initial, final = 0.10099472 5.2377274e-08
  Final line search alpha, max atom move = 1.0000000 5.2377274e-08
  Iterations, force evaluations = 375 750

MPI task timing breakdown:
Section |  min time  |  avg time  |  max time  |%varavg| %total
---------------------------------------------------------------
Pair    | 1.1263     | 3.1526     | 4.1334     |  48.1 | 71.94
Neigh   | 0          | 0          | 0          |   0.0 |  0.00
Comm    | 0.063157   | 0.71117    | 2.1364     |  70.5 | 16.23
Output  | 0          | 0          | 0          |   0.0 |  0.00
Modify  | 4.5378e-05 | 0.0061791  | 0.013183   |   3.7 |  0.14
Other   |            | 0.5125     |            |       | 11.69

Nlocal:        2776.45 ave        3959 max           0 min
Histogram: 8 4 4 0 4 12 8 2 28 34
Nghost:        3879.01 ave        5424 max         232 min
Histogram: 8 0 8 0 16 0 8 8 16 40
Neighs:        79213.5 ave      115403 max           0 min
Histogram: 8 4 4 0 10 6 8 8 24 32

Total # of neighbors = 8238207
Ave neighs/atom = 28.530488
Neighbor list builds = 0
Dangerous builds = 0
The dot product: 5.55997060715349e-10
The cos of the angle between the force vector and the displacement vector: 0.00978718789481891
The angle: 89.4392264874222
Setting up cg style minimization ...
  Unit style    : metal
  Current step  : 7440
Per MPI rank memory allocation (min/avg/max) = 5.441 | 5.816 | 6.074 Mbytes
Step PotEng KinEng TotEng v_fx v_fy v_fz 
    7440   -1152449.4            0   -1152449.4   0.50487813  0.016761994   -0.2120367 
    7703   -1152449.5            0   -1152449.5 3.3715313e-06 6.3491087e-06 1.4897111e-06 
Loop time of 3.13615 on 104 procs for 263 steps with 288751 atoms

99.9% CPU use with 104 MPI tasks x 1 OpenMP threads

Minimization stats:
  Stopping criterion = energy tolerance
  Energy initial, next-to-last, final = 
     -1152449.39857412  -1152449.45035272  -1152449.45035272
  Force two-norm initial, final = 0.54785258 3.5983228e-05
  Force max component initial, final = 0.50487813 6.3491087e-06
  Final line search alpha, max atom move = 1.0000000 6.3491087e-06
  Iterations, force evaluations = 263 526

MPI task timing breakdown:
Section |  min time  |  avg time  |  max time  |%varavg| %total
---------------------------------------------------------------
Pair    | 0.79128    | 2.2235     | 2.9576     |  40.6 | 70.90
Neigh   | 1.0149e-05 | 0.0029575  | 0.0043087  |   2.2 |  0.09
Comm    | 0.045444   | 0.51339    | 1.4966     |  57.9 | 16.37
Output  | 0          | 0          | 0          |   0.0 |  0.00
Modify  | 2.9911e-05 | 0.0028167  | 0.0072038  |   3.3 |  0.09
Other   |            | 0.3935     |            |       | 12.55

Nlocal:        2776.45 ave        3959 max           0 min
Histogram: 8 4 4 0 4 12 8 2 28 34
Nghost:        3879.09 ave        5424 max         232 min
Histogram: 8 0 8 0 16 0 8 8 16 40
Neighs:        79213.5 ave      115404 max           0 min
Histogram: 8 4 4 0 10 6 8 8 24 32

Total # of neighbors = 8238202
Ave neighs/atom = 28.530471
Neighbor list builds = 1
Dangerous builds = 0
