LAMMPS (29 Oct 2020)
OMP_NUM_THREADS environment is not set. Defaulting to 1 thread. (../comm.cpp:94)
  using 1 OpenMP thread(s) per MPI task
OMP_NUM_THREADS environment is not set. Defaulting to 1 thread. (../comm.cpp:94)
  using 1 OpenMP thread(s) per MPI task
Reading data file ...
  orthogonal box = (-122.39241 -121.13707 -37.090501) to (122.39241 121.13707 37.090501)
  13 by 4 by 1 MPI processor grid
  reading atoms ...
  288751 atoms
  read_data CPU = 0.438 seconds
199981 atoms in group inner
88770 atoms in group outer
1 atoms in group carbon
Neighbor list info ...
  update every 1 steps, delay 0 steps, check yes
  max neighbors/atom: 2000, page size: 100000
  master list distance cutoff = 5.6
  ghost atom cutoff = 5.6
  binsize = 2.8, bins = 88 87 27
  1 neighbor lists, perpetual/occasional/extra = 1 0 0
  (1) pair eam/alloy, perpetual
      attributes: half, newton on
      pair build: half/bin/atomonly/newton
      stencil: half/bin/3d/newton
      bin: standard
Setting up cg style minimization ...
  Unit style    : metal
  Current step  : 0
Per MPI rank memory allocation (min/avg/max) = 5.465 | 6.344 | 6.728 Mbytes
Step v_fx v_fy v_fz PotEng KinEng TotEng 
       0  -0.20988015    1.7917731    -2.430429   -1152447.8            0   -1152447.8 
     158 2.020442e-05 -3.4292661e-05 3.2990658e-05   -1152449.5            0   -1152449.5 
Loop time of 3.5162 on 52 procs for 158 steps with 288751 atoms

99.9% CPU use with 52 MPI tasks x 1 OpenMP threads

Minimization stats:
  Stopping criterion = energy tolerance
  Energy initial, next-to-last, final = 
       -1152447.793469  -1152449.45035258  -1152449.45035258
  Force two-norm initial, final = 10.060523 0.00015844145
  Force max component initial, final = 6.1264518 3.9810672e-05
  Final line search alpha, max atom move = 1.0000000 3.9810672e-05
  Iterations, force evaluations = 158 315

MPI task timing breakdown:
Section |  min time  |  avg time  |  max time  |%varavg| %total
---------------------------------------------------------------
Pair    | 0.92758    | 2.5324     | 3.3254     |  43.4 | 72.02
Neigh   | 6.5103e-05 | 0.019465   | 0.029339   |   6.0 |  0.55
Comm    | 0.053746   | 0.57215    | 1.8109     |  66.6 | 16.27
Output  | 0          | 0          | 0          |   0.0 |  0.00
Modify  | 6.4591e-05 | 0.0034807  | 0.0088392  |   3.6 |  0.10
Other   |            | 0.3887     |            |       | 11.06

Nlocal:        5552.90 ave        7912 max           0 min
Histogram: 4 2 2 0 2 6 4 0 15 17
Nghost:        6213.54 ave        8769 max         412 min
Histogram: 4 0 4 0 8 0 4 5 7 20
Neighs:       158427.0 ave      230647 max           0 min
Histogram: 4 2 2 0 5 3 4 4 12 16

Total # of neighbors = 8238204
Ave neighs/atom = 28.530478
Neighbor list builds = 3
Dangerous builds = 0
Setting atom values ...
  1 settings made for x
  1 settings made for y
  1 settings made for z
Setting up cg style minimization ...
  Unit style    : metal
  Current step  : 158
Per MPI rank memory allocation (min/avg/max) = 5.465 | 6.344 | 6.728 Mbytes
Step PotEng KinEng TotEng v_fx v_fy v_fz 
     158   -1152449.4            0   -1152449.4  0.015502095 0.0058501512 -0.019390505 
     307   -1152449.5            0   -1152449.5 -2.5074874e-05 1.6889022e-05 5.3907106e-05 
Loop time of 3.29965 on 52 procs for 149 steps with 288751 atoms

99.9% CPU use with 52 MPI tasks x 1 OpenMP threads

Minimization stats:
  Stopping criterion = energy tolerance
  Energy initial, next-to-last, final = 
     -1152449.44949236  -1152449.45006457  -1152449.45006457
  Force two-norm initial, final = 0.11243555 0.00022750355
  Force max component initial, final = 0.050031726 6.3078536e-05
  Final line search alpha, max atom move = 1.0000000 6.3078536e-05
  Iterations, force evaluations = 149 298

MPI task timing breakdown:
Section |  min time  |  avg time  |  max time  |%varavg| %total
---------------------------------------------------------------
Pair    | 0.83594    | 2.3803     | 3.1462     |  42.8 | 72.14
Neigh   | 0          | 0          | 0          |   0.0 |  0.00
Comm    | 0.048651   | 0.53566    | 1.6865     |  65.2 | 16.23
Output  | 0          | 0          | 0          |   0.0 |  0.00
Modify  | 7.4397e-05 | 0.0049382  | 0.010455   |   3.3 |  0.15
Other   |            | 0.3788     |            |       | 11.48

Nlocal:        5552.90 ave        7910 max           0 min
Histogram: 4 2 2 0 2 6 4 0 15 17
Nghost:        6213.54 ave        8769 max         412 min
Histogram: 4 0 4 0 8 0 4 5 7 20
Neighs:       158427.0 ave      230584 max           0 min
Histogram: 4 2 2 0 5 3 4 4 12 16

Total # of neighbors = 8238197
Ave neighs/atom = 28.530454
Neighbor list builds = 0
Dangerous builds = 0
Setting atom values ...
  1 settings made for x
  1 settings made for y
  1 settings made for z
Setting up cg style minimization ...
  Unit style    : metal
  Current step  : 307
Per MPI rank memory allocation (min/avg/max) = 5.465 | 6.344 | 6.728 Mbytes
Step PotEng KinEng TotEng v_fx v_fy v_fz 
     307   -1152449.4            0   -1152449.4  0.027241993 0.0091606535 -0.042696641 
     492   -1152449.4            0   -1152449.4 -9.3130031e-06 1.4228055e-06 2.0056328e-05 
Loop time of 4.11837 on 52 procs for 185 steps with 288751 atoms

99.9% CPU use with 52 MPI tasks x 1 OpenMP threads

Minimization stats:
  Stopping criterion = energy tolerance
  Energy initial, next-to-last, final = 
     -1152449.44631965  -1152449.44815048  -1152449.44815048
  Force two-norm initial, final = 0.2034218 0.000101192
  Force max component initial, final = 0.090312738 2.0567088e-05
  Final line search alpha, max atom move = 1.0000000 2.0567088e-05
  Iterations, force evaluations = 185 372

MPI task timing breakdown:
Section |  min time  |  avg time  |  max time  |%varavg| %total
---------------------------------------------------------------
Pair    | 1.048      | 2.968      | 3.9239     |  47.9 | 72.07
Neigh   | 0          | 0          | 0          |   0.0 |  0.00
Comm    | 0.057947   | 0.67142    | 2.104      |  72.3 | 16.30
Output  | 0          | 0          | 0          |   0.0 |  0.00
Modify  | 8.8425e-05 | 0.0061635  | 0.013067   |   3.7 |  0.15
Other   |            | 0.4728     |            |       | 11.48

Nlocal:        5552.90 ave        7909 max           0 min
Histogram: 4 2 2 0 2 6 4 0 15 17
Nghost:        6213.54 ave        8769 max         412 min
Histogram: 4 0 4 0 8 0 4 5 7 20
Neighs:       158427.0 ave      230547 max           0 min
Histogram: 4 2 2 0 5 3 4 4 12 16

Total # of neighbors = 8238197
Ave neighs/atom = 28.530454
Neighbor list builds = 0
Dangerous builds = 0
The dot product: -6.85435863122506e-08
Setting atom values ...
  1 settings made for x
  1 settings made for y
  1 settings made for z
Setting up cg style minimization ...
  Unit style    : metal
  Current step  : 492
Per MPI rank memory allocation (min/avg/max) = 5.465 | 6.344 | 6.728 Mbytes
Step PotEng KinEng TotEng v_fx v_fy v_fz 
     492   -1152449.4            0   -1152449.4  0.027238798  0.011921375 -0.052075751 
     606   -1152449.4            0   -1152449.4 9.1848893e-06 -1.3736365e-06 -2.6960064e-05 
Loop time of 2.53376 on 52 procs for 114 steps with 288751 atoms

99.9% CPU use with 52 MPI tasks x 1 OpenMP threads

Minimization stats:
  Stopping criterion = energy tolerance
  Energy initial, next-to-last, final = 
     -1152449.44288724  -1152449.44469132  -1152449.44469132
  Force two-norm initial, final = 0.20372688 0.00018324584
  Force max component initial, final = 0.08925784 2.8599722e-05
  Final line search alpha, max atom move = 1.0000000 2.8599722e-05
  Iterations, force evaluations = 114 228

MPI task timing breakdown:
Section |  min time  |  avg time  |  max time  |%varavg| %total
---------------------------------------------------------------
Pair    | 0.64581    | 1.8298     | 2.4089     |  37.5 | 72.22
Neigh   | 0          | 0          | 0          |   0.0 |  0.00
Comm    | 0.03575    | 0.41098    | 1.2913     |  57.1 | 16.22
Output  | 0          | 0          | 0          |   0.0 |  0.00
Modify  | 5.6661e-05 | 0.0037877  | 0.0080168  |   2.9 |  0.15
Other   |            | 0.2892     |            |       | 11.41

Nlocal:        5552.90 ave        7909 max           0 min
Histogram: 4 2 2 0 2 6 4 0 15 17
Nghost:        6213.54 ave        8769 max         412 min
Histogram: 4 0 4 0 8 0 4 5 7 20
Neighs:       158427.0 ave      230551 max           0 min
Histogram: 4 2 2 0 5 3 4 4 12 16

Total # of neighbors = 8238196
Ave neighs/atom = 28.530450
Neighbor list builds = 0
Dangerous builds = 0
The dot product: 1.56921646700147e-07
Setting atom values ...
  1 settings made for x
  1 settings made for y
  1 settings made for z
Setting up cg style minimization ...
  Unit style    : metal
  Current step  : 606
Per MPI rank memory allocation (min/avg/max) = 5.465 | 6.344 | 6.728 Mbytes
Step PotEng KinEng TotEng v_fx v_fy v_fz 
     606   -1152449.4            0   -1152449.4  0.026300483  0.020473165  -0.05471773 
     717   -1152449.4            0   -1152449.4 -3.9706023e-06 -4.7566826e-06 3.6664895e-06 
Loop time of 2.4368 on 52 procs for 111 steps with 288751 atoms

99.9% CPU use with 52 MPI tasks x 1 OpenMP threads

Minimization stats:
  Stopping criterion = energy tolerance
  Energy initial, next-to-last, final = 
     -1152449.43813306  -1152449.43991476  -1152449.43991476
  Force two-norm initial, final = 0.20167444 0.00018713246
  Force max component initial, final = 0.085609804 2.1164329e-05
  Final line search alpha, max atom move = 1.0000000 2.1164329e-05
  Iterations, force evaluations = 111 222

MPI task timing breakdown:
Section |  min time  |  avg time  |  max time  |%varavg| %total
---------------------------------------------------------------
Pair    | 0.6295     | 1.7695     | 2.3265     |  36.9 | 72.61
Neigh   | 0          | 0          | 0          |   0.0 |  0.00
Comm    | 0.033632   | 0.39499    | 1.2548     |  56.5 | 16.21
Output  | 0          | 0          | 0          |   0.0 |  0.00
Modify  | 5.4387e-05 | 0.0037253  | 0.0079023  |   2.8 |  0.15
Other   |            | 0.2686     |            |       | 11.02

Nlocal:        5552.90 ave        7908 max           0 min
Histogram: 4 2 2 0 2 6 4 0 15 17
Nghost:        6213.54 ave        8769 max         412 min
Histogram: 4 0 4 0 8 0 4 5 7 20
Neighs:       158427.0 ave      230514 max           0 min
Histogram: 4 2 2 0 5 3 4 4 12 16

Total # of neighbors = 8238201
Ave neighs/atom = 28.530467
Neighbor list builds = 0
Dangerous builds = 0
The dot product: -3.2424473231261e-08
Setting atom values ...
  1 settings made for x
  1 settings made for y
  1 settings made for z
Setting up cg style minimization ...
  Unit style    : metal
  Current step  : 717
Per MPI rank memory allocation (min/avg/max) = 5.465 | 6.344 | 6.728 Mbytes
Step PotEng KinEng TotEng v_fx v_fy v_fz 
     717   -1152449.4            0   -1152449.4  0.023498129  0.027397556 -0.050989291 
     839   -1152449.4            0   -1152449.4 1.1451045e-06 3.9020838e-06 1.0458988e-05 
Loop time of 2.73746 on 52 procs for 122 steps with 288751 atoms

99.8% CPU use with 52 MPI tasks x 1 OpenMP threads

Minimization stats:
  Stopping criterion = energy tolerance
  Energy initial, next-to-last, final = 
      -1152449.4320686  -1152449.43380323  -1152449.43380323
  Force two-norm initial, final = 0.19747141 0.00027741081
  Force max component initial, final = 0.080735719 6.3263476e-05
  Final line search alpha, max atom move = 1.0000000 6.3263476e-05
  Iterations, force evaluations = 122 244

MPI task timing breakdown:
Section |  min time  |  avg time  |  max time  |%varavg| %total
---------------------------------------------------------------
Pair    | 0.68344    | 1.947      | 2.5751     |  38.8 | 71.13
Neigh   | 0          | 0          | 0          |   0.0 |  0.00
Comm    | 0.036418   | 0.44215    | 1.3747     |  58.7 | 16.15
Output  | 0          | 0          | 0          |   0.0 |  0.00
Modify  | 5.7552e-05 | 0.0040418  | 0.008581   |   3.0 |  0.15
Other   |            | 0.3442     |            |       | 12.57

Nlocal:        5552.90 ave        7907 max           0 min
Histogram: 4 2 2 0 2 6 4 0 15 17
Nghost:        6213.54 ave        8769 max         412 min
Histogram: 4 0 4 0 8 0 4 5 7 20
Neighs:       158427.0 ave      230476 max           0 min
Histogram: 4 2 2 0 5 3 4 4 12 16

Total # of neighbors = 8238198
Ave neighs/atom = 28.530457
Neighbor list builds = 0
Dangerous builds = 0
The dot product: -5.93019948386005e-08
Setting atom values ...
  1 settings made for x
  1 settings made for y
  1 settings made for z
Setting up cg style minimization ...
  Unit style    : metal
  Current step  : 839
Per MPI rank memory allocation (min/avg/max) = 5.465 | 6.344 | 6.728 Mbytes
Step PotEng KinEng TotEng v_fx v_fy v_fz 
     839   -1152449.4            0   -1152449.4  0.019971861  0.030489617 -0.044316146 
    1000   -1152449.4            0   -1152449.4 -2.8250713e-06 -4.3899258e-06 5.1489012e-06 
    1021   -1152449.4            0   -1152449.4 -2.4748422e-06 -2.2451817e-06 2.7757843e-05 
Loop time of 4.00587 on 52 procs for 182 steps with 288751 atoms

99.9% CPU use with 52 MPI tasks x 1 OpenMP threads

Minimization stats:
  Stopping criterion = linesearch alpha is zero
  Energy initial, next-to-last, final = 
       -1152449.424635  -1152449.42631411  -1152449.42631411
  Force two-norm initial, final = 0.19273598 0.00012160274
  Force max component initial, final = 0.075815755 3.0665978e-05
  Final line search alpha, max atom move = 0.5 1.5332989e-05
  Iterations, force evaluations = 182 365

MPI task timing breakdown:
Section |  min time  |  avg time  |  max time  |%varavg| %total
---------------------------------------------------------------
Pair    | 1.0317     | 2.9042     | 3.8154     |  47.3 | 72.50
Neigh   | 0          | 0          | 0          |   0.0 |  0.00
Comm    | 0.054754   | 0.64912    | 2.0603     |  72.0 | 16.20
Output  | 0.00021502 | 0.0002201  | 0.00038523 |   0.0 |  0.01
Modify  | 8.4097e-05 | 0.0061014  | 0.01293    |   3.6 |  0.15
Other   |            | 0.4463     |            |       | 11.14

Nlocal:        5552.90 ave        7905 max           0 min
Histogram: 4 2 2 0 2 6 4 0 15 17
Nghost:        6213.54 ave        8769 max         412 min
Histogram: 4 0 4 0 8 0 4 5 7 20
Neighs:       158427.0 ave      230404 max           0 min
Histogram: 4 2 2 0 5 3 4 4 12 16

Total # of neighbors = 8238199
Ave neighs/atom = 28.530461
Neighbor list builds = 0
Dangerous builds = 0
The dot product: -1.71400542289091e-07
Setting atom values ...
  1 settings made for x
  1 settings made for y
  1 settings made for z
Setting up cg style minimization ...
  Unit style    : metal
  Current step  : 1021
Per MPI rank memory allocation (min/avg/max) = 5.465 | 6.344 | 6.728 Mbytes
Step PotEng KinEng TotEng v_fx v_fy v_fz 
    1021   -1152449.4            0   -1152449.4  0.016447814  0.030174606 -0.037423409 
    1195   -1152449.4            0   -1152449.4 8.8267219e-07 2.5606751e-06 -2.8492753e-05 
Loop time of 3.86765 on 52 procs for 174 steps with 288751 atoms

99.9% CPU use with 52 MPI tasks x 1 OpenMP threads

Minimization stats:
  Stopping criterion = energy tolerance
  Energy initial, next-to-last, final = 
     -1152449.41578069  -1152449.41740837  -1152449.41740837
  Force two-norm initial, final = 0.18843839 0.00016763209
  Force max component initial, final = 0.071671818 2.8492753e-05
  Final line search alpha, max atom move = 1.0000000 2.8492753e-05
  Iterations, force evaluations = 174 350

MPI task timing breakdown:
Section |  min time  |  avg time  |  max time  |%varavg| %total
---------------------------------------------------------------
Pair    | 0.97698    | 2.7843     | 3.6935     |  46.4 | 71.99
Neigh   | 0          | 0          | 0          |   0.0 |  0.00
Comm    | 0.054365   | 0.6275     | 1.9791     |  70.7 | 16.22
Output  | 0          | 0          | 0          |   0.0 |  0.00
Modify  | 8.0613e-05 | 0.0057865  | 0.012249   |   3.5 |  0.15
Other   |            | 0.4501     |            |       | 11.64

Nlocal:        5552.90 ave        7905 max           0 min
Histogram: 4 2 2 0 2 6 4 0 15 17
Nghost:        6213.54 ave        8769 max         412 min
Histogram: 4 0 4 0 8 0 4 5 7 20
Neighs:       158427.0 ave      230383 max           0 min
Histogram: 4 2 2 0 5 3 4 4 12 16

Total # of neighbors = 8238200
Ave neighs/atom = 28.530464
Neighbor list builds = 0
Dangerous builds = 0
The dot product: 1.54901352361529e-07
Setting atom values ...
  1 settings made for x
  1 settings made for y
  1 settings made for z
Setting up cg style minimization ...
  Unit style    : metal
  Current step  : 1195
Per MPI rank memory allocation (min/avg/max) = 5.465 | 6.344 | 6.728 Mbytes
Step PotEng KinEng TotEng v_fx v_fy v_fz 
    1195   -1152449.4            0   -1152449.4  0.012865869  0.026898747 -0.031338212 
    1392   -1152449.4            0   -1152449.4 -6.7026538e-07 -2.5279893e-06 1.1116728e-05 
Loop time of 4.3399 on 52 procs for 197 steps with 288751 atoms

99.9% CPU use with 52 MPI tasks x 1 OpenMP threads

Minimization stats:
  Stopping criterion = energy tolerance
  Energy initial, next-to-last, final = 
     -1152449.40547256  -1152449.40706758  -1152449.40706758
  Force two-norm initial, final = 0.18475755 7.1988858e-05
  Force max component initial, final = 0.068342108 1.1116728e-05
  Final line search alpha, max atom move = 1.0000000 1.1116728e-05
  Iterations, force evaluations = 197 394

MPI task timing breakdown:
Section |  min time  |  avg time  |  max time  |%varavg| %total
---------------------------------------------------------------
Pair    | 1.1182     | 3.1408     | 4.1405     |  49.2 | 72.37
Neigh   | 0          | 0          | 0          |   0.0 |  0.00
Comm    | 0.059278   | 0.70489    | 2.2357     |  74.5 | 16.24
Output  | 0          | 0          | 0          |   0.0 |  0.00
Modify  | 9.2587e-05 | 0.0066123  | 0.014225   |   3.8 |  0.15
Other   |            | 0.4876     |            |       | 11.24

Nlocal:        5552.90 ave        7903 max           0 min
Histogram: 4 2 2 0 2 6 4 0 15 17
Nghost:        6213.54 ave        8769 max         412 min
Histogram: 4 0 4 0 8 0 4 5 7 20
Neighs:       158427.0 ave      230321 max           0 min
Histogram: 4 2 2 0 5 3 4 4 12 16

Total # of neighbors = 8238204
Ave neighs/atom = 28.530478
Neighbor list builds = 0
Dangerous builds = 0
The dot product: -5.44381016108842e-08
Setting atom values ...
  1 settings made for x
  1 settings made for y
  1 settings made for z
Setting up cg style minimization ...
  Unit style    : metal
  Current step  : 1392
Per MPI rank memory allocation (min/avg/max) = 5.465 | 6.344 | 6.728 Mbytes
Step PotEng KinEng TotEng v_fx v_fy v_fz 
    1392   -1152449.4            0   -1152449.4 0.0085254628  0.020369006   -0.0269826 
    1520   -1152449.4            0   -1152449.4 3.1677568e-06 -9.3504905e-07 3.589843e-05 
Loop time of 2.89117 on 52 procs for 128 steps with 288751 atoms

99.9% CPU use with 52 MPI tasks x 1 OpenMP threads

Minimization stats:
  Stopping criterion = linesearch alpha is zero
  Energy initial, next-to-last, final = 
     -1152449.39371602  -1152449.39531293  -1152449.39531293
  Force two-norm initial, final = 0.18183757 0.00030093329
  Force max component initial, final = 0.070912954 3.5898430e-05
  Final line search alpha, max atom move = 0.125 4.4873037e-06
  Iterations, force evaluations = 128 261

MPI task timing breakdown:
Section |  min time  |  avg time  |  max time  |%varavg| %total
---------------------------------------------------------------
Pair    | 0.73269    | 2.0897     | 2.7559     |  40.2 | 72.28
Neigh   | 0          | 0          | 0          |   0.0 |  0.00
Comm    | 0.038624   | 0.4687     | 1.4749     |  61.4 | 16.21
Output  | 0          | 0          | 0          |   0.0 |  0.00
Modify  | 6.1848e-05 | 0.0043254  | 0.0091665  |   3.1 |  0.15
Other   |            | 0.3284     |            |       | 11.36

Nlocal:        5552.90 ave        7902 max           0 min
Histogram: 4 2 2 0 2 6 4 0 15 17
Nghost:        6213.54 ave        8769 max         412 min
Histogram: 4 0 4 0 8 0 4 5 7 20
Neighs:       158427.0 ave      230281 max           0 min
Histogram: 4 2 2 0 5 3 4 4 12 16

Total # of neighbors = 8238203
Ave neighs/atom = 28.530474
Neighbor list builds = 0
Dangerous builds = 0
The dot product: -1.74745089645282e-07
Setting atom values ...
  1 settings made for x
  1 settings made for y
  1 settings made for z
Setting up cg style minimization ...
  Unit style    : metal
  Current step  : 1520
Per MPI rank memory allocation (min/avg/max) = 5.465 | 6.344 | 6.728 Mbytes
Step PotEng KinEng TotEng v_fx v_fy v_fz 
    1520   -1152449.4            0   -1152449.4 0.0033973993   0.01177619 -0.024607258 
    1688   -1152449.4            0   -1152449.4 -3.7647361e-06 6.5481345e-06 -5.5292775e-05 
Loop time of 3.7075 on 52 procs for 168 steps with 288751 atoms

99.9% CPU use with 52 MPI tasks x 1 OpenMP threads

Minimization stats:
  Stopping criterion = energy tolerance
  Energy initial, next-to-last, final = 
     -1152449.38055415  -1152449.38220451  -1152449.38220451
  Force two-norm initial, final = 0.17998779 0.00023747238
  Force max component initial, final = 0.074582794 6.5145675e-05
  Final line search alpha, max atom move = 1.0000000 6.5145675e-05
  Iterations, force evaluations = 168 336

MPI task timing breakdown:
Section |  min time  |  avg time  |  max time  |%varavg| %total
---------------------------------------------------------------
Pair    | 0.94382    | 2.6809     | 3.5428     |  45.6 | 72.31
Neigh   | 0          | 0          | 0          |   0.0 |  0.00
Comm    | 0.051009   | 0.60287    | 1.9026     |  69.1 | 16.26
Output  | 0          | 0          | 0          |   0.0 |  0.00
Modify  | 8.3214e-05 | 0.0055608  | 0.011791   |   3.5 |  0.15
Other   |            | 0.4182     |            |       | 11.28

Nlocal:        5552.90 ave        7898 max           0 min
Histogram: 4 2 2 0 2 6 4 0 14 18
Nghost:        6213.54 ave        8769 max         412 min
Histogram: 4 0 4 0 8 0 4 5 7 20
Neighs:       158427.0 ave      230125 max           0 min
Histogram: 4 2 2 0 5 3 4 4 12 16

Total # of neighbors = 8238203
Ave neighs/atom = 28.530474
Neighbor list builds = 0
Dangerous builds = 0
The dot product: 2.91717911840023e-07
Setting atom values ...
  1 settings made for x
  1 settings made for y
  1 settings made for z
Setting up cg style minimization ...
  Unit style    : metal
  Current step  : 1688
Per MPI rank memory allocation (min/avg/max) = 5.465 | 6.344 | 6.728 Mbytes
Step PotEng KinEng TotEng v_fx v_fy v_fz 
    1688   -1152449.4            0   -1152449.4 -0.0036382383  0.001358382 -0.025865258 
    1895   -1152449.4            0   -1152449.4 4.2424287e-07 3.0601448e-06 -8.3444459e-06 
Loop time of 4.58395 on 52 procs for 207 steps with 288751 atoms

99.9% CPU use with 52 MPI tasks x 1 OpenMP threads

Minimization stats:
  Stopping criterion = energy tolerance
  Energy initial, next-to-last, final = 
      -1152449.3660874  -1152449.36800443  -1152449.36800443
  Force two-norm initial, final = 0.17956806 7.2929556e-05
  Force max component initial, final = 0.078985852 1.4467918e-05
  Final line search alpha, max atom move = 1.0000000 1.4467918e-05
  Iterations, force evaluations = 207 414

MPI task timing breakdown:
Section |  min time  |  avg time  |  max time  |%varavg| %total
---------------------------------------------------------------
Pair    | 1.1643     | 3.3024     | 4.3629     |  50.5 | 72.04
Neigh   | 0          | 0          | 0          |   0.0 |  0.00
Comm    | 0.062926   | 0.74284    | 2.3419     |  76.6 | 16.21
Output  | 0          | 0          | 0          |   0.0 |  0.00
Modify  | 9.3647e-05 | 0.0068449  | 0.014483   |   3.8 |  0.15
Other   |            | 0.5319     |            |       | 11.60

Nlocal:        5552.90 ave        7895 max           0 min
Histogram: 4 2 2 0 2 6 4 0 14 18
Nghost:        6213.54 ave        8769 max         412 min
Histogram: 4 0 4 0 8 0 4 5 7 20
Neighs:       158427.0 ave      230041 max           0 min
Histogram: 4 2 2 0 5 3 4 4 12 16

Total # of neighbors = 8238202
Ave neighs/atom = 28.530471
Neighbor list builds = 0
Dangerous builds = 0
The dot product: 5.27965591258769e-08
Setting atom values ...
  1 settings made for x
  1 settings made for y
  1 settings made for z
Setting up cg style minimization ...
  Unit style    : metal
  Current step  : 1895
Per MPI rank memory allocation (min/avg/max) = 5.465 | 6.344 | 6.728 Mbytes
Step PotEng KinEng TotEng v_fx v_fy v_fz 
    1895   -1152449.4            0   -1152449.4 -0.017397387 -0.013011021 -0.036790137 
    2000   -1152449.4            0   -1152449.4 2.1347999e-05 -3.5155177e-05 0.00019309811 
    2062   -1152449.4            0   -1152449.4 9.3070045e-06 -1.6836297e-05 8.8553984e-05 
Loop time of 3.65532 on 52 procs for 167 steps with 288751 atoms

99.9% CPU use with 52 MPI tasks x 1 OpenMP threads

Minimization stats:
  Stopping criterion = energy tolerance
  Energy initial, next-to-last, final = 
     -1152449.35079908   -1152449.3529845   -1152449.3529845
  Force two-norm initial, final = 0.18210687 0.00030161719
  Force max component initial, final = 0.085081234 8.8553984e-05
  Final line search alpha, max atom move = 1.0000000 8.8553984e-05
  Iterations, force evaluations = 167 334

MPI task timing breakdown:
Section |  min time  |  avg time  |  max time  |%varavg| %total
---------------------------------------------------------------
Pair    | 0.94346    | 2.6582     | 3.4905     |  45.3 | 72.72
Neigh   | 0          | 0          | 0          |   0.0 |  0.00
Comm    | 0.050377   | 0.59323    | 1.8879     |  69.4 | 16.23
Output  | 0.00012808 | 0.00013184 | 0.00028307 |   0.0 |  0.00
Modify  | 8.0357e-05 | 0.0055754  | 0.011864   |   3.5 |  0.15
Other   |            | 0.3982     |            |       | 10.89

Nlocal:        5552.90 ave        7894 max           0 min
Histogram: 4 2 2 0 2 6 4 0 14 18
Nghost:        6213.58 ave        8769 max         412 min
Histogram: 4 0 4 0 8 0 4 5 7 20
Neighs:       158427.0 ave      230019 max           0 min
Histogram: 4 2 2 0 5 3 4 4 12 16

Total # of neighbors = 8238203
Ave neighs/atom = 28.530474
Neighbor list builds = 0
Dangerous builds = 0
The dot product: -1.00297289053525e-06
Setting atom values ...
  1 settings made for x
  1 settings made for y
  1 settings made for z
Setting up cg style minimization ...
  Unit style    : metal
  Current step  : 2062
Per MPI rank memory allocation (min/avg/max) = 5.465 | 6.344 | 6.728 Mbytes
Step PotEng KinEng TotEng v_fx v_fy v_fz 
    2062   -1152449.3            0   -1152449.3 -0.029477866 -0.021520617  -0.04145162 
    2244   -1152449.3            0   -1152449.3 1.7317678e-06 7.7496901e-07 3.6303033e-06 
Loop time of 4.02757 on 52 procs for 182 steps with 288751 atoms

99.9% CPU use with 52 MPI tasks x 1 OpenMP threads

Minimization stats:
  Stopping criterion = energy tolerance
  Energy initial, next-to-last, final = 
     -1152449.33480166  -1152449.33716326  -1152449.33716326
  Force two-norm initial, final = 0.18486545 0.00021009795
  Force max component initial, final = 0.09234405 3.9740654e-05
  Final line search alpha, max atom move = 1.0000000 3.9740654e-05
  Iterations, force evaluations = 182 364

MPI task timing breakdown:
Section |  min time  |  avg time  |  max time  |%varavg| %total
---------------------------------------------------------------
Pair    | 1.0239     | 2.9084     | 3.838      |  47.3 | 72.21
Neigh   | 0          | 0          | 0          |   0.0 |  0.00
Comm    | 0.054602   | 0.65286    | 2.0496     |  72.1 | 16.21
Output  | 0          | 0          | 0          |   0.0 |  0.00
Modify  | 8.6203e-05 | 0.0060229  | 0.01277    |   3.6 |  0.15
Other   |            | 0.4603     |            |       | 11.43

Nlocal:        5552.90 ave        7891 max           0 min
Histogram: 4 2 2 0 2 6 4 0 14 18
Nghost:        6213.58 ave        8769 max         412 min
Histogram: 4 0 4 0 8 0 4 5 7 20
Neighs:       158427.0 ave      229968 max           0 min
Histogram: 4 2 2 0 5 3 4 4 12 16

Total # of neighbors = 8238205
Ave neighs/atom = 28.530481
Neighbor list builds = 0
Dangerous builds = 0
The dot product: -7.0043926290063e-08
Setting atom values ...
  1 settings made for x
  1 settings made for y
  1 settings made for z
Setting up cg style minimization ...
  Unit style    : metal
  Current step  : 2244
Per MPI rank memory allocation (min/avg/max) = 5.465 | 6.344 | 6.728 Mbytes
Step PotEng KinEng TotEng v_fx v_fy v_fz 
    2244   -1152449.3            0   -1152449.3 -0.033897594 -0.022465026   -0.0365369 
    2417   -1152449.3            0   -1152449.3 1.4967021e-05 -1.696898e-05 7.4489671e-05 
Loop time of 3.78587 on 52 procs for 173 steps with 288751 atoms

99.9% CPU use with 52 MPI tasks x 1 OpenMP threads

Minimization stats:
  Stopping criterion = energy tolerance
  Energy initial, next-to-last, final = 
      -1152449.3179331  -1152449.32014504  -1152449.32014504
  Force two-norm initial, final = 0.18420141 0.00029395132
  Force max component initial, final = 0.099132294 7.4489671e-05
  Final line search alpha, max atom move = 1.0000000 7.4489671e-05
  Iterations, force evaluations = 173 346

MPI task timing breakdown:
Section |  min time  |  avg time  |  max time  |%varavg| %total
---------------------------------------------------------------
Pair    | 0.97887    | 2.7513     | 3.6145     |  46.0 | 72.67
Neigh   | 0          | 0          | 0          |   0.0 |  0.00
Comm    | 0.05204    | 0.61533    | 1.9563     |  70.2 | 16.25
Output  | 0          | 0          | 0          |   0.0 |  0.00
Modify  | 8.1694e-05 | 0.0057916  | 0.012313   |   3.6 |  0.15
Other   |            | 0.4134     |            |       | 10.92

Nlocal:        5552.90 ave        7888 max           0 min
Histogram: 4 2 2 0 2 6 4 0 14 18
Nghost:        6213.69 ave        8769 max         412 min
Histogram: 4 0 4 0 8 0 4 5 7 20
Neighs:       158427.0 ave      229874 max           0 min
Histogram: 4 2 2 0 5 3 4 4 11 17

Total # of neighbors = 8238204
Ave neighs/atom = 28.530478
Neighbor list builds = 0
Dangerous builds = 0
The dot product: -7.89432776226217e-07
Setting atom values ...
  1 settings made for x
  1 settings made for y
  1 settings made for z
Setting up cg style minimization ...
  Unit style    : metal
  Current step  : 2417
Per MPI rank memory allocation (min/avg/max) = 5.465 | 6.344 | 6.728 Mbytes
Step PotEng KinEng TotEng v_fx v_fy v_fz 
    2417   -1152449.3            0   -1152449.3 -0.031659297 -0.019607577 -0.027312447 
    2568   -1152449.3            0   -1152449.3 -6.0866523e-06 2.779234e-05 -6.8692632e-05 
Loop time of 3.33364 on 52 procs for 151 steps with 288751 atoms

99.9% CPU use with 52 MPI tasks x 1 OpenMP threads

Minimization stats:
  Stopping criterion = energy tolerance
  Energy initial, next-to-last, final = 
     -1152449.29973334  -1152449.30180013  -1152449.30180013
  Force two-norm initial, final = 0.18140638 0.00040943825
  Force max component initial, final = 0.10478555 7.1069827e-05
  Final line search alpha, max atom move = 1.0000000 7.1069827e-05
  Iterations, force evaluations = 151 302

MPI task timing breakdown:
Section |  min time  |  avg time  |  max time  |%varavg| %total
---------------------------------------------------------------
Pair    | 0.8492     | 2.409      | 3.185      |  43.2 | 72.26
Neigh   | 0          | 0          | 0          |   0.0 |  0.00
Comm    | 0.044959   | 0.53987    | 1.6993     |  65.5 | 16.19
Output  | 0          | 0          | 0          |   0.0 |  0.00
Modify  | 7.0116e-05 | 0.0049956  | 0.010573   |   3.3 |  0.15
Other   |            | 0.3798     |            |       | 11.39

Nlocal:        5552.90 ave        7885 max           0 min
Histogram: 4 2 2 0 2 6 4 0 14 18
Nghost:        6213.73 ave        8770 max         412 min
Histogram: 4 0 4 0 8 0 4 5 7 20
Neighs:       158427.0 ave      229763 max           0 min
Histogram: 4 2 2 0 5 3 4 4 11 17

Total # of neighbors = 8238208
Ave neighs/atom = 28.530492
Neighbor list builds = 0
Dangerous builds = 0
The dot product: 4.9639677606027e-07
Setting atom values ...
  1 settings made for x
  1 settings made for y
  1 settings made for z
Setting up cg style minimization ...
  Unit style    : metal
  Current step  : 2568
Per MPI rank memory allocation (min/avg/max) = 5.465 | 6.344 | 6.728 Mbytes
Step PotEng KinEng TotEng v_fx v_fy v_fz 
    2568   -1152449.3            0   -1152449.3 -0.027494915 -0.015683399 -0.020698113 
    2784   -1152449.3            0   -1152449.3 3.0936829e-06 -2.0193869e-06 9.5142286e-06 
Loop time of 4.76552 on 52 procs for 216 steps with 288751 atoms

99.9% CPU use with 52 MPI tasks x 1 OpenMP threads

Minimization stats:
  Stopping criterion = energy tolerance
  Energy initial, next-to-last, final = 
     -1152449.28018617  -1152449.28218919  -1152449.28218919
  Force two-norm initial, final = 0.17881714 7.3452794e-05
  Force max component initial, final = 0.10911886 1.8313187e-05
  Final line search alpha, max atom move = 1.0000000 1.8313187e-05
  Iterations, force evaluations = 216 432

MPI task timing breakdown:
Section |  min time  |  avg time  |  max time  |%varavg| %total
---------------------------------------------------------------
Pair    | 1.2224     | 3.4378     | 4.5477     |  51.6 | 72.14
Neigh   | 0          | 0          | 0          |   0.0 |  0.00
Comm    | 0.06522    | 0.77307    | 2.4349     |  77.8 | 16.22
Output  | 0          | 0          | 0          |   0.0 |  0.00
Modify  | 0.0001014  | 0.0072402  | 0.015558   |   4.0 |  0.15
Other   |            | 0.5474     |            |       | 11.49

Nlocal:        5552.90 ave        7881 max           0 min
Histogram: 4 2 2 0 2 6 4 0 14 18
Nghost:        6213.69 ave        8770 max         412 min
Histogram: 4 0 4 0 8 0 4 5 7 20
Neighs:       158427.0 ave      229625 max           0 min
Histogram: 4 2 2 0 5 3 4 4 11 17

Total # of neighbors = 8238213
Ave neighs/atom = 28.530509
Neighbor list builds = 0
Dangerous builds = 0
The dot product: -9.90478355792685e-08
Setting atom values ...
  1 settings made for x
  1 settings made for y
  1 settings made for z
Setting up cg style minimization ...
  Unit style    : metal
  Current step  : 2784
Per MPI rank memory allocation (min/avg/max) = 5.465 | 6.344 | 6.728 Mbytes
Step PotEng KinEng TotEng v_fx v_fy v_fz 
    2784   -1152449.3            0   -1152449.3  -0.02353235 -0.011428796 -0.017847848 
    3000   -1152449.3            0   -1152449.3 3.764526e-06 -4.5215634e-06 1.429169e-05 
    3003   -1152449.3            0   -1152449.3 3.2931376e-06 -3.2286692e-06 1.119325e-05 
Loop time of 4.85014 on 52 procs for 219 steps with 288751 atoms

99.9% CPU use with 52 MPI tasks x 1 OpenMP threads

Minimization stats:
  Stopping criterion = linesearch alpha is zero
  Energy initial, next-to-last, final = 
     -1152449.25944301  -1152449.26136213  -1152449.26136213
  Force two-norm initial, final = 0.17675017 6.2112505e-05
  Force max component initial, final = 0.11270809 1.4851441e-05
  Final line search alpha, max atom move = 0.5 7.4257207e-06
  Iterations, force evaluations = 219 439

MPI task timing breakdown:
Section |  min time  |  avg time  |  max time  |%varavg| %total
---------------------------------------------------------------
Pair    | 1.2312     | 3.5086     | 4.6248     |  52.0 | 72.34
Neigh   | 0          | 0          | 0          |   0.0 |  0.00
Comm    | 0.065221   | 0.78633    | 2.4757     |  79.5 | 16.21
Output  | 0.00013276 | 0.00013638 | 0.00028999 |   0.0 |  0.00
Modify  | 0.00010421 | 0.0072517  | 0.015335   |   4.0 |  0.15
Other   |            | 0.5478     |            |       | 11.30

Nlocal:        5552.90 ave        7875 max           0 min
Histogram: 4 2 2 0 2 6 4 0 14 18
Nghost:        6213.69 ave        8770 max         412 min
Histogram: 4 0 4 0 8 0 4 5 7 20
Neighs:       158427.0 ave      229417 max           0 min
Histogram: 4 2 2 0 4 4 4 4 11 17

Total # of neighbors = 8238216
Ave neighs/atom = 28.530519
Neighbor list builds = 0
Dangerous builds = 0
The dot product: -1.06926078571577e-07
Setting atom values ...
  1 settings made for x
  1 settings made for y
  1 settings made for z
Setting up cg style minimization ...
  Unit style    : metal
  Current step  : 3003
Per MPI rank memory allocation (min/avg/max) = 5.465 | 6.344 | 6.728 Mbytes
Step PotEng KinEng TotEng v_fx v_fy v_fz 
    3003   -1152449.2            0   -1152449.2 -0.020017516 -0.0078952972 -0.016068935 
    3193   -1152449.2            0   -1152449.2 3.5480888e-06 -1.6052535e-06 7.9993341e-06 
Loop time of 4.19996 on 52 procs for 190 steps with 288751 atoms

99.9% CPU use with 52 MPI tasks x 1 OpenMP threads

Minimization stats:
  Stopping criterion = energy tolerance
  Energy initial, next-to-last, final = 
      -1152449.2374537  -1152449.23933989  -1152449.23933989
  Force two-norm initial, final = 0.17513696 0.00013033834
  Force max component initial, final = 0.11583353 1.9995654e-05
  Final line search alpha, max atom move = 1.0000000 1.9995654e-05
  Iterations, force evaluations = 190 380

MPI task timing breakdown:
Section |  min time  |  avg time  |  max time  |%varavg| %total
---------------------------------------------------------------
Pair    | 1.0737     | 3.0266     | 4.0032     |  48.4 | 72.06
Neigh   | 0          | 0          | 0          |   0.0 |  0.00
Comm    | 0.059857   | 0.6827     | 2.1459     |  72.9 | 16.25
Output  | 0          | 0          | 0          |   0.0 |  0.00
Modify  | 9.2278e-05 | 0.0063492  | 0.013579   |   3.7 |  0.15
Other   |            | 0.4843     |            |       | 11.53

Nlocal:        5552.90 ave        7871 max           0 min
Histogram: 4 2 2 0 2 6 4 0 14 18
Nghost:        6213.69 ave        8770 max         412 min
Histogram: 4 0 4 0 8 0 4 5 7 20
Neighs:       158427.0 ave      229299 max           0 min
Histogram: 4 2 2 0 4 4 4 4 11 17

Total # of neighbors = 8238212
Ave neighs/atom = 28.530506
Neighbor list builds = 0
Dangerous builds = 0
The dot product: -9.05547652775373e-08
Setting atom values ...
  1 settings made for x
  1 settings made for y
  1 settings made for z
Setting up cg style minimization ...
  Unit style    : metal
  Current step  : 3193
Per MPI rank memory allocation (min/avg/max) = 5.465 | 6.344 | 6.728 Mbytes
Step PotEng KinEng TotEng v_fx v_fy v_fz 
    3193   -1152449.2            0   -1152449.2 -0.018855724 -0.0050692126 -0.017186346 
    3390   -1152449.2            0   -1152449.2 -1.0814431e-06 -2.9047979e-06 3.2740716e-06 
Loop time of 4.38756 on 52 procs for 197 steps with 288751 atoms

99.9% CPU use with 52 MPI tasks x 1 OpenMP threads

Minimization stats:
  Stopping criterion = linesearch alpha is zero
  Energy initial, next-to-last, final = 
     -1152449.21432648  -1152449.21636617  -1152449.21636617
  Force two-norm initial, final = 0.17420218 0.0001120941
  Force max component initial, final = 0.11866467 1.5006258e-05
  Final line search alpha, max atom move = 0.5 7.5031290e-06
  Iterations, force evaluations = 197 397

MPI task timing breakdown:
Section |  min time  |  avg time  |  max time  |%varavg| %total
---------------------------------------------------------------
Pair    | 1.1176     | 3.176      | 4.1869     |  49.5 | 72.39
Neigh   | 0          | 0          | 0          |   0.0 |  0.00
Comm    | 0.059084   | 0.71197    | 2.2404     |  75.4 | 16.23
Output  | 0          | 0          | 0          |   0.0 |  0.00
Modify  | 9.688e-05  | 0.0065664  | 0.013924   |   3.8 |  0.15
Other   |            | 0.493      |            |       | 11.24

Nlocal:        5552.90 ave        7869 max           0 min
Histogram: 4 2 2 0 2 6 4 0 14 18
Nghost:        6213.69 ave        8770 max         412 min
Histogram: 4 0 4 0 8 0 4 5 7 20
Neighs:       158427.0 ave      229242 max           0 min
Histogram: 4 2 2 0 4 4 4 4 10 18

Total # of neighbors = 8238211
Ave neighs/atom = 28.530502
Neighbor list builds = 0
Dangerous builds = 0
The dot product: -2.49274769700345e-08
Setting atom values ...
  1 settings made for x
  1 settings made for y
  1 settings made for z
Setting up cg style minimization ...
  Unit style    : metal
  Current step  : 3390
Per MPI rank memory allocation (min/avg/max) = 5.465 | 6.344 | 6.728 Mbytes
Step PotEng KinEng TotEng v_fx v_fy v_fz 
    3390   -1152449.2            0   -1152449.2 -0.023092439 -0.0023832653 -0.024467232 
    3559   -1152449.2            0   -1152449.2 4.4968739e-06 -5.1561343e-06 1.3365247e-05 
Loop time of 3.72194 on 52 procs for 169 steps with 288751 atoms

99.9% CPU use with 52 MPI tasks x 1 OpenMP threads

Minimization stats:
  Stopping criterion = energy tolerance
  Energy initial, next-to-last, final = 
     -1152449.19055517   -1152449.1927921   -1152449.1927921
  Force two-norm initial, final = 0.17446313 0.00021474691
  Force max component initial, final = 0.12128079 2.3971399e-05
  Final line search alpha, max atom move = 1.0000000 2.3971399e-05
  Iterations, force evaluations = 169 338

MPI task timing breakdown:
Section |  min time  |  avg time  |  max time  |%varavg| %total
---------------------------------------------------------------
Pair    | 0.95534    | 2.6945     | 3.5318     |  45.5 | 72.40
Neigh   | 0          | 0          | 0          |   0.0 |  0.00
Comm    | 0.051253   | 0.60233    | 1.9118     |  69.7 | 16.18
Output  | 0          | 0          | 0          |   0.0 |  0.00
Modify  | 8.1488e-05 | 0.0056518  | 0.012006   |   3.5 |  0.15
Other   |            | 0.4195     |            |       | 11.27

Nlocal:        5552.90 ave        7870 max           0 min
Histogram: 4 2 2 0 2 6 4 0 14 18
Nghost:        6213.71 ave        8770 max         412 min
Histogram: 4 0 4 0 8 0 4 5 7 20
Neighs:       158427.0 ave      229261 max           0 min
Histogram: 4 2 2 0 4 4 4 4 10 18

Total # of neighbors = 8238211
Ave neighs/atom = 28.530502
Neighbor list builds = 0
Dangerous builds = 0
The dot product: -2.2237278313279e-07
Setting atom values ...
  1 settings made for x
  1 settings made for y
  1 settings made for z
Setting up cg style minimization ...
  Unit style    : metal
  Current step  : 3559
Per MPI rank memory allocation (min/avg/max) = 5.465 | 6.344 | 6.728 Mbytes
Step PotEng KinEng TotEng v_fx v_fy v_fz 
    3559   -1152449.2            0   -1152449.2 -0.028191861 -5.4080797e-05 -0.030475186 
    3751   -1152449.2            0   -1152449.2 2.1743662e-07 3.1099773e-06 -4.1931829e-06 
Loop time of 4.2572 on 52 procs for 192 steps with 288751 atoms

99.9% CPU use with 52 MPI tasks x 1 OpenMP threads

Minimization stats:
  Stopping criterion = energy tolerance
  Energy initial, next-to-last, final = 
     -1152449.16634221   -1152449.1685239   -1152449.1685239
  Force two-norm initial, final = 0.17522436 0.00010766278
  Force max component initial, final = 0.12400328 1.0227223e-05
  Final line search alpha, max atom move = 1.0000000 1.0227223e-05
  Iterations, force evaluations = 192 386

MPI task timing breakdown:
Section |  min time  |  avg time  |  max time  |%varavg| %total
---------------------------------------------------------------
Pair    | 1.0801     | 3.0709     | 4.0679     |  48.7 | 72.13
Neigh   | 0          | 0          | 0          |   0.0 |  0.00
Comm    | 0.057449   | 0.69189    | 2.1732     |  73.9 | 16.25
Output  | 0          | 0          | 0          |   0.0 |  0.00
Modify  | 8.5049e-05 | 0.0063706  | 0.013495   |   3.7 |  0.15
Other   |            | 0.4881     |            |       | 11.46

Nlocal:        5552.90 ave        7870 max           0 min
Histogram: 4 2 2 0 2 6 4 0 14 18
Nghost:        6213.71 ave        8770 max         412 min
Histogram: 4 0 4 0 8 0 4 5 7 20
Neighs:       158427.0 ave      229253 max           0 min
Histogram: 4 2 2 0 4 4 4 4 10 18

Total # of neighbors = 8238215
Ave neighs/atom = 28.530516
Neighbor list builds = 0
Dangerous builds = 0
The dot product: 5.51649374222671e-08
Setting atom values ...
  1 settings made for x
  1 settings made for y
  1 settings made for z
Setting up cg style minimization ...
  Unit style    : metal
  Current step  : 3751
Per MPI rank memory allocation (min/avg/max) = 5.465 | 6.344 | 6.728 Mbytes
Step PotEng KinEng TotEng v_fx v_fy v_fz 
    3751   -1152449.1            0   -1152449.1 -0.027496417 0.0012153148 -0.028396874 
    3997   -1152449.1            0   -1152449.1 6.5741175e-07 -1.5284545e-06 2.6795059e-06 
Loop time of 5.3875 on 52 procs for 246 steps with 288751 atoms

99.9% CPU use with 52 MPI tasks x 1 OpenMP threads

Minimization stats:
  Stopping criterion = linesearch alpha is zero
  Energy initial, next-to-last, final = 
     -1152449.14120879  -1152449.14326096  -1152449.14326096
  Force two-norm initial, final = 0.17465854 1.6614028e-05
  Force max component initial, final = 0.12710071 3.9236543e-06
  Final line search alpha, max atom move = 0.5 1.9618271e-06
  Iterations, force evaluations = 246 493

MPI task timing breakdown:
Section |  min time  |  avg time  |  max time  |%varavg| %total
---------------------------------------------------------------
Pair    | 1.3922     | 3.9156     | 5.1311     |  54.8 | 72.68
Neigh   | 0          | 0          | 0          |   0.0 |  0.00
Comm    | 0.074323   | 0.8759     | 2.785      |  84.1 | 16.26
Output  | 0          | 0          | 0          |   0.0 |  0.00
Modify  | 0.00011926 | 0.0082071  | 0.017633   |   4.2 |  0.15
Other   |            | 0.5878     |            |       | 10.91

Nlocal:        5552.90 ave        7871 max           0 min
Histogram: 4 2 2 0 2 6 4 0 14 18
Nghost:        6213.71 ave        8770 max         412 min
Histogram: 4 0 4 0 8 0 4 5 7 20
Neighs:       158427.0 ave      229265 max           0 min
Histogram: 4 2 2 0 4 4 4 4 10 18

Total # of neighbors = 8238215
Ave neighs/atom = 28.530516
Neighbor list builds = 0
Dangerous builds = 0
The dot product: -3.92604309899407e-08
Setting atom values ...
  1 settings made for x
  1 settings made for y
  1 settings made for z
Setting up cg style minimization ...
  Unit style    : metal
  Current step  : 3997
Per MPI rank memory allocation (min/avg/max) = 5.465 | 6.344 | 6.728 Mbytes
Step PotEng KinEng TotEng v_fx v_fy v_fz 
    3997   -1152449.1            0   -1152449.1 -0.023932136 0.0019149591 -0.023699354 
    4000   -1152449.1            0   -1152449.1 -0.0019527211 0.00030181156 -0.002117503 
    4191   -1152449.1            0   -1152449.1 -5.1218178e-07 5.3629213e-06 -7.2262651e-06 
Loop time of 4.31245 on 52 procs for 194 steps with 288751 atoms

99.9% CPU use with 52 MPI tasks x 1 OpenMP threads

Minimization stats:
  Stopping criterion = linesearch alpha is zero
  Energy initial, next-to-last, final = 
     -1152449.11495183  -1152449.11681102  -1152449.11681102
  Force two-norm initial, final = 0.17380254 0.00011044588
  Force max component initial, final = 0.13008874 1.2464348e-05
  Final line search alpha, max atom move = 0.5 6.2321740e-06
  Iterations, force evaluations = 194 391

MPI task timing breakdown:
Section |  min time  |  avg time  |  max time  |%varavg| %total
---------------------------------------------------------------
Pair    | 1.0969     | 3.1242     | 4.1211     |  49.1 | 72.45
Neigh   | 0          | 0          | 0          |   0.0 |  0.00
Comm    | 0.058382   | 0.70059    | 2.2091     |  75.0 | 16.25
Output  | 0.00012616 | 0.00012956 | 0.00025513 |   0.0 |  0.00
Modify  | 8.8453e-05 | 0.006461   | 0.013679   |   3.7 |  0.15
Other   |            | 0.4811     |            |       | 11.15

Nlocal:        5552.90 ave        7871 max           0 min
Histogram: 4 2 2 0 2 6 4 0 14 18
Nghost:        6213.73 ave        8771 max         412 min
Histogram: 4 0 4 0 8 0 4 5 7 20
Neighs:       158427.0 ave      229255 max           0 min
Histogram: 4 2 2 0 4 4 4 4 10 18

Total # of neighbors = 8238214
Ave neighs/atom = 28.530512
Neighbor list builds = 0
Dangerous builds = 0
The dot product: 8.35396623393832e-08
Setting atom values ...
  1 settings made for x
  1 settings made for y
  1 settings made for z
Setting up cg style minimization ...
  Unit style    : metal
  Current step  : 4191
Per MPI rank memory allocation (min/avg/max) = 5.465 | 6.344 | 6.728 Mbytes
Step PotEng KinEng TotEng v_fx v_fy v_fz 
    4191   -1152449.1            0   -1152449.1 -0.018790469 0.0017381337 -0.017651423 
    4384   -1152449.1            0   -1152449.1 -1.2803354e-06 8.9024116e-07 -2.1350832e-06 
Loop time of 4.24015 on 52 procs for 193 steps with 288751 atoms

99.9% CPU use with 52 MPI tasks x 1 OpenMP threads

Minimization stats:
  Stopping criterion = linesearch alpha is zero
  Energy initial, next-to-last, final = 
     -1152449.08734685   -1152449.0890772   -1152449.0890772
  Force two-norm initial, final = 0.17326287 0.00010421246
  Force max component initial, final = 0.13295766 1.2726611e-05
  Final line search alpha, max atom move = 0.5 6.3633053e-06
  Iterations, force evaluations = 193 387

MPI task timing breakdown:
Section |  min time  |  avg time  |  max time  |%varavg| %total
---------------------------------------------------------------
Pair    | 1.0946     | 3.0779     | 4.0485     |  48.7 | 72.59
Neigh   | 0          | 0          | 0          |   0.0 |  0.00
Comm    | 0.058404   | 0.68811    | 2.186      |  74.2 | 16.23
Output  | 0          | 0          | 0          |   0.0 |  0.00
Modify  | 8.856e-05  | 0.0064747  | 0.01376    |   3.8 |  0.15
Other   |            | 0.4676     |            |       | 11.03

Nlocal:        5552.90 ave        7871 max           0 min
Histogram: 4 2 2 0 2 6 4 0 14 18
Nghost:        6213.73 ave        8771 max         412 min
Histogram: 4 0 4 0 8 0 4 5 7 20
Neighs:       158427.0 ave      229251 max           0 min
Histogram: 4 2 2 0 4 4 4 4 10 18

Total # of neighbors = 8238213
Ave neighs/atom = 28.530509
Neighbor list builds = 0
Dangerous builds = 0
The dot product: 2.60633248008539e-08
Setting atom values ...
  1 settings made for x
  1 settings made for y
  1 settings made for z
Setting up cg style minimization ...
  Unit style    : metal
  Current step  : 4384
Per MPI rank memory allocation (min/avg/max) = 5.465 | 6.344 | 6.728 Mbytes
Step PotEng KinEng TotEng v_fx v_fy v_fz 
    4384   -1152449.1            0   -1152449.1 -0.013525792 0.0014446118 -0.012279168 
    4555   -1152449.1            0   -1152449.1 -1.4748249e-05 3.7624943e-05 -5.5425817e-05 
Loop time of 3.77789 on 52 procs for 171 steps with 288751 atoms

99.9% CPU use with 52 MPI tasks x 1 OpenMP threads

Minimization stats:
  Stopping criterion = energy tolerance
  Energy initial, next-to-last, final = 
     -1152449.05840122  -1152449.06005688  -1152449.06005688
  Force two-norm initial, final = 0.17334993 0.00019592508
  Force max component initial, final = 0.1356385 5.5425817e-05
  Final line search alpha, max atom move = 1.0000000 5.5425817e-05
  Iterations, force evaluations = 171 342

MPI task timing breakdown:
Section |  min time  |  avg time  |  max time  |%varavg| %total
---------------------------------------------------------------
Pair    | 0.96352    | 2.734      | 3.6033     |  46.2 | 72.37
Neigh   | 0          | 0          | 0          |   0.0 |  0.00
Comm    | 0.05125    | 0.61181    | 1.9253     |  70.1 | 16.19
Output  | 0          | 0          | 0          |   0.0 |  0.00
Modify  | 7.4501e-05 | 0.0056674  | 0.012035   |   3.5 |  0.15
Other   |            | 0.4264     |            |       | 11.29

Nlocal:        5552.90 ave        7870 max           0 min
Histogram: 4 2 2 0 2 6 4 0 14 18
Nghost:        6213.77 ave        8771 max         412 min
Histogram: 4 0 4 0 8 0 4 5 7 20
Neighs:       158427.0 ave      229221 max           0 min
Histogram: 4 2 2 0 4 4 4 4 10 18

Total # of neighbors = 8238214
Ave neighs/atom = 28.530512
Neighbor list builds = 0
Dangerous builds = 0
The dot product: 5.07989302015929e-07
Setting atom values ...
  1 settings made for x
  1 settings made for y
  1 settings made for z
Setting up cg style minimization ...
  Unit style    : metal
  Current step  : 4555
Per MPI rank memory allocation (min/avg/max) = 5.465 | 6.344 | 6.728 Mbytes
Step PotEng KinEng TotEng v_fx v_fy v_fz 
    4555     -1152449            0     -1152449 -0.0089622136 0.0011422993 -0.0080260832 
    4725     -1152449            0     -1152449 9.830551e-06 -2.3445569e-05 3.3945429e-05 
Loop time of 3.75123 on 52 procs for 170 steps with 288751 atoms

99.9% CPU use with 52 MPI tasks x 1 OpenMP threads

Minimization stats:
  Stopping criterion = energy tolerance
  Energy initial, next-to-last, final = 
     -1152449.02816835  -1152449.02981196  -1152449.02981196
  Force two-norm initial, final = 0.1738955 0.00020104109
  Force max component initial, final = 0.13802573 3.6206403e-05
  Final line search alpha, max atom move = 1.0000000 3.6206403e-05
  Iterations, force evaluations = 170 340

MPI task timing breakdown:
Section |  min time  |  avg time  |  max time  |%varavg| %total
---------------------------------------------------------------
Pair    | 0.95722    | 2.707      | 3.5843     |  45.9 | 72.16
Neigh   | 0          | 0          | 0          |   0.0 |  0.00
Comm    | 0.050839   | 0.61048    | 1.9192     |  69.1 | 16.27
Output  | 0          | 0          | 0          |   0.0 |  0.00
Modify  | 7.7675e-05 | 0.005646   | 0.011915   |   3.5 |  0.15
Other   |            | 0.4281     |            |       | 11.41

Nlocal:        5552.90 ave        7869 max           0 min
Histogram: 4 2 2 0 2 6 4 0 14 18
Nghost:        6213.71 ave        8771 max         412 min
Histogram: 4 0 4 0 8 0 4 5 7 20
Neighs:       158427.0 ave      229187 max           0 min
Histogram: 4 2 2 0 4 4 4 4 10 18

Total # of neighbors = 8238218
Ave neighs/atom = 28.530526
Neighbor list builds = 0
Dangerous builds = 0
The dot product: -2.80307168196014e-07
Setting atom values ...
  1 settings made for x
  1 settings made for y
  1 settings made for z
Setting up cg style minimization ...
  Unit style    : metal
  Current step  : 4725
Per MPI rank memory allocation (min/avg/max) = 5.465 | 6.344 | 6.728 Mbytes
Step PotEng KinEng TotEng v_fx v_fy v_fz 
    4725     -1152449            0     -1152449 -0.0055622525 0.00088360741 -0.0050184132 
    4944     -1152449            0     -1152449 7.6659633e-07 -5.5702866e-06 6.7113729e-06 
Loop time of 4.85526 on 52 procs for 219 steps with 288751 atoms

99.9% CPU use with 52 MPI tasks x 1 OpenMP threads

Minimization stats:
  Stopping criterion = linesearch alpha is zero
  Energy initial, next-to-last, final = 
     -1152448.99680674  -1152448.99845419  -1152448.99845419
  Force two-norm initial, final = 0.17464575 6.4445134e-05
  Force max component initial, final = 0.14014516 1.3623805e-05
  Final line search alpha, max atom move = 0.5 6.8119023e-06
  Iterations, force evaluations = 219 439

MPI task timing breakdown:
Section |  min time  |  avg time  |  max time  |%varavg| %total
---------------------------------------------------------------
Pair    | 1.2386     | 3.5113     | 4.6249     |  52.1 | 72.32
Neigh   | 0          | 0          | 0          |   0.0 |  0.00
Comm    | 0.066847   | 0.78803    | 2.4895     |  79.4 | 16.23
Output  | 0          | 0          | 0          |   0.0 |  0.00
Modify  | 0.00010299 | 0.007251   | 0.015363   |   4.0 |  0.15
Other   |            | 0.5487     |            |       | 11.30

Nlocal:        5552.90 ave        7869 max           0 min
Histogram: 4 2 2 0 2 6 4 0 14 18
Nghost:        6213.71 ave        8771 max         412 min
Histogram: 4 0 4 0 8 0 4 5 7 20
Neighs:       158427.0 ave      229178 max           0 min
Histogram: 4 2 2 0 4 4 4 4 10 18

Total # of neighbors = 8238215
Ave neighs/atom = 28.530516
Neighbor list builds = 0
Dangerous builds = 0
The dot product: -4.89979065405473e-08
Setting atom values ...
  1 settings made for x
  1 settings made for y
  1 settings made for z
Setting up cg style minimization ...
  Unit style    : metal
  Current step  : 4944
Per MPI rank memory allocation (min/avg/max) = 5.465 | 6.344 | 6.728 Mbytes
Step PotEng KinEng TotEng v_fx v_fy v_fz 
    4944     -1152449            0     -1152449 -0.0029995953 0.00033880071 -0.0024890744 
    5000     -1152449            0     -1152449 0.0001068875 -0.00026780425 0.00036507085 
    5108     -1152449            0     -1152449 -3.7676862e-07 -1.2818823e-05 1.3586964e-05 
Loop time of 3.60017 on 52 procs for 164 steps with 288751 atoms

99.9% CPU use with 52 MPI tasks x 1 OpenMP threads

Minimization stats:
  Stopping criterion = energy tolerance
  Energy initial, next-to-last, final = 
      -1152448.9643826  -1152448.96604509  -1152448.96604509
  Force two-norm initial, final = 0.1755324 0.00027118538
  Force max component initial, final = 0.14208249 3.0909050e-05
  Final line search alpha, max atom move = 1.0000000 3.0909050e-05
  Iterations, force evaluations = 164 328

MPI task timing breakdown:
Section |  min time  |  avg time  |  max time  |%varavg| %total
---------------------------------------------------------------
Pair    | 0.92956    | 2.6163     | 3.4301     |  44.8 | 72.67
Neigh   | 0          | 0          | 0          |   0.0 |  0.00
Comm    | 0.049574   | 0.58516    | 1.8543     |  68.5 | 16.25
Output  | 0.00012909 | 0.00013274 | 0.00027248 |   0.0 |  0.00
Modify  | 7.5693e-05 | 0.0054871  | 0.01176    |   3.5 |  0.15
Other   |            | 0.3931     |            |       | 10.92

Nlocal:        5552.90 ave        7868 max           0 min
Histogram: 4 2 2 0 2 6 4 0 14 18
Nghost:        6213.71 ave        8771 max         412 min
Histogram: 4 0 4 0 8 0 4 5 7 20
Neighs:       158427.0 ave      229158 max           0 min
Histogram: 4 2 2 0 4 4 4 4 10 18

Total # of neighbors = 8238219
Ave neighs/atom = 28.530530
Neighbor list builds = 0
Dangerous builds = 0
The dot product: -9.27270784954992e-08
Setting atom values ...
  1 settings made for x
  1 settings made for y
  1 settings made for z
Setting up cg style minimization ...
  Unit style    : metal
  Current step  : 5108
Per MPI rank memory allocation (min/avg/max) = 5.465 | 6.344 | 6.728 Mbytes
Step PotEng KinEng TotEng v_fx v_fy v_fz 
    5108   -1152448.9            0   -1152448.9 -0.0012365207 -0.00040090373 -0.00043142477 
    5297   -1152448.9            0   -1152448.9 1.3594018e-07 -5.5849428e-06 6.0105377e-06 
Loop time of 4.18592 on 52 procs for 189 steps with 288751 atoms

99.9% CPU use with 52 MPI tasks x 1 OpenMP threads

Minimization stats:
  Stopping criterion = linesearch alpha is zero
  Energy initial, next-to-last, final = 
     -1152448.93101387  -1152448.93272492  -1152448.93272492
  Force two-norm initial, final = 0.17636521 0.00015405108
  Force max component initial, final = 0.14376177 2.0405164e-05
  Final line search alpha, max atom move = 0.5 1.0202582e-05
  Iterations, force evaluations = 189 379

MPI task timing breakdown:
Section |  min time  |  avg time  |  max time  |%varavg| %total
---------------------------------------------------------------
Pair    | 1.0608     | 3.0204     | 3.9962     |  48.3 | 72.16
Neigh   | 0          | 0          | 0          |   0.0 |  0.00
Comm    | 0.058964   | 0.68162    | 2.1403     |  73.3 | 16.28
Output  | 0          | 0          | 0          |   0.0 |  0.00
Modify  | 8.9622e-05 | 0.0062652  | 0.013232   |   3.7 |  0.15
Other   |            | 0.4777     |            |       | 11.41

Nlocal:        5552.90 ave        7869 max           0 min
Histogram: 4 2 2 0 2 6 4 0 14 18
Nghost:        6213.75 ave        8771 max         412 min
Histogram: 4 0 4 0 8 0 4 5 7 20
Neighs:       158427.0 ave      229171 max           0 min
Histogram: 4 2 2 0 4 4 4 4 10 18

Total # of neighbors = 8238215
Ave neighs/atom = 28.530516
Neighbor list builds = 0
Dangerous builds = 0
The dot product: -3.96967943940091e-08
Setting atom values ...
  1 settings made for x
  1 settings made for y
  1 settings made for z
Setting up cg style minimization ...
  Unit style    : metal
  Current step  : 5297
Per MPI rank memory allocation (min/avg/max) = 5.465 | 6.344 | 6.728 Mbytes
Step PotEng KinEng TotEng v_fx v_fy v_fz 
    5297   -1152448.9            0   -1152448.9 3.5883451e-05 -0.0013173163 0.0013944485 
    5479   -1152448.9            0   -1152448.9 -5.5883523e-06 5.4208992e-06 -9.4352622e-06 
Loop time of 3.98509 on 52 procs for 182 steps with 288751 atoms

99.9% CPU use with 52 MPI tasks x 1 OpenMP threads

Minimization stats:
  Stopping criterion = energy tolerance
  Energy initial, next-to-last, final = 
     -1152448.89681505  -1152448.89844635  -1152448.89844635
  Force two-norm initial, final = 0.17711204 0.00016654149
  Force max component initial, final = 0.1451912 3.6866019e-05
  Final line search alpha, max atom move = 1.0000000 3.6866019e-05
  Iterations, force evaluations = 182 364

MPI task timing breakdown:
Section |  min time  |  avg time  |  max time  |%varavg| %total
---------------------------------------------------------------
Pair    | 1.0322     | 2.8976     | 3.8061     |  47.1 | 72.71
Neigh   | 0          | 0          | 0          |   0.0 |  0.00
Comm    | 0.054824   | 0.64879    | 2.0626     |  71.8 | 16.28
Output  | 0          | 0          | 0          |   0.0 |  0.00
Modify  | 8.592e-05  | 0.0060808  | 0.012967   |   3.6 |  0.15
Other   |            | 0.4327     |            |       | 10.86

Nlocal:        5552.90 ave        7869 max           0 min
Histogram: 4 2 2 0 2 6 4 0 14 18
Nghost:        6213.71 ave        8771 max         412 min
Histogram: 4 0 4 0 8 0 4 5 7 20
Neighs:       158427.0 ave      229165 max           0 min
Histogram: 4 2 2 0 4 4 4 4 10 18

Total # of neighbors = 8238216
Ave neighs/atom = 28.530519
Neighbor list builds = 0
Dangerous builds = 0
The dot product: 5.19712311616444e-08
Setting atom values ...
  1 settings made for x
  1 settings made for y
  1 settings made for z
Setting up cg style minimization ...
  Unit style    : metal
  Current step  : 5479
Per MPI rank memory allocation (min/avg/max) = 5.465 | 6.344 | 6.728 Mbytes
Step PotEng KinEng TotEng v_fx v_fy v_fz 
    5479   -1152448.9            0   -1152448.9 0.0016066515 -0.0033093433  0.004466988 
    5653   -1152448.9            0   -1152448.9 -2.9810995e-06 5.1654469e-06 -7.2894658e-06 
Loop time of 3.87267 on 52 procs for 174 steps with 288751 atoms

99.9% CPU use with 52 MPI tasks x 1 OpenMP threads

Minimization stats:
  Stopping criterion = linesearch alpha is zero
  Energy initial, next-to-last, final = 
     -1152448.86150215  -1152448.86311326  -1152448.86311326
  Force two-norm initial, final = 0.17837395 0.00020025224
  Force max component initial, final = 0.14689557 1.6090124e-05
  Final line search alpha, max atom move = 0.25 4.0225310e-06
  Iterations, force evaluations = 174 351

MPI task timing breakdown:
Section |  min time  |  avg time  |  max time  |%varavg| %total
---------------------------------------------------------------
Pair    | 1.001      | 2.7955     | 3.7001     |  46.0 | 72.19
Neigh   | 0          | 0          | 0          |   0.0 |  0.00
Comm    | 0.052781   | 0.62766    | 1.978      |  70.4 | 16.21
Output  | 0          | 0          | 0          |   0.0 |  0.00
Modify  | 7.9129e-05 | 0.0058254  | 0.012289   |   3.5 |  0.15
Other   |            | 0.4437     |            |       | 11.46

Nlocal:        5552.90 ave        7869 max           0 min
Histogram: 4 2 2 0 2 6 4 0 14 18
Nghost:        6213.69 ave        8771 max         412 min
Histogram: 4 0 4 0 8 0 4 5 7 20
Neighs:       158427.0 ave      229162 max           0 min
Histogram: 4 2 2 0 4 4 4 4 10 18

Total # of neighbors = 8238215
Ave neighs/atom = 28.530516
Neighbor list builds = 0
Dangerous builds = 0
The dot product: 3.29369483457537e-08
Setting atom values ...
  1 settings made for x
  1 settings made for y
  1 settings made for z
Setting up cg style minimization ...
  Unit style    : metal
  Current step  : 5653
Per MPI rank memory allocation (min/avg/max) = 5.465 | 6.344 | 6.728 Mbytes
Step PotEng KinEng TotEng v_fx v_fy v_fz 
    5653   -1152448.8            0   -1152448.8 0.0029030699 -0.005481364 0.0074738638 
    5805   -1152448.8            0   -1152448.8 -3.3391649e-06 2.6203561e-05 -2.8741872e-05 
Loop time of 3.33638 on 52 procs for 152 steps with 288751 atoms

99.9% CPU use with 52 MPI tasks x 1 OpenMP threads

Minimization stats:
  Stopping criterion = energy tolerance
  Energy initial, next-to-last, final = 
     -1152448.82512819  -1152448.82685207  -1152448.82685207
  Force two-norm initial, final = 0.17965674 0.00026641352
  Force max component initial, final = 0.14847857 3.8631999e-05
  Final line search alpha, max atom move = 1.0000000 3.8631999e-05
  Iterations, force evaluations = 152 304

MPI task timing breakdown:
Section |  min time  |  avg time  |  max time  |%varavg| %total
---------------------------------------------------------------
Pair    | 0.86152    | 2.4184     | 3.183      |  43.1 | 72.48
Neigh   | 0          | 0          | 0          |   0.0 |  0.00
Comm    | 0.045652   | 0.54315    | 1.7189     |  65.5 | 16.28
Output  | 0          | 0          | 0          |   0.0 |  0.00
Modify  | 6.7871e-05 | 0.0050863  | 0.010834   |   3.3 |  0.15
Other   |            | 0.3698     |            |       | 11.08

Nlocal:        5552.90 ave        7867 max           0 min
Histogram: 4 2 2 0 2 6 4 0 14 18
Nghost:        6213.69 ave        8771 max         412 min
Histogram: 4 0 4 0 8 0 4 5 7 20
Neighs:       158427.0 ave      229090 max           0 min
Histogram: 4 2 2 0 4 4 4 4 10 18

Total # of neighbors = 8238217
Ave neighs/atom = 28.530523
Neighbor list builds = 0
Dangerous builds = 0
The dot product: 1.23010663920812e-07
Setting atom values ...
  1 settings made for x
  1 settings made for y
  1 settings made for z
Setting up cg style minimization ...
  Unit style    : metal
  Current step  : 5805
Per MPI rank memory allocation (min/avg/max) = 5.465 | 6.344 | 6.728 Mbytes
Step PotEng KinEng TotEng v_fx v_fy v_fz 
    5805   -1152448.8            0   -1152448.8 0.0035744355 -0.007151911 0.0095130164 
    5984   -1152448.8            0   -1152448.8 -5.4423902e-06 2.3356612e-05 -2.6971788e-05 
Loop time of 3.95824 on 52 procs for 179 steps with 288751 atoms

99.9% CPU use with 52 MPI tasks x 1 OpenMP threads

Minimization stats:
  Stopping criterion = energy tolerance
  Energy initial, next-to-last, final = 
     -1152448.78805161  -1152448.78967314  -1152448.78967314
  Force two-norm initial, final = 0.18017571 0.00018545417
  Force max component initial, final = 0.1494558 3.8649913e-05
  Final line search alpha, max atom move = 1.0000000 3.8649913e-05
  Iterations, force evaluations = 179 358

MPI task timing breakdown:
Section |  min time  |  avg time  |  max time  |%varavg| %total
---------------------------------------------------------------
Pair    | 1.0285     | 2.8706     | 3.7698     |  46.9 | 72.52
Neigh   | 0          | 0          | 0          |   0.0 |  0.00
Comm    | 0.054942   | 0.64327    | 2.0224     |  71.7 | 16.25
Output  | 0          | 0          | 0          |   0.0 |  0.00
Modify  | 7.3716e-05 | 0.0060124  | 0.012594   |   3.6 |  0.15
Other   |            | 0.4383     |            |       | 11.07

Nlocal:        5552.90 ave        7867 max           0 min
Histogram: 4 2 2 0 2 6 4 0 14 18
Nghost:        6213.73 ave        8771 max         412 min
Histogram: 4 0 4 0 8 0 4 5 7 20
Neighs:       158427.0 ave      229087 max           0 min
Histogram: 4 2 2 0 4 4 4 4 10 18

Total # of neighbors = 8238213
Ave neighs/atom = 28.530509
Neighbor list builds = 0
Dangerous builds = 0
The dot product: 8.01040794505677e-08
Setting atom values ...
  1 settings made for x
  1 settings made for y
  1 settings made for z
Setting up cg style minimization ...
  Unit style    : metal
  Current step  : 5984
Per MPI rank memory allocation (min/avg/max) = 5.465 | 6.344 | 6.728 Mbytes
Step PotEng KinEng TotEng v_fx v_fy v_fz 
    5984   -1152448.7            0   -1152448.7 0.0045636338 -0.010031341  0.012958744 
    6000   -1152448.8            0   -1152448.8 -0.00068764394 0.0016851268 -0.0021252312 
    6192   -1152448.8            0   -1152448.8 1.1162914e-06 -4.8464477e-06 5.5488094e-06 
Loop time of 4.5889 on 52 procs for 208 steps with 288751 atoms

99.9% CPU use with 52 MPI tasks x 1 OpenMP threads

Minimization stats:
  Stopping criterion = linesearch alpha is zero
  Energy initial, next-to-last, final = 
     -1152448.74985499  -1152448.75148628  -1152448.75148628
  Force two-norm initial, final = 0.18119056 7.6123447e-05
  Force max component initial, final = 0.15081558 9.8036175e-06
  Final line search alpha, max atom move = 0.5 4.9018088e-06
  Iterations, force evaluations = 208 417

MPI task timing breakdown:
Section |  min time  |  avg time  |  max time  |%varavg| %total
---------------------------------------------------------------
Pair    | 1.1848     | 3.3215     | 4.3819     |  50.7 | 72.38
Neigh   | 0          | 0          | 0          |   0.0 |  0.00
Comm    | 0.062941   | 0.74728    | 2.3523     |  76.5 | 16.28
Output  | 0.00012693 | 0.00013026 | 0.00026492 |   0.0 |  0.00
Modify  | 9.6102e-05 | 0.0070121  | 0.01503    |   3.9 |  0.15
Other   |            | 0.513      |            |       | 11.18

Nlocal:        5552.90 ave        7867 max           0 min
Histogram: 4 2 2 0 2 6 4 0 14 18
Nghost:        6213.81 ave        8771 max         412 min
Histogram: 4 0 4 0 8 0 4 5 7 20
Neighs:       158427.0 ave      229106 max           0 min
Histogram: 4 2 2 0 4 4 4 4 10 18

Total # of neighbors = 8238213
Ave neighs/atom = 28.530509
Neighbor list builds = 0
Dangerous builds = 0
The dot product: -1.0091856413764e-08
Setting atom values ...
  1 settings made for x
  1 settings made for y
  1 settings made for z
Setting up cg style minimization ...
  Unit style    : metal
  Current step  : 6192
Per MPI rank memory allocation (min/avg/max) = 5.465 | 6.344 | 6.728 Mbytes
Step PotEng KinEng TotEng v_fx v_fy v_fz 
    6192   -1152448.7            0   -1152448.7 0.0051953999 -0.012894294   0.01615424 
    6364   -1152448.7            0   -1152448.7 2.173409e-06 -5.8406975e-06 7.1998872e-06 
Loop time of 3.83022 on 52 procs for 172 steps with 288751 atoms

99.9% CPU use with 52 MPI tasks x 1 OpenMP threads

Minimization stats:
  Stopping criterion = linesearch alpha is zero
  Energy initial, next-to-last, final = 
     -1152448.71074086  -1152448.71254888  -1152448.71254888
  Force two-norm initial, final = 0.18168774 0.00013083966
  Force max component initial, final = 0.15194343 7.1998872e-06
  Final line search alpha, max atom move = 0.5 3.5999436e-06
  Iterations, force evaluations = 172 345

MPI task timing breakdown:
Section |  min time  |  avg time  |  max time  |%varavg| %total
---------------------------------------------------------------
Pair    | 0.9755     | 2.7598     | 3.6337     |  46.2 | 72.05
Neigh   | 0          | 0          | 0          |   0.0 |  0.00
Comm    | 0.052281   | 0.61948    | 1.95       |  69.9 | 16.17
Output  | 0          | 0          | 0          |   0.0 |  0.00
Modify  | 8.3838e-05 | 0.0057841  | 0.012577   |   3.5 |  0.15
Other   |            | 0.4452     |            |       | 11.62

Nlocal:        5552.90 ave        7867 max           0 min
Histogram: 4 2 2 0 2 6 4 0 14 18
Nghost:        6213.77 ave        8771 max         412 min
Histogram: 4 0 4 0 8 0 4 5 7 20
Neighs:       158427.0 ave      229114 max           0 min
Histogram: 4 2 2 0 4 4 4 4 10 18

Total # of neighbors = 8238212
Ave neighs/atom = 28.530506
Neighbor list builds = 0
Dangerous builds = 0
The dot product: -8.13157025766905e-09
Setting atom values ...
  1 settings made for x
  1 settings made for y
  1 settings made for z
Setting up cg style minimization ...
  Unit style    : metal
  Current step  : 6364
Per MPI rank memory allocation (min/avg/max) = 5.465 | 6.344 | 6.728 Mbytes
Step PotEng KinEng TotEng v_fx v_fy v_fz 
    6364   -1152448.7            0   -1152448.7 0.0055980866 -0.014935102  0.018390946 
    6543   -1152448.7            0   -1152448.7 9.5187426e-09 -2.9503935e-06 2.9171185e-06 
Loop time of 3.97248 on 52 procs for 179 steps with 288751 atoms

99.9% CPU use with 52 MPI tasks x 1 OpenMP threads

Minimization stats:
  Stopping criterion = linesearch alpha is zero
  Energy initial, next-to-last, final = 
     -1152448.67135039  -1152448.67310042  -1152448.67310042
  Force two-norm initial, final = 0.1805336 0.00016476858
  Force max component initial, final = 0.1519204 1.4544990e-05
  Final line search alpha, max atom move = 0.25 3.6362475e-06
  Iterations, force evaluations = 179 363

MPI task timing breakdown:
Section |  min time  |  avg time  |  max time  |%varavg| %total
---------------------------------------------------------------
Pair    | 1.0257     | 2.8877     | 3.7932     |  47.2 | 72.69
Neigh   | 0          | 0          | 0          |   0.0 |  0.00
Comm    | 0.054522   | 0.64537    | 2.049      |  71.9 | 16.25
Output  | 0          | 0          | 0          |   0.0 |  0.00
Modify  | 8.7585e-05 | 0.0060629  | 0.012904   |   3.6 |  0.15
Other   |            | 0.4334     |            |       | 10.91

Nlocal:        5552.90 ave        7868 max           0 min
Histogram: 4 2 2 0 2 6 4 0 14 18
Nghost:        6213.77 ave        8771 max         412 min
Histogram: 4 0 4 0 8 0 4 5 7 20
Neighs:       158427.0 ave      229142 max           0 min
Histogram: 4 2 2 0 4 4 4 4 10 18

Total # of neighbors = 8238207
Ave neighs/atom = 28.530488
Neighbor list builds = 0
Dangerous builds = 0
The dot product: -2.34681053844967e-10
Setting atom values ...
  1 settings made for x
  1 settings made for y
  1 settings made for z
Setting up cg style minimization ...
  Unit style    : metal
  Current step  : 6543
Per MPI rank memory allocation (min/avg/max) = 5.465 | 6.344 | 6.728 Mbytes
Step PotEng KinEng TotEng v_fx v_fy v_fz 
    6543   -1152448.6            0   -1152448.6 0.0059511645 -0.017864373  0.021524428 
    6696   -1152448.6            0   -1152448.6 -6.8474543e-06 3.6609131e-05 -4.0602632e-05 
Loop time of 3.38062 on 52 procs for 153 steps with 288751 atoms

99.9% CPU use with 52 MPI tasks x 1 OpenMP threads

Minimization stats:
  Stopping criterion = energy tolerance
  Energy initial, next-to-last, final = 
     -1152448.63160734  -1152448.63362524  -1152448.63362524
  Force two-norm initial, final = 0.17958865 0.00026856777
  Force max component initial, final = 0.15165893 5.7747060e-05
  Final line search alpha, max atom move = 1.0000000 5.7747060e-05
  Iterations, force evaluations = 153 306

MPI task timing breakdown:
Section |  min time  |  avg time  |  max time  |%varavg| %total
---------------------------------------------------------------
Pair    | 0.85853    | 2.4427     | 3.2266     |  43.4 | 72.26
Neigh   | 0          | 0          | 0          |   0.0 |  0.00
Comm    | 0.04571    | 0.54897    | 1.7255     |  66.1 | 16.24
Output  | 0          | 0          | 0          |   0.0 |  0.00
Modify  | 7.3354e-05 | 0.0050565  | 0.010724   |   3.3 |  0.15
Other   |            | 0.3839     |            |       | 11.35

Nlocal:        5552.90 ave        7867 max           0 min
Histogram: 4 2 2 0 2 6 4 0 14 18
Nghost:        6213.77 ave        8771 max         412 min
Histogram: 4 0 4 0 8 0 4 5 7 20
Neighs:       158427.0 ave      229096 max           0 min
Histogram: 4 2 2 0 4 4 4 4 10 18

Total # of neighbors = 8238199
Ave neighs/atom = 28.530461
Neighbor list builds = 0
Dangerous builds = 0
The dot product: -1.86824107667722e-08
Setting atom values ...
  1 settings made for x
  1 settings made for y
  1 settings made for z
Setting up cg style minimization ...
  Unit style    : metal
  Current step  : 6696
Per MPI rank memory allocation (min/avg/max) = 5.465 | 6.344 | 6.728 Mbytes
Step PotEng KinEng TotEng v_fx v_fy v_fz 
    6696   -1152448.6            0   -1152448.6  0.009416956 -0.018845751  0.024809174 
    6902   -1152448.6            0   -1152448.6 9.2728901e-06 -2.4098558e-05 2.9897343e-05 
Loop time of 4.54519 on 52 procs for 206 steps with 288751 atoms

99.9% CPU use with 52 MPI tasks x 1 OpenMP threads

Minimization stats:
  Stopping criterion = linesearch alpha is zero
  Energy initial, next-to-last, final = 
     -1152448.59291579  -1152448.59508878  -1152448.59508878
  Force two-norm initial, final = 0.17778761 0.00012370692
  Force max component initial, final = 0.14901329 2.9897343e-05
  Final line search alpha, max atom move = 0.5 1.4948671e-05
  Iterations, force evaluations = 206 413

MPI task timing breakdown:
Section |  min time  |  avg time  |  max time  |%varavg| %total
---------------------------------------------------------------
Pair    | 1.1732     | 3.2929     | 4.3217     |  50.1 | 72.45
Neigh   | 0          | 0          | 0          |   0.0 |  0.00
Comm    | 0.062286   | 0.74076    | 2.3388     |  76.4 | 16.30
Output  | 0          | 0          | 0          |   0.0 |  0.00
Modify  | 0.00010181 | 0.0069563  | 0.014721   |   3.9 |  0.15
Other   |            | 0.5046     |            |       | 11.10

Nlocal:        5552.90 ave        7867 max           0 min
Histogram: 4 2 2 0 2 6 4 0 14 18
Nghost:        6213.85 ave        8771 max         412 min
Histogram: 4 0 4 0 8 0 4 5 7 20
Neighs:       158427.0 ave      229096 max           0 min
Histogram: 4 2 2 0 4 4 4 4 10 18

Total # of neighbors = 8238205
Ave neighs/atom = 28.530481
Neighbor list builds = 0
Dangerous builds = 0
The dot product: 1.2478327061698e-08
Setting atom values ...
  1 settings made for x
  1 settings made for y
  1 settings made for z
Setting up cg style minimization ...
  Unit style    : metal
  Current step  : 6902
Per MPI rank memory allocation (min/avg/max) = 5.465 | 6.344 | 6.728 Mbytes
Step PotEng KinEng TotEng v_fx v_fy v_fz 
    6902   -1152448.6            0   -1152448.6   0.01144938 -0.018634075  0.025979411 
    7000   -1152448.6            0   -1152448.6 0.00029429928 -0.00063853972 0.0008251389 
    7142   -1152448.6            0   -1152448.6 -4.0049085e-06 9.0989825e-06 -1.1632609e-05 
Loop time of 5.3165 on 52 procs for 240 steps with 288751 atoms

99.9% CPU use with 52 MPI tasks x 1 OpenMP threads

Minimization stats:
  Stopping criterion = linesearch alpha is zero
  Energy initial, next-to-last, final = 
     -1152448.55620703  -1152448.56859174  -1152448.56859174
  Force two-norm initial, final = 0.18588694 0.00010036219
  Force max component initial, final = 0.1465583 1.1632609e-05
  Final line search alpha, max atom move = 0.5 5.8163047e-06
  Iterations, force evaluations = 240 481

MPI task timing breakdown:
Section |  min time  |  avg time  |  max time  |%varavg| %total
---------------------------------------------------------------
Pair    | 1.3553     | 3.8386     | 5.0671     |  54.2 | 72.20
Neigh   | 1.9204e-05 | 0.0057671  | 0.0086185  |   3.2 |  0.11
Comm    | 0.072073   | 0.8645     | 2.7219     |  82.8 | 16.26
Output  | 0.00013304 | 0.00013677 | 0.00028925 |   0.0 |  0.00
Modify  | 0.00011721 | 0.0079403  | 0.016803   |   4.1 |  0.15
Other   |            | 0.5996     |            |       | 11.28

Nlocal:        5552.90 ave        7867 max           0 min
Histogram: 4 2 2 0 2 6 4 0 14 18
Nghost:        6213.85 ave        8771 max         412 min
Histogram: 4 0 4 0 8 0 4 5 7 20
Neighs:       158427.0 ave      229092 max           0 min
Histogram: 4 2 2 0 4 4 4 4 10 18

Total # of neighbors = 8238192
Ave neighs/atom = 28.530436
Neighbor list builds = 1
Dangerous builds = 0
The dot product: 2.1715515684362e-07
Setting atom values ...
  1 settings made for x
  1 settings made for y
  1 settings made for z
Setting up cg style minimization ...
  Unit style    : metal
  Current step  : 7142
Per MPI rank memory allocation (min/avg/max) = 5.465 | 6.344 | 6.728 Mbytes
Step PotEng KinEng TotEng v_fx v_fy v_fz 
    7142   -1152448.5            0   -1152448.5  0.005326115 -0.014123406  0.016822325 
    7381   -1152448.5            0   -1152448.5 1.3778734e-05 -3.3880201e-05 4.1001226e-05 
Loop time of 5.2872 on 52 procs for 239 steps with 288751 atoms

99.9% CPU use with 52 MPI tasks x 1 OpenMP threads

Minimization stats:
  Stopping criterion = linesearch alpha is zero
  Energy initial, next-to-last, final = 
[...]
Modify  | 8.2897e-05 | 0.0088797  | 0.018845   |   4.4 |  0.15
Other   |            | 0.6819     |            |       | 11.50

Nlocal:        5552.90 ave        7913 max           0 min
Histogram: 4 2 2 0 2 6 4 1 14 17
Nghost:        6213.54 ave        8769 max         412 min
Histogram: 4 0 4 0 8 0 4 5 7 20
Neighs:       158427.0 ave      230717 max           0 min
Histogram: 4 2 2 0 5 3 4 4 12 16

Total # of neighbors = 8238184
Ave neighs/atom = 28.530409
Neighbor list builds = 0
Dangerous builds = 0
The dot product: -1.4650535125488e-07
Setting atom values ...
  1 settings made for x
  1 settings made for y
  1 settings made for z
Setting up cg style minimization ...
  Unit style    : metal
  Current step  : 6081
Per MPI rank memory allocation (min/avg/max) = 5.465 | 6.344 | 6.728 Mbytes
Step PotEng KinEng TotEng v_fx v_fy v_fz 
    6081   -1152449.3            0   -1152449.3 -0.025236072  0.027878104 0.0066250235 
    6182   -1152449.3            0   -1152449.3 1.4430206e-05 2.3589355e-06 -3.5108376e-05 
Loop time of 2.22214 on 52 procs for 101 steps with 288751 atoms

99.9% CPU use with 52 MPI tasks x 1 OpenMP threads

Minimization stats:
  Stopping criterion = energy tolerance
  Energy initial, next-to-last, final = 
      -1152449.2518303   -1152449.2532736   -1152449.2532736
  Force two-norm initial, final = 0.15140006 0.00016861905
  Force max component initial, final = 0.063837938 3.7888608e-05
  Final line search alpha, max atom move = 1.0000000 3.7888608e-05
  Iterations, force evaluations = 101 202

MPI task timing breakdown:
Section |  min time  |  avg time  |  max time  |%varavg| %total
---------------------------------------------------------------
Pair    | 0.57165    | 1.6105     | 2.1117     |  35.2 | 72.48
Neigh   | 0          | 0          | 0          |   0.0 |  0.00
Comm    | 0.0302     | 0.35731    | 1.131      |  53.7 | 16.08
Output  | 0          | 0          | 0          |   0.0 |  0.00
Modify  | 3.6226e-05 | 0.00339    | 0.0072388  |   2.7 |  0.15
Other   |            | 0.2509     |            |       | 11.29

Nlocal:        5552.90 ave        7909 max           0 min
Histogram: 4 2 2 0 2 6 4 0 15 17
Nghost:        6213.54 ave        8769 max         412 min
Histogram: 4 0 4 0 8 0 4 5 7 20
Neighs:       158427.0 ave      230568 max           0 min
Histogram: 4 2 2 0 5 3 4 4 12 16

Total # of neighbors = 8238184
Ave neighs/atom = 28.530409
Neighbor list builds = 0
Dangerous builds = 0
The dot product: 1.21546164611046e-07
Setting atom values ...
  1 settings made for x
  1 settings made for y
  1 settings made for z
Setting up cg style minimization ...
  Unit style    : metal
  Current step  : 6182
Per MPI rank memory allocation (min/avg/max) = 5.465 | 6.344 | 6.728 Mbytes
Step PotEng KinEng TotEng v_fx v_fy v_fz 
    6182   -1152449.3            0   -1152449.3 -0.038122199  0.038070384  0.015891695 
    6289   -1152449.3            0   -1152449.3 -4.9308082e-06 -1.5842518e-05 3.8719566e-05 
Loop time of 2.39567 on 52 procs for 107 steps with 288751 atoms

99.8% CPU use with 52 MPI tasks x 1 OpenMP threads

Minimization stats:
  Stopping criterion = linesearch alpha is zero
  Energy initial, next-to-last, final = 
     -1152449.25522127  -1152449.25642195  -1152449.25642195
  Force two-norm initial, final = 0.15326042 0.00014375381
  Force max component initial, final = 0.064069125 3.8719566e-05
  Final line search alpha, max atom move = 0.5 1.9359783e-05
  Iterations, force evaluations = 107 215

MPI task timing breakdown:
Section |  min time  |  avg time  |  max time  |%varavg| %total
---------------------------------------------------------------
Pair    | 0.61127    | 1.7184     | 2.2587     |  36.2 | 71.73
Neigh   | 0          | 0          | 0          |   0.0 |  0.00
Comm    | 0.032054   | 0.38547    | 1.2053     |  54.7 | 16.09
Output  | 0          | 0          | 0          |   0.0 |  0.00
Modify  | 3.6081e-05 | 0.0036269  | 0.0077503  |   2.8 |  0.15
Other   |            | 0.2881     |            |       | 12.03

Nlocal:        5552.90 ave        7909 max           0 min
Histogram: 4 2 2 0 2 6 4 0 15 17
Nghost:        6213.54 ave        8769 max         412 min
Histogram: 4 0 4 0 8 0 4 5 7 20
Neighs:       158427.0 ave      230566 max           0 min
Histogram: 4 2 2 0 5 3 4 4 12 16

Total # of neighbors = 8238182
Ave neighs/atom = 28.530402
Neighbor list builds = 0
Dangerous builds = 0
The dot product: -1.72779518761073e-07
Setting atom values ...
  1 settings made for x
  1 settings made for y
  1 settings made for z
Setting up cg style minimization ...
  Unit style    : metal
  Current step  : 6289
Per MPI rank memory allocation (min/avg/max) = 5.465 | 6.344 | 6.728 Mbytes
Step PotEng KinEng TotEng v_fx v_fy v_fz 
    6289   -1152449.3            0   -1152449.3 -0.046287143  0.043631606  0.021409278 
    6521   -1152449.3            0   -1152449.3 -4.4987735e-06 -1.6081417e-05 3.8930456e-05 
Loop time of 5.10182 on 52 procs for 232 steps with 288751 atoms

99.9% CPU use with 52 MPI tasks x 1 OpenMP threads

Minimization stats:
  Stopping criterion = linesearch alpha is zero
  Energy initial, next-to-last, final = 
     -1152449.25767713  -1152449.30134765  -1152449.30134765
  Force two-norm initial, final = 0.16057722 0.00017455035
  Force max component initial, final = 0.063753029 3.8930456e-05
  Final line search alpha, max atom move = 0.25 9.7326140e-06
  Iterations, force evaluations = 232 466

MPI task timing breakdown:
Section |  min time  |  avg time  |  max time  |%varavg| %total
---------------------------------------------------------------
Pair    | 1.3254     | 3.7052     | 4.8539     |  53.2 | 72.63
Neigh   | 1.9302e-05 | 0.0057573  | 0.008398   |   3.2 |  0.11
Comm    | 0.070409   | 0.82044    | 2.594      |  81.8 | 16.08
Output  | 0          | 0          | 0          |   0.0 |  0.00
Modify  | 0.00010184 | 0.0078161  | 0.016694   |   4.1 |  0.15
Other   |            | 0.5626     |            |       | 11.03

Nlocal:        5552.90 ave        7911 max           0 min
Histogram: 4 2 2 0 2 6 4 0 15 17
Nghost:        6213.54 ave        8769 max         412 min
Histogram: 4 0 4 0 8 0 4 5 7 20
Neighs:       158427.0 ave      230626 max           0 min
Histogram: 4 2 2 0 5 3 4 4 12 16

Total # of neighbors = 8238190
Ave neighs/atom = 28.530429
Neighbor list builds = 1
Dangerous builds = 0
The dot product: -2.30461033404142e-06
Setting atom values ...
  1 settings made for x
  1 settings made for y
  1 settings made for z
Setting up cg style minimization ...
  Unit style    : metal
  Current step  : 6521
Per MPI rank memory allocation (min/avg/max) = 5.465 | 6.344 | 6.728 Mbytes
Step PotEng KinEng TotEng v_fx v_fy v_fz 
    6521   -1152449.3            0   -1152449.3  0.030089451 -0.048337692   0.05708269 
    6701   -1152449.3            0   -1152449.3 -2.4606801e-05 3.0248809e-06 4.387342e-05 
Loop time of 3.9542 on 52 procs for 180 steps with 288751 atoms

99.9% CPU use with 52 MPI tasks x 1 OpenMP threads

Minimization stats:
  Stopping criterion = energy tolerance
  Energy initial, next-to-last, final = 
     -1152449.31218828  -1152449.31430594  -1152449.31430594
  Force two-norm initial, final = 0.15953915 0.00021797194
  Force max component initial, final = 0.059964339 5.8272455e-05
  Final line search alpha, max atom move = 1.0000000 5.8272455e-05
  Iterations, force evaluations = 180 360

MPI task timing breakdown:
Section |  min time  |  avg time  |  max time  |%varavg| %total
---------------------------------------------------------------
Pair    | 1.0192     | 2.8632     | 3.7622     |  46.9 | 72.41
Neigh   | 0          | 0          | 0          |   0.0 |  0.00
Comm    | 0.053373   | 0.64034    | 2.0306     |  71.4 | 16.19
Output  | 0          | 0          | 0          |   0.0 |  0.00
Modify  | 6.76e-05   | 0.0060283  | 0.012713   |   3.6 |  0.15
Other   |            | 0.4447     |            |       | 11.25

Nlocal:        5552.90 ave        7894 max           0 min
Histogram: 4 2 2 0 2 6 4 0 14 18
Nghost:        6213.58 ave        8769 max         412 min
Histogram: 4 0 4 0 8 0 4 5 7 20
Neighs:       158427.0 ave      230049 max           0 min
Histogram: 4 2 2 0 5 3 4 4 12 16

Total # of neighbors = 8238197
Ave neighs/atom = 28.530454
Neighbor list builds = 0
Dangerous builds = 0
The dot product: -1.32674942649037e-07
Setting atom values ...
  1 settings made for x
  1 settings made for y
  1 settings made for z
Setting up cg style minimization ...
  Unit style    : metal
  Current step  : 6701
Per MPI rank memory allocation (min/avg/max) = 5.465 | 6.344 | 6.728 Mbytes
Step PotEng KinEng TotEng v_fx v_fy v_fz 
    6701   -1152449.3            0   -1152449.3 -0.057949496  0.039776459  0.027785943 
    6835   -1152449.3            0   -1152449.3 3.2665833e-05 -1.3890575e-05 -3.574638e-05 
Loop time of 2.99212 on 52 procs for 134 steps with 288751 atoms

99.9% CPU use with 52 MPI tasks x 1 OpenMP threads

Minimization stats:
  Stopping criterion = linesearch alpha is zero
  Energy initial, next-to-last, final = 
     -1152449.32319644  -1152449.32444056  -1152449.32444056
  Force two-norm initial, final = 0.1617064 0.00024045131
  Force max component initial, final = 0.059812742 3.5746380e-05
  Final line search alpha, max atom move = 0.125 4.4682975e-06
  Iterations, force evaluations = 134 273

MPI task timing breakdown:
Section |  min time  |  avg time  |  max time  |%varavg| %total
---------------------------------------------------------------
Pair    | 0.77248    | 2.1699     | 2.8423     |  40.8 | 72.52
Neigh   | 0          | 0          | 0          |   0.0 |  0.00
Comm    | 0.040103   | 0.48131    | 1.5266     |  62.6 | 16.09
Output  | 0          | 0          | 0          |   0.0 |  0.00
Modify  | 4.7336e-05 | 0.0045771  | 0.0098251  |   3.2 |  0.15
Other   |            | 0.3364     |            |       | 11.24

Nlocal:        5552.90 ave        7892 max           0 min
Histogram: 4 2 2 0 2 6 4 0 14 18
Nghost:        6213.62 ave        8769 max         412 min
Histogram: 4 0 4 0 8 0 4 5 7 20
Neighs:       158427.0 ave      229987 max           0 min
Histogram: 4 2 2 0 5 3 4 4 12 16

Total # of neighbors = 8238196
Ave neighs/atom = 28.530450
Neighbor list builds = 0
Dangerous builds = 0
The dot product: -2.65169841864351e-07
Setting atom values ...
  1 settings made for x
  1 settings made for y
  1 settings made for z
Setting up cg style minimization ...
  Unit style    : metal
  Current step  : 6835
Per MPI rank memory allocation (min/avg/max) = 5.465 | 6.344 | 6.728 Mbytes
Step PotEng KinEng TotEng v_fx v_fy v_fz 
    6835   -1152449.3            0   -1152449.3  -0.04708384  0.027905327  0.031338299 
    6987   -1152449.3            0   -1152449.3 -3.275865e-05 1.2620314e-06 6.464285e-05 
Loop time of 3.33191 on 52 procs for 152 steps with 288751 atoms

99.9% CPU use with 52 MPI tasks x 1 OpenMP threads

Minimization stats:
  Stopping criterion = energy tolerance
  Energy initial, next-to-last, final = 
     -1152449.33175637  -1152449.33294979  -1152449.33294979
  Force two-norm initial, final = 0.15710794 0.00032566436
  Force max component initial, final = 0.058648645 7.6098356e-05
  Final line search alpha, max atom move = 1.0000000 7.6098356e-05
  Iterations, force evaluations = 152 304

MPI task timing breakdown:
Section |  min time  |  avg time  |  max time  |%varavg| %total
---------------------------------------------------------------
Pair    | 0.86035    | 2.4169     | 3.1749     |  43.1 | 72.54
Neigh   | 0          | 0          | 0          |   0.0 |  0.00
Comm    | 0.045284   | 0.53527    | 1.6841     |  66.0 | 16.06
Output  | 0          | 0          | 0          |   0.0 |  0.00
Modify  | 5.1669e-05 | 0.0050968  | 0.010986   |   3.3 |  0.15
Other   |            | 0.3746     |            |       | 11.24

Nlocal:        5552.90 ave        7900 max           0 min
Histogram: 4 2 2 0 2 6 4 0 14 18
Nghost:        6213.62 ave        8769 max         412 min
Histogram: 4 0 4 0 8 0 4 5 7 20
Neighs:       158427.0 ave      230266 max           0 min
Histogram: 4 2 2 0 5 3 4 4 12 16

Total # of neighbors = 8238197
Ave neighs/atom = 28.530454
Neighbor list builds = 0
Dangerous builds = 0
The dot product: 1.96052836779212e-07
Setting atom values ...
  1 settings made for x
  1 settings made for y
  1 settings made for z
Setting up cg style minimization ...
  Unit style    : metal
  Current step  : 6987
Per MPI rank memory allocation (min/avg/max) = 5.465 | 6.344 | 6.728 Mbytes
Step PotEng KinEng TotEng v_fx v_fy v_fz 
    6987   -1152449.3            0   -1152449.3 -0.050067472  0.030367311  0.030811476 
    7000   -1152449.3            0   -1152449.3 0.00052433707 0.00020640614 -0.0015542803 
    7164   -1152449.3            0   -1152449.3 1.1555694e-06 -1.7397878e-05 3.8501028e-05 
Loop time of 3.90844 on 52 procs for 177 steps with 288751 atoms

99.9% CPU use with 52 MPI tasks x 1 OpenMP threads

Minimization stats:
  Stopping criterion = linesearch alpha is zero
  Energy initial, next-to-last, final = 
     -1152449.33863561  -1152449.33985684  -1152449.33985684
  Force two-norm initial, final = 0.15911443 0.00015970078
  Force max component initial, final = 0.057654345 3.8501028e-05
  Final line search alpha, max atom move = 0.25 9.6252571e-06
  Iterations, force evaluations = 177 357

MPI task timing breakdown:
Section |  min time  |  avg time  |  max time  |%varavg| %total
---------------------------------------------------------------
Pair    | 1.0075     | 2.8364     | 3.7208     |  46.7 | 72.57
Neigh   | 0          | 0          | 0          |   0.0 |  0.00
Comm    | 0.052453   | 0.62942    | 1.9865     |  71.4 | 16.10
Output  | 0.00012571 | 0.0001299  | 0.00029286 |   0.0 |  0.00
Modify  | 5.4806e-05 | 0.0059891  | 0.012633   |   3.6 |  0.15
Other   |            | 0.4365     |            |       | 11.17

Nlocal:        5552.90 ave        7902 max           0 min
Histogram: 4 2 2 0 2 6 4 0 15 17
Nghost:        6213.62 ave        8769 max         412 min
Histogram: 4 0 4 0 8 0 4 5 7 20
Neighs:       158427.0 ave      230336 max           0 min
Histogram: 4 2 2 0 5 3 4 4 12 16

Total # of neighbors = 8238196
Ave neighs/atom = 28.530450
Neighbor list builds = 0
Dangerous builds = 0
The dot product: 3.53035902029855e-08
Setting atom values ...
  1 settings made for x
  1 settings made for y
  1 settings made for z
Setting up cg style minimization ...
  Unit style    : metal
  Current step  : 7164
Per MPI rank memory allocation (min/avg/max) = 5.465 | 6.344 | 6.728 Mbytes
Step PotEng KinEng TotEng v_fx v_fy v_fz 
    7164   -1152449.3            0   -1152449.3 -0.050322636  0.030583789  0.029815027 
    7293   -1152449.3            0   -1152449.3 -2.4721231e-05 3.5735771e-05 -3.3794129e-05 
Loop time of 2.84959 on 52 procs for 129 steps with 288751 atoms

99.9% CPU use with 52 MPI tasks x 1 OpenMP threads

Minimization stats:
  Stopping criterion = energy tolerance
  Energy initial, next-to-last, final = 
     -1152449.34393223  -1152449.34516228  -1152449.34516228
  Force two-norm initial, final = 0.15921924 0.00030580966
  Force max component initial, final = 0.057710405 5.7283719e-05
  Final line search alpha, max atom move = 1.0000000 5.7283719e-05
  Iterations, force evaluations = 129 258

MPI task timing breakdown:
Section |  min time  |  avg time  |  max time  |%varavg| %total
---------------------------------------------------------------
Pair    | 0.72498    | 2.0564     | 2.7171     |  39.7 | 72.16
Neigh   | 0          | 0          | 0          |   0.0 |  0.00
Comm    | 0.037161   | 0.46251    | 1.4543     |  60.6 | 16.23
Output  | 0          | 0          | 0          |   0.0 |  0.00
Modify  | 4.1896e-05 | 0.0042643  | 0.0090359  |   3.0 |  0.15
Other   |            | 0.3264     |            |       | 11.46

Nlocal:        5552.90 ave        7908 max           0 min
Histogram: 4 2 2 0 2 6 4 0 15 17
Nghost:        6213.54 ave        8769 max         412 min
Histogram: 4 0 4 0 8 0 4 5 7 20
Neighs:       158427.0 ave      230546 max           0 min
Histogram: 4 2 2 0 5 3 4 4 12 16

Total # of neighbors = 8238193
Ave neighs/atom = 28.530440
Neighbor list builds = 0
Dangerous builds = 0
The dot product: 7.84048701920834e-08
Setting atom values ...
  1 settings made for x
  1 settings made for y
  1 settings made for z
Setting up cg style minimization ...
  Unit style    : metal
  Current step  : 7293
Per MPI rank memory allocation (min/avg/max) = 5.465 | 6.344 | 6.728 Mbytes
Step PotEng KinEng TotEng v_fx v_fy v_fz 
    7293   -1152449.3            0   -1152449.3 -0.050189312  0.030710113  0.028279053 
    7470   -1152449.3            0   -1152449.3 -2.6588546e-06 7.1841923e-06 -1.1450095e-05 
Loop time of 3.90983 on 52 procs for 177 steps with 288751 atoms

99.9% CPU use with 52 MPI tasks x 1 OpenMP threads

Minimization stats:
  Stopping criterion = energy tolerance
  Energy initial, next-to-last, final = 
     -1152449.34763828  -1152449.34887242  -1152449.34887242
  Force two-norm initial, final = 0.15881983 0.00015129038
  Force max component initial, final = 0.059271233 1.4538319e-05
  Final line search alpha, max atom move = 1.0000000 1.4538319e-05
  Iterations, force evaluations = 177 354

MPI task timing breakdown:
Section |  min time  |  avg time  |  max time  |%varavg| %total
---------------------------------------------------------------
Pair    | 1.004      | 2.8199     | 3.7106     |  46.6 | 72.12
Neigh   | 0          | 0          | 0          |   0.0 |  0.00
Comm    | 0.053371   | 0.62727    | 1.9805     |  70.8 | 16.04
Output  | 0          | 0          | 0          |   0.0 |  0.00
Modify  | 6.3328e-05 | 0.0059545  | 0.012596   |   3.6 |  0.15
Other   |            | 0.4567     |            |       | 11.68

Nlocal:        5552.90 ave        7910 max           0 min
Histogram: 4 2 2 0 2 6 4 0 15 17
Nghost:        6213.54 ave        8769 max         412 min
Histogram: 4 0 4 0 8 0 4 5 7 20
Neighs:       158427.0 ave      230597 max           0 min
Histogram: 4 2 2 0 5 3 4 4 12 16

Total # of neighbors = 8238189
Ave neighs/atom = 28.530426
Neighbor list builds = 0
Dangerous builds = 0
The dot product: 5.27308424666527e-11
Setting up cg style minimization ...
  Unit style    : metal
  Current step  : 7470
Per MPI rank memory allocation (min/avg/max) = 5.465 | 6.344 | 6.728 Mbytes
Step PotEng KinEng TotEng v_fx v_fy v_fz 
    7470   -1152449.3            0   -1152449.3  0.089998109   0.10542993  0.045235191 
    7679   -1152449.4            0   -1152449.4 -1.3280139e-05 1.7299204e-06 4.1274874e-06 
Loop time of 4.61688 on 52 procs for 209 steps with 288751 atoms

99.9% CPU use with 52 MPI tasks x 1 OpenMP threads

Minimization stats:
  Stopping criterion = energy tolerance
  Energy initial, next-to-last, final = 
     -1152449.34887242  -1152449.35157345  -1152449.35157345
  Force two-norm initial, final = 0.14581281 0.00010714942
  Force max component initial, final = 0.10542993 1.7949908e-05
  Final line search alpha, max atom move = 1.0000000 1.7949908e-05
  Iterations, force evaluations = 209 418

MPI task timing breakdown:
Section |  min time  |  avg time  |  max time  |%varavg| %total
---------------------------------------------------------------
Pair    | 1.1856     | 3.3254     | 4.3948     |  50.6 | 72.03
Neigh   | 0          | 0          | 0          |   0.0 |  0.00
Comm    | 0.061366   | 0.74515    | 2.3378     |  76.4 | 16.14
Output  | 0          | 0          | 0          |   0.0 |  0.00
Modify  | 5.5128e-05 | 0.0046069  | 0.011719   |   4.2 |  0.10
Other   |            | 0.5417     |            |       | 11.73

Nlocal:        5552.90 ave        7913 max           0 min
Histogram: 4 2 2 0 2 6 4 1 14 17
Nghost:        6213.54 ave        8769 max         412 min
Histogram: 4 0 4 0 8 0 4 5 7 20
Neighs:       158427.0 ave      230675 max           0 min
Histogram: 4 2 2 0 5 3 4 4 12 16

Total # of neighbors = 8238189
Ave neighs/atom = 28.530426
Neighbor list builds = 0
Dangerous builds = 0
