LAMMPS (29 Oct 2020)
OMP_NUM_THREADS environment is not set. Defaulting to 1 thread. (../comm.cpp:94)
  using 1 OpenMP thread(s) per MPI task
OMP_NUM_THREADS environment is not set. Defaulting to 1 thread. (../comm.cpp:94)
  using 1 OpenMP thread(s) per MPI task
Reading data file ...
  orthogonal box = (-122.39241 -121.13707 -37.090501) to (122.39241 121.13707 37.090501)
  13 by 4 by 2 MPI processor grid
  reading atoms ...
  288751 atoms
  read_data CPU = 0.414 seconds
199981 atoms in group inner
88770 atoms in group outer
1 atoms in group carbon
Neighbor list info ...
  update every 1 steps, delay 0 steps, check yes
  max neighbors/atom: 2000, page size: 100000
  master list distance cutoff = 5.6
  ghost atom cutoff = 5.6
  binsize = 2.8, bins = 88 87 27
  1 neighbor lists, perpetual/occasional/extra = 1 0 0
  (1) pair eam/alloy, perpetual
      attributes: half, newton on
      pair build: half/bin/atomonly/newton
      stencil: half/bin/3d/newton
      bin: standard
Setting up cg style minimization ...
  Unit style    : metal
  Current step  : 0
Per MPI rank memory allocation (min/avg/max) = 5.441 | 5.816 | 6.074 Mbytes
Step v_fx v_fy v_fz PotEng KinEng TotEng 
       0   0.52465239  0.071577443   0.36714351   -1152447.8            0   -1152447.8 
     180 9.9332787e-07 -1.3175966e-06 -4.8021688e-06   -1152449.5            0   -1152449.5 
Loop time of 2.21687 on 104 procs for 180 steps with 288751 atoms

99.8% CPU use with 104 MPI tasks x 1 OpenMP threads

Minimization stats:
  Stopping criterion = energy tolerance
  Energy initial, next-to-last, final = 
       -1152447.848268  -1152449.45035262  -1152449.45035262
  Force two-norm initial, final = 9.7576164 3.6003269e-05
  Force max component initial, final = 4.4182476 4.8021688e-06
  Final line search alpha, max atom move = 1.0000000 4.8021688e-06
  Iterations, force evaluations = 180 359

MPI task timing breakdown:
Section |  min time  |  avg time  |  max time  |%varavg| %total
---------------------------------------------------------------
Pair    | 0.562      | 1.5214     | 2.0664     |  33.0 | 68.63
Neigh   | 2.3289e-05 | 0.0060788  | 0.0089706  |   3.3 |  0.27
Comm    | 0.033999   | 0.36792    | 1.0401     |  46.0 | 16.60
Output  | 0          | 0          | 0          |   0.0 |  0.00
Modify  | 2.084e-05  | 0.001947   | 0.0049979  |   2.8 |  0.09
Other   |            | 0.3195     |            |       | 14.41

Nlocal:        2776.45 ave        3960 max           0 min
Histogram: 8 4 4 0 4 12 8 2 28 34
Nghost:        3879.03 ave        5424 max         232 min
Histogram: 8 0 8 0 16 0 8 8 16 40
Neighs:        79213.4 ave      115442 max           0 min
Histogram: 8 4 4 0 10 6 8 8 24 32

Total # of neighbors = 8238197
Ave neighs/atom = 28.530454
Neighbor list builds = 2
Dangerous builds = 1
Setting atom values ...
  1 settings made for x
  1 settings made for y
  1 settings made for z
Setting up cg style minimization ...
  Unit style    : metal
  Current step  : 180
Per MPI rank memory allocation (min/avg/max) = 5.441 | 5.816 | 6.074 Mbytes
Step PotEng KinEng TotEng v_fx v_fy v_fz 
     180   -1152449.4            0   -1152449.4 -0.012345357 0.0042252759 -0.017290661 
     331   -1152449.5            0   -1152449.5 1.0531288e-05 1.241828e-06 3.0222735e-05 
Loop time of 1.85571 on 104 procs for 151 steps with 288751 atoms

99.9% CPU use with 104 MPI tasks x 1 OpenMP threads

Minimization stats:
  Stopping criterion = energy tolerance
  Energy initial, next-to-last, final = 
     -1152449.44958256  -1152449.45006048  -1152449.45006048
  Force two-norm initial, final = 0.099380906 0.00014040857
  Force max component initial, final = 0.051534071 3.0222735e-05
  Final line search alpha, max atom move = 1.0000000 3.0222735e-05
  Iterations, force evaluations = 151 302

MPI task timing breakdown:
Section |  min time  |  avg time  |  max time  |%varavg| %total
---------------------------------------------------------------
Pair    | 0.46226    | 1.2832     | 1.737      |  30.4 | 69.15
Neigh   | 0          | 0          | 0          |   0.0 |  0.00
Comm    | 0.029439   | 0.30534    | 0.86978    |  42.5 | 16.45
Output  | 0          | 0          | 0          |   0.0 |  0.00
Modify  | 2.0612e-05 | 0.0024981  | 0.0053403  |   2.4 |  0.13
Other   |            | 0.2647     |            |       | 14.26

Nlocal:        2776.45 ave        3960 max           0 min
Histogram: 8 4 4 0 4 12 8 2 28 34
Nghost:        3879.03 ave        5424 max         232 min
Histogram: 8 0 8 0 16 0 8 8 16 40
Neighs:        79213.4 ave      115431 max           0 min
Histogram: 8 4 4 0 10 6 8 8 24 32

Total # of neighbors = 8238197
Ave neighs/atom = 28.530454
Neighbor list builds = 0
Dangerous builds = 0
Setting atom values ...
  1 settings made for x
  1 settings made for y
  1 settings made for z
Setting up cg style minimization ...
  Unit style    : metal
  Current step  : 331
Per MPI rank memory allocation (min/avg/max) = 5.441 | 5.816 | 6.074 Mbytes
Step PotEng KinEng TotEng v_fx v_fy v_fz 
     331   -1152449.4            0   -1152449.4 -0.023036117  0.010079485 -0.026319383 
     543   -1152449.4            0   -1152449.4 -2.1693214e-06 -2.5892413e-07 -6.9571338e-06 
Loop time of 2.58079 on 104 procs for 212 steps with 288751 atoms

99.9% CPU use with 104 MPI tasks x 1 OpenMP threads

Minimization stats:
  Stopping criterion = energy tolerance
  Energy initial, next-to-last, final = 
     -1152449.44690538  -1152449.44823038  -1152449.44823038
  Force two-norm initial, final = 0.16481625 4.1152622e-05
  Force max component initial, final = 0.087855763 7.0281949e-06
  Final line search alpha, max atom move = 1.0000000 7.0281949e-06
  Iterations, force evaluations = 212 424

MPI task timing breakdown:
Section |  min time  |  avg time  |  max time  |%varavg| %total
---------------------------------------------------------------
Pair    | 0.64871    | 1.7884     | 2.4263     |  36.0 | 69.30
Neigh   | 0          | 0          | 0          |   0.0 |  0.00
Comm    | 0.035554   | 0.42545    | 1.225      |  51.1 | 16.49
Output  | 0          | 0          | 0          |   0.0 |  0.00
Modify  | 2.6561e-05 | 0.0034943  | 0.0074914  |   2.8 |  0.14
Other   |            | 0.3634     |            |       | 14.08

Nlocal:        2776.45 ave        3960 max           0 min
Histogram: 8 4 4 0 4 12 8 2 28 34
Nghost:        3879.03 ave        5424 max         232 min
Histogram: 8 0 8 0 16 0 8 8 16 40
Neighs:        79213.4 ave      115431 max           0 min
Histogram: 8 4 4 0 10 6 8 8 24 32

Total # of neighbors = 8238195
Ave neighs/atom = 28.530447
Neighbor list builds = 0
Dangerous builds = 0
The dot product: 3.79070406834988e-09
Setting atom values ...
  1 settings made for x
  1 settings made for y
  1 settings made for z
Setting up cg style minimization ...
  Unit style    : metal
  Current step  : 543
Per MPI rank memory allocation (min/avg/max) = 5.441 | 5.816 | 6.074 Mbytes
Step PotEng KinEng TotEng v_fx v_fy v_fz 
     543   -1152449.4            0   -1152449.4 -0.023234673  0.010142828  -0.02927607 
     709   -1152449.4            0   -1152449.4 -2.5295736e-06 -1.097146e-05 -5.1524877e-05 
Loop time of 2.06029 on 104 procs for 166 steps with 288751 atoms

99.9% CPU use with 104 MPI tasks x 1 OpenMP threads

Minimization stats:
  Stopping criterion = energy tolerance
  Energy initial, next-to-last, final = 
     -1152449.44337598  -1152449.44468535  -1152449.44468535
  Force two-norm initial, final = 0.1644329 0.00017988101
  Force max component initial, final = 0.090566363 5.1524877e-05
  Final line search alpha, max atom move = 1.0000000 5.1524877e-05
  Iterations, force evaluations = 166 332

MPI task timing breakdown:
Section |  min time  |  avg time  |  max time  |%varavg| %total
---------------------------------------------------------------
Pair    | 0.50599    | 1.4083     | 1.936      |  32.1 | 68.36
Neigh   | 0          | 0          | 0          |   0.0 |  0.00
Comm    | 0.032329   | 0.3408     | 0.97121    |  44.8 | 16.54
Output  | 0          | 0          | 0          |   0.0 |  0.00
Modify  | 2.0536e-05 | 0.0027472  | 0.00584    |   2.5 |  0.13
Other   |            | 0.3084     |            |       | 14.97

Nlocal:        2776.45 ave        3958 max           0 min
Histogram: 8 4 4 0 4 12 8 2 28 34
Nghost:        3879.03 ave        5424 max         232 min
Histogram: 8 0 8 0 16 0 8 8 16 40
Neighs:        79213.4 ave      115366 max           0 min
Histogram: 8 4 4 0 10 6 8 8 24 32

Total # of neighbors = 8238194
Ave neighs/atom = 28.530443
Neighbor list builds = 0
Dangerous builds = 0
The dot product: 5.90876620056626e-08
Setting atom values ...
  1 settings made for x
  1 settings made for y
  1 settings made for z
Setting up cg style minimization ...
  Unit style    : metal
  Current step  : 709
Per MPI rank memory allocation (min/avg/max) = 5.441 | 5.816 | 6.074 Mbytes
Step PotEng KinEng TotEng v_fx v_fy v_fz 
     709   -1152449.4            0   -1152449.4 -0.020423953  0.007399398 -0.036905466 
     832   -1152449.4            0   -1152449.4 3.3048879e-08 5.8666619e-06 2.6503226e-05 
Loop time of 1.48947 on 104 procs for 123 steps with 288751 atoms

99.9% CPU use with 104 MPI tasks x 1 OpenMP threads

Minimization stats:
  Stopping criterion = energy tolerance
  Energy initial, next-to-last, final = 
     -1152449.43830107  -1152449.43959784  -1152449.43959784
  Force two-norm initial, final = 0.16439567 0.00014230756
  Force max component initial, final = 0.093570665 2.6503226e-05
  Final line search alpha, max atom move = 1.0000000 2.6503226e-05
  Iterations, force evaluations = 123 246

MPI task timing breakdown:
Section |  min time  |  avg time  |  max time  |%varavg| %total
---------------------------------------------------------------
Pair    | 0.37211    | 1.0326     | 1.4089     |  27.5 | 69.33
Neigh   | 0          | 0          | 0          |   0.0 |  0.00
Comm    | 0.020342   | 0.24517    | 0.71527    |  39.0 | 16.46
Output  | 0          | 0          | 0          |   0.0 |  0.00
Modify  | 1.5333e-05 | 0.0020393  | 0.0043623  |   2.1 |  0.14
Other   |            | 0.2097     |            |       | 14.08

Nlocal:        2776.45 ave        3958 max           0 min
Histogram: 8 4 4 0 4 12 8 2 28 34
Nghost:        3879.03 ave        5424 max         232 min
Histogram: 8 0 8 0 16 0 8 8 16 40
Neighs:        79213.4 ave      115366 max           0 min
Histogram: 8 4 4 0 10 6 8 8 24 32

Total # of neighbors = 8238194
Ave neighs/atom = 28.530443
Neighbor list builds = 0
Dangerous builds = 0
The dot product: -8.57143615704482e-08
Setting atom values ...
  1 settings made for x
  1 settings made for y
  1 settings made for z
Setting up cg style minimization ...
  Unit style    : metal
  Current step  : 832
Per MPI rank memory allocation (min/avg/max) = 5.441 | 5.816 | 6.074 Mbytes
Step PotEng KinEng TotEng v_fx v_fy v_fz 
     832   -1152449.4            0   -1152449.4  -0.01608703 0.0049017579 -0.043998821 
     963   -1152449.4            0   -1152449.4 -8.4749883e-06 3.4580172e-06 -1.7891203e-05 
Loop time of 1.62069 on 104 procs for 131 steps with 288751 atoms

99.9% CPU use with 104 MPI tasks x 1 OpenMP threads

Minimization stats:
  Stopping criterion = energy tolerance
  Energy initial, next-to-last, final = 
      -1152449.4319106  -1152449.43323136  -1152449.43323136
  Force two-norm initial, final = 0.16444255 6.7586738e-05
  Force max component initial, final = 0.096277363 1.9370068e-05
  Final line search alpha, max atom move = 1.0000000 1.9370068e-05
  Iterations, force evaluations = 131 262

MPI task timing breakdown:
Section |  min time  |  avg time  |  max time  |%varavg| %total
---------------------------------------------------------------
Pair    | 0.39695    | 1.1078     | 1.5245     |  28.5 | 68.35
Neigh   | 0          | 0          | 0          |   0.0 |  0.00
Comm    | 0.022021   | 0.26672    | 0.75962    |  39.6 | 16.46
Output  | 0          | 0          | 0          |   0.0 |  0.00
Modify  | 1.5989e-05 | 0.0021628  | 0.0046281  |   2.2 |  0.13
Other   |            | 0.244      |            |       | 15.06

Nlocal:        2776.45 ave        3957 max           0 min
Histogram: 8 4 4 0 4 12 8 2 28 34
Nghost:        3879.03 ave        5424 max         232 min
Histogram: 8 0 8 0 16 0 8 8 16 40
Neighs:        79213.4 ave      115330 max           0 min
Histogram: 8 4 4 0 10 6 8 8 24 32

Total # of neighbors = 8238195
Ave neighs/atom = 28.530447
Neighbor list builds = 0
Dangerous builds = 0
The dot product: 8.00643963240656e-08
Setting atom values ...
  1 settings made for x
  1 settings made for y
  1 settings made for z
Setting up cg style minimization ...
  Unit style    : metal
  Current step  : 963
Per MPI rank memory allocation (min/avg/max) = 5.441 | 5.816 | 6.074 Mbytes
Step PotEng KinEng TotEng v_fx v_fy v_fz 
     963   -1152449.4            0   -1152449.4 -0.012403121 0.0047767107 -0.045956718 
    1000   -1152449.4            0   -1152449.4 0.00039470114 -0.00029005145 -2.3338784e-06 
    1078   -1152449.4            0   -1152449.4 2.3987211e-05 -1.1283375e-05 6.717486e-05 
Loop time of 1.40472 on 104 procs for 115 steps with 288751 atoms

99.9% CPU use with 104 MPI tasks x 1 OpenMP threads

Minimization stats:
  Stopping criterion = energy tolerance
  Energy initial, next-to-last, final = 
     -1152449.42429671  -1152449.42562004  -1152449.42562004
  Force two-norm initial, final = 0.16328904 0.00023138813
  Force max component initial, final = 0.098287696 6.7174860e-05
  Final line search alpha, max atom move = 1.0000000 6.7174860e-05
  Iterations, force evaluations = 115 230

MPI task timing breakdown:
Section |  min time  |  avg time  |  max time  |%varavg| %total
---------------------------------------------------------------
Pair    | 0.34969    | 0.96941    | 1.3184     |  26.6 | 69.01
Neigh   | 0          | 0          | 0          |   0.0 |  0.00
Comm    | 0.01986    | 0.23085    | 0.66816    |  37.3 | 16.43
Output  | 0.0001671  | 0.00017485 | 0.00026815 |   0.0 |  0.01
Modify  | 1.4316e-05 | 0.0019052  | 0.0040682  |   2.1 |  0.14
Other   |            | 0.2024     |            |       | 14.41

Nlocal:        2776.45 ave        3956 max           0 min
Histogram: 8 4 4 0 4 12 8 0 30 34
Nghost:        3879.03 ave        5424 max         232 min
Histogram: 8 0 8 0 16 0 8 8 16 40
Neighs:        79213.4 ave      115292 max           0 min
Histogram: 8 4 4 0 10 6 8 8 24 32

Total # of neighbors = 8238198
Ave neighs/atom = 28.530457
Neighbor list builds = 0
Dangerous builds = 0
The dot product: -3.51090971906414e-07
Setting atom values ...
  1 settings made for x
  1 settings made for y
  1 settings made for z
Setting up cg style minimization ...
  Unit style    : metal
  Current step  : 1078
Per MPI rank memory allocation (min/avg/max) = 5.441 | 5.816 | 6.074 Mbytes
Step PotEng KinEng TotEng v_fx v_fy v_fz 
    1078   -1152449.4            0   -1152449.4 -0.010526625 0.0062281587 -0.043868776 
    1321   -1152449.4            0   -1152449.4 2.6441129e-07 -1.2210657e-07 2.3299908e-06 
Loop time of 2.9426 on 104 procs for 243 steps with 288751 atoms

99.9% CPU use with 104 MPI tasks x 1 OpenMP threads

Minimization stats:
  Stopping criterion = energy tolerance
  Energy initial, next-to-last, final = 
     -1152449.41541084  -1152449.41671625  -1152449.41671625
  Force two-norm initial, final = 0.16162704 9.3399962e-06
  Force max component initial, final = 0.099671189 2.3299908e-06
  Final line search alpha, max atom move = 1.0000000 2.3299908e-06
  Iterations, force evaluations = 243 486

MPI task timing breakdown:
Section |  min time  |  avg time  |  max time  |%varavg| %total
---------------------------------------------------------------
Pair    | 0.73594    | 2.0495     | 2.7749     |  38.6 | 69.65
Neigh   | 0          | 0          | 0          |   0.0 |  0.00
Comm    | 0.041387   | 0.47973    | 1.3952     |  54.9 | 16.30
Output  | 0          | 0          | 0          |   0.0 |  0.00
Modify  | 3.0392e-05 | 0.0040074  | 0.0085907  |   3.0 |  0.14
Other   |            | 0.4094     |            |       | 13.91

Nlocal:        2776.45 ave        3955 max           0 min
Histogram: 8 4 4 0 4 12 8 2 28 34
Nghost:        3879.03 ave        5424 max         232 min
Histogram: 8 0 8 0 16 0 8 8 16 40
Neighs:        79213.4 ave      115249 max           0 min
Histogram: 8 4 4 0 10 6 8 8 24 32

Total # of neighbors = 8238198
Ave neighs/atom = 28.530457
Neighbor list builds = 0
Dangerous builds = 0
The dot product: -1.35434620633257e-08
Setting atom values ...
  1 settings made for x
  1 settings made for y
  1 settings made for z
Setting up cg style minimization ...
  Unit style    : metal
  Current step  : 1321
Per MPI rank memory allocation (min/avg/max) = 5.441 | 5.816 | 6.074 Mbytes
Step PotEng KinEng TotEng v_fx v_fy v_fz 
    1321   -1152449.4            0   -1152449.4 -0.010477894 0.0082966858 -0.040037465 
    1506   -1152449.4            0   -1152449.4 1.5344953e-06 -1.1854531e-06 4.7958123e-06 
Loop time of 2.23396 on 104 procs for 185 steps with 288751 atoms

99.9% CPU use with 104 MPI tasks x 1 OpenMP threads

Minimization stats:
  Stopping criterion = energy tolerance
  Energy initial, next-to-last, final = 
     -1152449.40519294  -1152449.40646836  -1152449.40646836
  Force two-norm initial, final = 0.16008632 7.9305438e-05
  Force max component initial, final = 0.10070949 4.7958123e-06
  Final line search alpha, max atom move = 1.0000000 4.7958123e-06
  Iterations, force evaluations = 185 370

MPI task timing breakdown:
Section |  min time  |  avg time  |  max time  |%varavg| %total
---------------------------------------------------------------
Pair    | 0.55793    | 1.5516     | 2.1149     |  33.8 | 69.46
Neigh   | 0          | 0          | 0          |   0.0 |  0.00
Comm    | 0.030926   | 0.36963    | 1.0744     |  47.6 | 16.55
Output  | 0          | 0          | 0          |   0.0 |  0.00
Modify  | 2.2235e-05 | 0.0030613  | 0.006806   |   2.6 |  0.14
Other   |            | 0.3097     |            |       | 13.86

Nlocal:        2776.45 ave        3955 max           0 min
Histogram: 8 4 4 0 4 12 8 2 28 34
Nghost:        3879.03 ave        5424 max         232 min
Histogram: 8 0 8 0 16 0 8 8 16 40
Neighs:        79213.4 ave      115249 max           0 min
Histogram: 8 4 4 0 10 6 8 8 24 32

Total # of neighbors = 8238198
Ave neighs/atom = 28.530457
Neighbor list builds = 0
Dangerous builds = 0
The dot product: -2.37705891849391e-08
Setting atom values ...
  1 settings made for x
  1 settings made for y
  1 settings made for z
Setting up cg style minimization ...
  Unit style    : metal
  Current step  : 1506
Per MPI rank memory allocation (min/avg/max) = 5.441 | 5.816 | 6.074 Mbytes
Step PotEng KinEng TotEng v_fx v_fy v_fz 
    1506   -1152449.4            0   -1152449.4 -0.011719892  0.010383235 -0.035182118 
    1725   -1152449.4            0   -1152449.4 -8.6880154e-07 5.4997795e-07 4.4721072e-07 
Loop time of 2.70479 on 104 procs for 219 steps with 288751 atoms

99.9% CPU use with 104 MPI tasks x 1 OpenMP threads

Minimization stats:
  Stopping criterion = energy tolerance
  Energy initial, next-to-last, final = 
     -1152449.39359364  -1152449.39483703  -1152449.39483703
  Force two-norm initial, final = 0.15878302 2.8080938e-05
  Force max component initial, final = 0.10168366 4.4128722e-06
  Final line search alpha, max atom move = 1.0000000 4.4128722e-06
  Iterations, force evaluations = 219 438

MPI task timing breakdown:
Section |  min time  |  avg time  |  max time  |%varavg| %total
---------------------------------------------------------------
Pair    | 0.66575    | 1.855      | 2.5212     |  36.7 | 68.58
Neigh   | 0          | 0          | 0          |   0.0 |  0.00
Comm    | 0.038205   | 0.4411     | 1.2541     |  51.6 | 16.31
Output  | 0          | 0          | 0          |   0.0 |  0.00
Modify  | 2.6142e-05 | 0.0036086  | 0.0076947  |   2.8 |  0.13
Other   |            | 0.4051     |            |       | 14.98

Nlocal:        2776.45 ave        3949 max           0 min
Histogram: 8 4 4 0 4 12 8 2 26 36
Nghost:        3879.03 ave        5424 max         232 min
Histogram: 8 0 8 0 16 0 8 8 16 40
Neighs:        79213.4 ave      115068 max           0 min
Histogram: 8 4 4 0 10 6 8 8 24 32

Total # of neighbors = 8238196
Ave neighs/atom = 28.530450
Neighbor list builds = 0
Dangerous builds = 0
The dot product: -3.30529442427127e-09
Setting atom values ...
  1 settings made for x
  1 settings made for y
  1 settings made for z
Setting up cg style minimization ...
  Unit style    : metal
  Current step  : 1725
Per MPI rank memory allocation (min/avg/max) = 5.441 | 5.816 | 6.074 Mbytes
Step PotEng KinEng TotEng v_fx v_fy v_fz 
    1725   -1152449.4            0   -1152449.4 -0.013740748  0.012318747 -0.030384044 
    1971   -1152449.4            0   -1152449.4 -5.8069666e-07 4.6493556e-07 -7.6075754e-07 
Loop time of 2.9903 on 104 procs for 246 steps with 288751 atoms

99.9% CPU use with 104 MPI tasks x 1 OpenMP threads

Minimization stats:
  Stopping criterion = energy tolerance
  Energy initial, next-to-last, final = 
      -1152449.3805796  -1152449.38179797  -1152449.38179797
  Force two-norm initial, final = 0.15793834 7.5255218e-06
  Force max component initial, final = 0.10278934 7.6975324e-07
  Final line search alpha, max atom move = 1.0000000 7.6975324e-07
  Iterations, force evaluations = 246 492

MPI task timing breakdown:
Section |  min time  |  avg time  |  max time  |%varavg| %total
---------------------------------------------------------------
Pair    | 0.7482     | 2.0721     | 2.8101     |  38.8 | 69.30
Neigh   | 0          | 0          | 0          |   0.0 |  0.00
Comm    | 0.044738   | 0.49298    | 1.4508     |  55.3 | 16.49
Output  | 0          | 0          | 0          |   0.0 |  0.00
Modify  | 3.0073e-05 | 0.0040535  | 0.0086191  |   3.0 |  0.14
Other   |            | 0.4211     |            |       | 14.08

Nlocal:        2776.45 ave        3946 max           0 min
Histogram: 8 4 4 0 4 12 8 2 26 36
Nghost:        3879.03 ave        5425 max         232 min
Histogram: 8 0 8 0 16 0 8 8 16 40
Neighs:        79213.4 ave      114955 max           0 min
Histogram: 8 4 4 0 10 6 8 8 24 32

Total # of neighbors = 8238194
Ave neighs/atom = 28.530443
Neighbor list builds = 0
Dangerous builds = 0
The dot product: 3.07155507234277e-09
Setting atom values ...
  1 settings made for x
  1 settings made for y
  1 settings made for z
Setting up cg style minimization ...
  Unit style    : metal
  Current step  : 1971
Per MPI rank memory allocation (min/avg/max) = 5.441 | 5.816 | 6.074 Mbytes
Step PotEng KinEng TotEng v_fx v_fy v_fz 
    1971   -1152449.4            0   -1152449.4 -0.016222298  0.014136934 -0.025859252 
    2000   -1152449.4            0   -1152449.4 4.9200545e-05 -0.0001106266 0.00058815367 
    2176   -1152449.4            0   -1152449.4 5.7114273e-07 -1.0885244e-06 5.355351e-06 
Loop time of 2.47887 on 104 procs for 205 steps with 288751 atoms

99.9% CPU use with 104 MPI tasks x 1 OpenMP threads

Minimization stats:
  Stopping criterion = energy tolerance
  Energy initial, next-to-last, final = 
     -1152449.36613801   -1152449.3673409   -1152449.3673409
  Force two-norm initial, final = 0.15754845 4.8010597e-05
  Force max component initial, final = 0.10414365 9.0220088e-06
  Final line search alpha, max atom move = 1.0000000 9.0220088e-06
  Iterations, force evaluations = 205 410

MPI task timing breakdown:
Section |  min time  |  avg time  |  max time  |%varavg| %total
---------------------------------------------------------------
Pair    | 0.62099    | 1.7305     | 2.3396     |  35.4 | 69.81
Neigh   | 0          | 0          | 0          |   0.0 |  0.00
Comm    | 0.034692   | 0.40903    | 1.1939     |  50.2 | 16.50
Output  | 9.8822e-05 | 0.00010447 | 0.00018603 |   0.0 |  0.00
Modify  | 2.5223e-05 | 0.0033753  | 0.0072137  |   2.7 |  0.14
Other   |            | 0.3359     |            |       | 13.55

Nlocal:        2776.45 ave        3943 max           0 min
Histogram: 8 4 4 0 4 12 8 2 26 36
Nghost:        3879.07 ave        5424 max         232 min
Histogram: 8 0 8 0 16 0 8 8 16 40
Neighs:        79213.4 ave      114858 max           0 min
Histogram: 8 4 4 0 10 6 8 8 22 34

Total # of neighbors = 8238193
Ave neighs/atom = 28.530440
Neighbor list builds = 0
Dangerous builds = 0
The dot product: -1.94846133726135e-08
Setting atom values ...
  1 settings made for x
  1 settings made for y
  1 settings made for z
Setting up cg style minimization ...
  Unit style    : metal
  Current step  : 2176
Per MPI rank memory allocation (min/avg/max) = 5.441 | 5.816 | 6.074 Mbytes
Step PotEng KinEng TotEng v_fx v_fy v_fz 
    2176   -1152449.4            0   -1152449.4 -0.018989793  0.015941045 -0.021683241 
    2333   -1152449.4            0   -1152449.4 -1.3511662e-05 1.3671305e-05 -3.064399e-05 
Loop time of 1.89529 on 104 procs for 157 steps with 288751 atoms

99.9% CPU use with 104 MPI tasks x 1 OpenMP threads

Minimization stats:
  Stopping criterion = energy tolerance
  Energy initial, next-to-last, final = 
     -1152449.35026702  -1152449.35146147  -1152449.35146147
  Force two-norm initial, final = 0.15761888 0.00021378961
  Force max component initial, final = 0.10583593 3.0643990e-05
  Final line search alpha, max atom move = 1.0000000 3.0643990e-05
  Iterations, force evaluations = 157 314

MPI task timing breakdown:
Section |  min time  |  avg time  |  max time  |%varavg| %total
---------------------------------------------------------------
Pair    | 0.47843    | 1.3155     | 1.7951     |  31.0 | 69.41
Neigh   | 0          | 0          | 0          |   0.0 |  0.00
Comm    | 0.025993   | 0.31112    | 0.90209    |  44.0 | 16.42
Output  | 0          | 0          | 0          |   0.0 |  0.00
Modify  | 1.8699e-05 | 0.0025883  | 0.0055019  |   2.4 |  0.14
Other   |            | 0.2661     |            |       | 14.04

Nlocal:        2776.45 ave        3938 max           0 min
Histogram: 8 4 4 0 4 12 8 2 26 36
Nghost:        3879.11 ave        5424 max         232 min
Histogram: 8 0 8 0 16 0 8 8 16 40
Neighs:        79213.4 ave      114719 max           0 min
Histogram: 8 4 4 0 9 7 8 8 22 34

Total # of neighbors = 8238194
Ave neighs/atom = 28.530443
Neighbor list builds = 0
Dangerous builds = 0
The dot product: 1.18490829094252e-07
Setting atom values ...
  1 settings made for x
  1 settings made for y
  1 settings made for z
Setting up cg style minimization ...
  Unit style    : metal
  Current step  : 2333
Per MPI rank memory allocation (min/avg/max) = 5.441 | 5.816 | 6.074 Mbytes
Step PotEng KinEng TotEng v_fx v_fy v_fz 
    2333   -1152449.3            0   -1152449.3 -0.021716259  0.017734043 -0.018160137 
    2558   -1152449.3            0   -1152449.3 -6.6824639e-07 1.3042277e-06 -5.0636702e-06 
Loop time of 2.75697 on 104 procs for 225 steps with 288751 atoms

99.9% CPU use with 104 MPI tasks x 1 OpenMP threads

Minimization stats:
  Stopping criterion = energy tolerance
  Energy initial, next-to-last, final = 
     -1152449.33295831  -1152449.33415005  -1152449.33415005
  Force two-norm initial, final = 0.15814346 2.1452629e-05
  Force max component initial, final = 0.10785345 5.0636702e-06
  Final line search alpha, max atom move = 1.0000000 5.0636702e-06
  Iterations, force evaluations = 225 450

MPI task timing breakdown:
Section |  min time  |  avg time  |  max time  |%varavg| %total
---------------------------------------------------------------
Pair    | 0.6811     | 1.8973     | 2.6036     |  37.2 | 68.82
Neigh   | 0          | 0          | 0          |   0.0 |  0.00
Comm    | 0.037165   | 0.45215    | 1.2983     |  52.3 | 16.40
Output  | 0          | 0          | 0          |   0.0 |  0.00
Modify  | 2.6928e-05 | 0.0037033  | 0.0078961  |   2.9 |  0.13
Other   |            | 0.4038     |            |       | 14.65

Nlocal:        2776.45 ave        3930 max           0 min
Histogram: 8 4 4 0 4 12 8 0 26 38
Nghost:        3879.11 ave        5424 max         232 min
Histogram: 8 0 8 0 16 0 8 8 16 40
Neighs:        79213.4 ave      114466 max           0 min
Histogram: 8 4 4 0 8 8 8 8 20 36

Total # of neighbors = 8238195
Ave neighs/atom = 28.530447
Neighbor list builds = 0
Dangerous builds = 0
The dot product: 1.50112528394928e-08
Setting atom values ...
  1 settings made for x
  1 settings made for y
  1 settings made for z
Setting up cg style minimization ...
  Unit style    : metal
  Current step  : 2558
Per MPI rank memory allocation (min/avg/max) = 5.441 | 5.816 | 6.074 Mbytes
Step PotEng KinEng TotEng v_fx v_fy v_fz 
    2558   -1152449.3            0   -1152449.3 -0.024200801  0.019545804 -0.015485246 
    2766   -1152449.3            0   -1152449.3 -2.2848976e-06 2.7028715e-06 -6.2087783e-06 
Loop time of 2.55406 on 104 procs for 208 steps with 288751 atoms

99.9% CPU use with 104 MPI tasks x 1 OpenMP threads

Minimization stats:
  Stopping criterion = energy tolerance
  Energy initial, next-to-last, final = 
     -1152449.31419764  -1152449.31539596  -1152449.31539596
  Force two-norm initial, final = 0.15910735 3.6520791e-05
  Force max component initial, final = 0.11018251 6.6234597e-06
  Final line search alpha, max atom move = 1.0000000 6.6234597e-06
  Iterations, force evaluations = 208 416

MPI task timing breakdown:
Section |  min time  |  avg time  |  max time  |%varavg| %total
---------------------------------------------------------------
Pair    | 0.63254    | 1.7472     | 2.3785     |  35.8 | 68.41
Neigh   | 0          | 0          | 0          |   0.0 |  0.00
Comm    | 0.035381   | 0.41953    | 1.201      |  49.8 | 16.43
Output  | 0          | 0          | 0          |   0.0 |  0.00
Modify  | 2.48e-05   | 0.0034452  | 0.0073513  |   2.8 |  0.13
Other   |            | 0.3838     |            |       | 15.03

Nlocal:        2776.45 ave        3930 max           0 min
Histogram: 8 4 4 0 4 12 8 0 26 38
Nghost:        3879.11 ave        5424 max         232 min
Histogram: 8 0 8 0 16 0 8 8 16 40
Neighs:        79213.4 ave      114452 max           0 min
Histogram: 8 4 4 0 8 8 8 8 20 36

Total # of neighbors = 8238196
Ave neighs/atom = 28.530450
Neighbor list builds = 0
Dangerous builds = 0
The dot product: 2.41617112436186e-08
Setting atom values ...
  1 settings made for x
  1 settings made for y
  1 settings made for z
Setting up cg style minimization ...
  Unit style    : metal
  Current step  : 2766
Per MPI rank memory allocation (min/avg/max) = 5.441 | 5.816 | 6.074 Mbytes
Step PotEng KinEng TotEng v_fx v_fy v_fz 
    2766   -1152449.3            0   -1152449.3 -0.026533821   0.02145225 -0.013318118 
    3000   -1152449.3            0   -1152449.3 -2.9968905e-07 -8.3734518e-08 1.5587831e-06 
    3030   -1152449.3            0   -1152449.3 4.2896414e-07 -3.1707726e-07 5.9426091e-08 
Loop time of 3.2369 on 104 procs for 264 steps with 288751 atoms

99.9% CPU use with 104 MPI tasks x 1 OpenMP threads

Minimization stats:
  Stopping criterion = energy tolerance
  Energy initial, next-to-last, final = 
     -1152449.29397717  -1152449.29519119  -1152449.29519119
  Force two-norm initial, final = 0.16051956 2.5557693e-06
  Force max component initial, final = 0.11276113 4.2896414e-07
  Final line search alpha, max atom move = 1.0000000 4.2896414e-07
  Iterations, force evaluations = 264 528

MPI task timing breakdown:
Section |  min time  |  avg time  |  max time  |%varavg| %total
---------------------------------------------------------------
Pair    | 0.80347    | 2.2297     | 3.033      |  40.2 | 68.88
Neigh   | 0          | 0          | 0          |   0.0 |  0.00
Comm    | 0.045039   | 0.53259    | 1.5398     |  56.8 | 16.45
Output  | 0.00016744 | 0.00017018 | 0.00032723 |   0.0 |  0.01
Modify  | 3.245e-05  | 0.0043557  | 0.0092699  |   3.1 |  0.13
Other   |            | 0.4701     |            |       | 14.52

Nlocal:        2776.45 ave        3930 max           0 min
Histogram: 8 4 4 0 4 12 8 0 26 38
Nghost:        3879.09 ave        5424 max         232 min
Histogram: 8 0 8 0 16 0 8 8 16 40
Neighs:        79213.4 ave      114453 max           0 min
Histogram: 8 4 4 0 8 8 8 8 20 36

Total # of neighbors = 8238194
Ave neighs/atom = 28.530443
Neighbor list builds = 0
Dangerous builds = 0
The dot product: -2.59147271981811e-09
Setting atom values ...
  1 settings made for x
  1 settings made for y
  1 settings made for z
Setting up cg style minimization ...
  Unit style    : metal
  Current step  : 3030
Per MPI rank memory allocation (min/avg/max) = 5.441 | 5.816 | 6.074 Mbytes
Step PotEng KinEng TotEng v_fx v_fy v_fz 
    3030   -1152449.3            0   -1152449.3 -0.028752272  0.023507614 -0.011549806 
    3169   -1152449.3            0   -1152449.3 7.3532341e-06 -3.7320868e-06 -8.4794379e-06 
Loop time of 1.68476 on 104 procs for 139 steps with 288751 atoms

99.9% CPU use with 104 MPI tasks x 1 OpenMP threads

Minimization stats:
  Stopping criterion = energy tolerance
  Energy initial, next-to-last, final = 
     -1152449.27229266  -1152449.27353219  -1152449.27353219
  Force two-norm initial, final = 0.16242134 0.00017682516
  Force max component initial, final = 0.11557852 2.1810336e-05
  Final line search alpha, max atom move = 1.0000000 2.1810336e-05
  Iterations, force evaluations = 139 278

MPI task timing breakdown:
Section |  min time  |  avg time  |  max time  |%varavg| %total
---------------------------------------------------------------
Pair    | 0.42187    | 1.1646     | 1.5865     |  29.2 | 69.12
Neigh   | 0          | 0          | 0          |   0.0 |  0.00
Comm    | 0.022856   | 0.27496    | 0.79701    |  41.5 | 16.32
Output  | 0          | 0          | 0          |   0.0 |  0.00
Modify  | 1.6932e-05 | 0.0022933  | 0.0048786  |   2.3 |  0.14
Other   |            | 0.2429     |            |       | 14.42

Nlocal:        2776.45 ave        3930 max           0 min
Histogram: 8 4 4 0 4 12 8 0 26 38
Nghost:        3879.07 ave        5424 max         232 min
Histogram: 8 0 8 0 16 0 8 8 16 40
Neighs:        79213.4 ave      114453 max           0 min
Histogram: 8 4 4 0 8 8 8 8 20 36

Total # of neighbors = 8238191
Ave neighs/atom = 28.530433
Neighbor list builds = 0
Dangerous builds = 0
The dot product: -3.60258964686384e-08
Setting atom values ...
  1 settings made for x
  1 settings made for y
  1 settings made for z
Setting up cg style minimization ...
  Unit style    : metal
  Current step  : 3169
Per MPI rank memory allocation (min/avg/max) = 5.441 | 5.816 | 6.074 Mbytes
Step PotEng KinEng TotEng v_fx v_fy v_fz 
    3169   -1152449.2            0   -1152449.2 -0.030863514  0.025697401 -0.0099164877 
    3339   -1152449.3            0   -1152449.3 -1.2958696e-05 1.232261e-05 -1.1572434e-05 
Loop time of 2.08923 on 104 procs for 170 steps with 288751 atoms

99.9% CPU use with 104 MPI tasks x 1 OpenMP threads

Minimization stats:
  Stopping criterion = energy tolerance
  Energy initial, next-to-last, final = 
     -1152449.24914686  -1152449.25042202  -1152449.25042202
  Force two-norm initial, final = 0.1647959 0.00016409899
  Force max component initial, final = 0.11857866 3.6527434e-05
  Final line search alpha, max atom move = 1.0000000 3.6527434e-05
  Iterations, force evaluations = 170 340

MPI task timing breakdown:
Section |  min time  |  avg time  |  max time  |%varavg| %total
---------------------------------------------------------------
Pair    | 0.51466    | 1.444      | 1.9524     |  32.3 | 69.12
Neigh   | 0          | 0          | 0          |   0.0 |  0.00
Comm    | 0.029002   | 0.3391     | 0.97452    |  45.9 | 16.23
Output  | 0          | 0          | 0          |   0.0 |  0.00
Modify  | 2.0136e-05 | 0.0028033  | 0.0059847  |   2.5 |  0.13
Other   |            | 0.3033     |            |       | 14.52

Nlocal:        2776.45 ave        3930 max           0 min
Histogram: 8 4 4 0 4 12 8 0 26 38
Nghost:        3879.07 ave        5424 max         232 min
Histogram: 8 0 8 0 16 0 8 8 16 40
Neighs:        79213.4 ave      114453 max           0 min
Histogram: 8 4 4 0 8 8 8 8 20 36

Total # of neighbors = 8238192
Ave neighs/atom = 28.530436
Neighbor list builds = 0
Dangerous builds = 0
The dot product: 1.28426484900365e-07
Setting atom values ...
  1 settings made for x
  1 settings made for y
  1 settings made for z
Setting up cg style minimization ...
  Unit style    : metal
  Current step  : 3339
Per MPI rank memory allocation (min/avg/max) = 5.441 | 5.816 | 6.074 Mbytes
Step PotEng KinEng TotEng v_fx v_fy v_fz 
    3339   -1152449.2            0   -1152449.2 -0.032770566  0.028009161 -0.0086035565 
    3540   -1152449.2            0   -1152449.2 7.1532198e-06 -5.0590626e-06 -3.0553836e-06 
Loop time of 2.43033 on 104 procs for 201 steps with 288751 atoms

99.9% CPU use with 104 MPI tasks x 1 OpenMP threads

Minimization stats:
  Stopping criterion = energy tolerance
  Energy initial, next-to-last, final = 
     -1152449.22454949  -1152449.22586904  -1152449.22586904
  Force two-norm initial, final = 0.16769221 4.8995963e-05
  Force max component initial, final = 0.1217998 7.1532198e-06
  Final line search alpha, max atom move = 1.0000000 7.1532198e-06
  Iterations, force evaluations = 201 402

MPI task timing breakdown:
Section |  min time  |  avg time  |  max time  |%varavg| %total
---------------------------------------------------------------
Pair    | 0.60875    | 1.6852     | 2.2927     |  35.2 | 69.34
Neigh   | 0          | 0          | 0          |   0.0 |  0.00
Comm    | 0.03367    | 0.40084    | 1.1736     |  50.1 | 16.49
Output  | 0          | 0          | 0          |   0.0 |  0.00
Modify  | 2.4054e-05 | 0.0033372  | 0.0072659  |   2.7 |  0.14
Other   |            | 0.3409     |            |       | 14.03

Nlocal:        2776.45 ave        3930 max           0 min
Histogram: 8 4 4 0 4 12 8 0 26 38
Nghost:        3879.07 ave        5424 max         232 min
Histogram: 8 0 8 0 16 0 8 8 16 40
Neighs:        79213.3 ave      114453 max           0 min
Histogram: 8 4 4 0 8 8 8 8 20 36

Total # of neighbors = 8238188
Ave neighs/atom = 28.530422
Neighbor list builds = 0
Dangerous builds = 0
The dot product: -6.38943121712647e-08
Setting atom values ...
  1 settings made for x
  1 settings made for y
  1 settings made for z
Setting up cg style minimization ...
  Unit style    : metal
  Current step  : 3540
Per MPI rank memory allocation (min/avg/max) = 5.441 | 5.816 | 6.074 Mbytes
Step PotEng KinEng TotEng v_fx v_fy v_fz 
    3540   -1152449.2            0   -1152449.2 -0.034242998  0.030173907 -0.0072308816 
    3676   -1152449.2            0   -1152449.2 -7.7458881e-07 3.2874266e-06 -1.199587e-05 
Loop time of 1.65613 on 104 procs for 136 steps with 288751 atoms

99.9% CPU use with 104 MPI tasks x 1 OpenMP threads

Minimization stats:
  Stopping criterion = energy tolerance
  Energy initial, next-to-last, final = 
     -1152449.19851676  -1152449.19988784  -1152449.19988784
  Force two-norm initial, final = 0.17087363 0.0001527721
  Force max component initial, final = 0.12508586 1.1995870e-05
  Final line search alpha, max atom move = 1.0000000 1.1995870e-05
  Iterations, force evaluations = 136 272

MPI task timing breakdown:
Section |  min time  |  avg time  |  max time  |%varavg| %total
---------------------------------------------------------------
Pair    | 0.41213    | 1.1524     | 1.5621     |  28.9 | 69.59
Neigh   | 0          | 0          | 0          |   0.0 |  0.00
Comm    | 0.022699   | 0.27192    | 0.79064    |  41.1 | 16.42
Output  | 0          | 0          | 0          |   0.0 |  0.00
Modify  | 1.6778e-05 | 0.0022436  | 0.0047985  |   2.2 |  0.14
Other   |            | 0.2295     |            |       | 13.86

Nlocal:        2776.45 ave        3930 max           0 min
Histogram: 8 4 4 0 4 12 8 0 26 38
Nghost:        3879.07 ave        5424 max         232 min
Histogram: 8 0 8 0 16 0 8 8 16 40
Neighs:        79213.3 ave      114453 max           0 min
Histogram: 8 4 4 0 8 8 8 8 20 36

Total # of neighbors = 8238187
Ave neighs/atom = 28.530419
Neighbor list builds = 0
Dangerous builds = 0
The dot product: 2.73213447964948e-08
Setting atom values ...
  1 settings made for x
  1 settings made for y
  1 settings made for z
Setting up cg style minimization ...
  Unit style    : metal
  Current step  : 3676
Per MPI rank memory allocation (min/avg/max) = 5.441 | 5.816 | 6.074 Mbytes
Step PotEng KinEng TotEng v_fx v_fy v_fz 
    3676   -1152449.2            0   -1152449.2 -0.035194766  0.032082341 -0.0058342252 
    3871   -1152449.2            0   -1152449.2 6.2326755e-06 -7.7748253e-06 1.0303016e-05 
Loop time of 2.35409 on 104 procs for 195 steps with 288751 atoms

99.9% CPU use with 104 MPI tasks x 1 OpenMP threads

Minimization stats:
  Stopping criterion = energy tolerance
  Energy initial, next-to-last, final = 
     -1152449.17106993   -1152449.1724986   -1152449.1724986
  Force two-norm initial, final = 0.17433713 5.6085845e-05
  Force max component initial, final = 0.12848414 1.1648220e-05
  Final line search alpha, max atom move = 1.0000000 1.1648220e-05
  Iterations, force evaluations = 195 390

MPI task timing breakdown:
Section |  min time  |  avg time  |  max time  |%varavg| %total
---------------------------------------------------------------
Pair    | 0.59047    | 1.6467     | 2.2255     |  34.7 | 69.95
Neigh   | 0          | 0          | 0          |   0.0 |  0.00
Comm    | 0.032536   | 0.38838    | 1.1376     |  49.4 | 16.50
Output  | 0          | 0          | 0          |   0.0 |  0.00
Modify  | 2.3189e-05 | 0.0032148  | 0.0068557  |   2.7 |  0.14
Other   |            | 0.3158     |            |       | 13.41

Nlocal:        2776.45 ave        3930 max           0 min
Histogram: 8 4 4 0 4 12 8 0 26 38
Nghost:        3879.11 ave        5424 max         232 min
Histogram: 8 0 8 0 16 0 8 8 16 40
Neighs:        79213.3 ave      114453 max           0 min
Histogram: 8 4 4 0 8 8 8 8 20 36

Total # of neighbors = 8238184
Ave neighs/atom = 28.530409
Neighbor list builds = 0
Dangerous builds = 0
The dot product: -9.15766157346248e-08
Setting atom values ...
  1 settings made for x
  1 settings made for y
  1 settings made for z
Setting up cg style minimization ...
  Unit style    : metal
  Current step  : 3871
Per MPI rank memory allocation (min/avg/max) = 5.441 | 5.816 | 6.074 Mbytes
Step PotEng KinEng TotEng v_fx v_fy v_fz 
    3871   -1152449.1            0   -1152449.1 -0.036166945   0.03365728 -0.002164626 
    3990   -1152449.1            0   -1152449.1 8.5067052e-06 5.8011887e-06 -5.8844784e-05 
Loop time of 1.43808 on 104 procs for 119 steps with 288751 atoms

99.9% CPU use with 104 MPI tasks x 1 OpenMP threads

Minimization stats:
  Stopping criterion = energy tolerance
  Energy initial, next-to-last, final = 
     -1152449.14222171  -1152449.14372662  -1152449.14372662
  Force two-norm initial, final = 0.17774958 0.00021428925
  Force max component initial, final = 0.13194833 5.8844784e-05
  Final line search alpha, max atom move = 1.0000000 5.8844784e-05
  Iterations, force evaluations = 119 238

MPI task timing breakdown:
Section |  min time  |  avg time  |  max time  |%varavg| %total
---------------------------------------------------------------
Pair    | 0.36002    | 0.99905    | 1.3616     |  27.0 | 69.47
Neigh   | 0          | 0          | 0          |   0.0 |  0.00
Comm    | 0.020543   | 0.23577    | 0.67945    |  38.2 | 16.39
Output  | 0          | 0          | 0          |   0.0 |  0.00
Modify  | 1.4256e-05 | 0.0019655  | 0.0041792  |   2.1 |  0.14
Other   |            | 0.2013     |            |       | 14.00

Nlocal:        2776.45 ave        3930 max           0 min
Histogram: 8 4 4 0 4 12 8 0 26 38
Nghost:        3879.12 ave        5425 max         232 min
Histogram: 8 0 8 0 16 0 8 8 16 40
Neighs:        79213.3 ave      114453 max           0 min
Histogram: 8 4 4 0 8 8 8 8 20 36

Total # of neighbors = 8238183
Ave neighs/atom = 28.530405
Neighbor list builds = 0
Dangerous builds = 0
The dot product: -7.69180448672947e-08
Setting atom values ...
  1 settings made for x
  1 settings made for y
  1 settings made for z
Setting up cg style minimization ...
  Unit style    : metal
  Current step  : 3990
Per MPI rank memory allocation (min/avg/max) = 5.441 | 5.816 | 6.074 Mbytes
Step PotEng KinEng TotEng v_fx v_fy v_fz 
    3990   -1152449.1            0   -1152449.1 -0.039583055  0.035838971  0.010267893 
    4000   -1152449.1            0   -1152449.1 -0.00094160934 0.0010668858 -0.00067258469 
    4132   -1152449.1            0   -1152449.1 -7.7781753e-06 1.6962752e-05 -4.0416128e-05 
Loop time of 1.71418 on 104 procs for 142 steps with 288751 atoms

99.9% CPU use with 104 MPI tasks x 1 OpenMP threads

Minimization stats:
  Stopping criterion = energy tolerance
  Energy initial, next-to-last, final = 
      -1152449.1118474  -1152449.11353895  -1152449.11353895
  Force two-norm initial, final = 0.18235055 0.0001591675
  Force max component initial, final = 0.13566176 4.0416128e-05
  Final line search alpha, max atom move = 1.0000000 4.0416128e-05
  Iterations, force evaluations = 142 284

MPI task timing breakdown:
Section |  min time  |  avg time  |  max time  |%varavg| %total
---------------------------------------------------------------
Pair    | 0.42825    | 1.1897     | 1.6232     |  29.5 | 69.40
Neigh   | 0          | 0          | 0          |   0.0 |  0.00
Comm    | 0.024096   | 0.2824     | 0.82442    |  41.8 | 16.47
Output  | 9.8886e-05 | 0.0001025  | 0.0001927  |   0.0 |  0.01
Modify  | 1.7103e-05 | 0.0023413  | 0.0050666  |   2.3 |  0.14
Other   |            | 0.2396     |            |       | 13.98

Nlocal:        2776.45 ave        3930 max           0 min
Histogram: 8 4 4 0 4 12 8 0 26 38
Nghost:        3879.14 ave        5425 max         232 min
Histogram: 8 0 8 0 16 0 8 8 16 40
Neighs:        79213.3 ave      114452 max           0 min
Histogram: 8 4 4 0 8 8 8 8 20 36

Total # of neighbors = 8238184
Ave neighs/atom = 28.530409
Neighbor list builds = 0
Dangerous builds = 0
The dot product: 1.02081924355307e-07
Setting atom values ...
  1 settings made for x
  1 settings made for y
  1 settings made for z
Setting up cg style minimization ...
  Unit style    : metal
  Current step  : 4132
Per MPI rank memory allocation (min/avg/max) = 5.441 | 5.816 | 6.074 Mbytes
Step PotEng KinEng TotEng v_fx v_fy v_fz 
    4132   -1152449.1            0   -1152449.1 -0.049075896  0.045065312  0.024409185 
    4391   -1152449.1            0   -1152449.1 5.1974252e-07 -6.609573e-07 5.4193112e-07 
Loop time of 3.15873 on 104 procs for 259 steps with 288751 atoms

99.9% CPU use with 104 MPI tasks x 1 OpenMP threads

Minimization stats:
  Stopping criterion = energy tolerance
  Energy initial, next-to-last, final = 
     -1152449.08000793  -1152449.08206513  -1152449.08206513
  Force two-norm initial, final = 0.19177303 6.4427245e-06
  Force max component initial, final = 0.13988738 6.6095730e-07
  Final line search alpha, max atom move = 1.0000000 6.6095730e-07
  Iterations, force evaluations = 259 518

MPI task timing breakdown:
Section |  min time  |  avg time  |  max time  |%varavg| %total
---------------------------------------------------------------
Pair    | 0.7833     | 2.1883     | 2.9832     |  40.0 | 69.28
Neigh   | 0          | 0          | 0          |   0.0 |  0.00
Comm    | 0.043259   | 0.5191     | 1.4851     |  56.3 | 16.43
Output  | 0          | 0          | 0          |   0.0 |  0.00
Modify  | 3.0736e-05 | 0.004265   | 0.0091393  |   3.1 |  0.14
Other   |            | 0.4471     |            |       | 14.15

Nlocal:        2776.45 ave        3930 max           0 min
Histogram: 8 4 4 0 4 12 8 0 26 38
Nghost:        3879.14 ave        5425 max         232 min
Histogram: 8 0 8 0 16 0 8 8 16 40
Neighs:        79213.3 ave      114452 max           0 min
Histogram: 8 4 4 0 8 8 8 8 20 36

Total # of neighbors = 8238183
Ave neighs/atom = 28.530405
Neighbor list builds = 0
Dangerous builds = 0
The dot product: -1.18030037665106e-08
Setting atom values ...
  1 settings made for x
  1 settings made for y
  1 settings made for z
Setting up cg style minimization ...
  Unit style    : metal
  Current step  : 4391
Per MPI rank memory allocation (min/avg/max) = 5.441 | 5.816 | 6.074 Mbytes
Step PotEng KinEng TotEng v_fx v_fy v_fz 
    4391     -1152449            0     -1152449 -0.057099093  0.056327933  0.035071651 
    4524     -1152449            0     -1152449 1.4067905e-06 -3.2604366e-06 7.7292411e-06 
Loop time of 1.61345 on 104 procs for 133 steps with 288751 atoms

99.9% CPU use with 104 MPI tasks x 1 OpenMP threads

Minimization stats:
  Stopping criterion = energy tolerance
  Energy initial, next-to-last, final = 
     -1152449.04697246  -1152449.04938476  -1152449.04938476
  Force two-norm initial, final = 0.2021264 0.00016287666
  Force max component initial, final = 0.14459185 2.6766848e-05
  Final line search alpha, max atom move = 1.0000000 2.6766848e-05
  Iterations, force evaluations = 133 266

MPI task timing breakdown:
Section |  min time  |  avg time  |  max time  |%varavg| %total
---------------------------------------------------------------
Pair    | 0.40422    | 1.1153     | 1.5203     |  28.6 | 69.12
Neigh   | 0          | 0          | 0          |   0.0 |  0.00
Comm    | 0.022286   | 0.26523    | 0.7661     |  40.5 | 16.44
Output  | 0          | 0          | 0          |   0.0 |  0.00
Modify  | 1.6586e-05 | 0.0021996  | 0.0046958  |   2.2 |  0.14
Other   |            | 0.2307     |            |       | 14.30

Nlocal:        2776.45 ave        3930 max           0 min
Histogram: 8 4 4 0 4 12 8 0 26 38
Nghost:        3879.18 ave        5425 max         232 min
Histogram: 8 0 8 0 16 0 8 8 16 40
Neighs:        79213.3 ave      114463 max           0 min
Histogram: 8 4 4 0 8 8 8 8 20 36

Total # of neighbors = 8238182
Ave neighs/atom = 28.530402
Neighbor list builds = 0
Dangerous builds = 0
The dot product: -1.80700872678935e-09
Setting atom values ...
  1 settings made for x
  1 settings made for y
  1 settings made for z
Setting up cg style minimization ...
  Unit style    : metal
  Current step  : 4524
Per MPI rank memory allocation (min/avg/max) = 5.441 | 5.816 | 6.074 Mbytes
Step PotEng KinEng TotEng v_fx v_fy v_fz 
    4524     -1152449            0     -1152449 -0.061365757   0.06550205   0.04895096 
    4717     -1152449            0     -1152449 9.8663061e-06 -8.7196927e-06 -1.695615e-05 
Loop time of 2.37484 on 104 procs for 193 steps with 288751 atoms

99.9% CPU use with 104 MPI tasks x 1 OpenMP threads

Minimization stats:
  Stopping criterion = energy tolerance
  Energy initial, next-to-last, final = 
     -1152449.01286585  -1152449.01561964  -1152449.01561964
  Force two-norm initial, final = 0.21221213 9.3352001e-05
  Force max component initial, final = 0.1492093 1.9115298e-05
  Final line search alpha, max atom move = 1.0000000 1.9115298e-05
  Iterations, force evaluations = 193 386

MPI task timing breakdown:
Section |  min time  |  avg time  |  max time  |%varavg| %total
---------------------------------------------------------------
Pair    | 0.58452    | 1.6357     | 2.2444     |  34.6 | 68.87
Neigh   | 0          | 0          | 0          |   0.0 |  0.00
Comm    | 0.032413   | 0.3902     | 1.1204     |  48.7 | 16.43
Output  | 0          | 0          | 0          |   0.0 |  0.00
Modify  | 2.2867e-05 | 0.0031779  | 0.0067693  |   2.7 |  0.13
Other   |            | 0.3458     |            |       | 14.56

Nlocal:        2776.45 ave        3930 max           0 min
Histogram: 8 4 4 0 4 12 8 0 26 38
Nghost:        3879.18 ave        5425 max         232 min
Histogram: 8 0 8 0 16 0 8 8 16 40
Neighs:        79213.3 ave      114463 max           0 min
Histogram: 8 4 4 0 8 8 8 8 20 36

Total # of neighbors = 8238179
Ave neighs/atom = 28.530391
Neighbor list builds = 0
Dangerous builds = 0
The dot product: -5.11875957302927e-07
Setting atom values ...
  1 settings made for x
  1 settings made for y
  1 settings made for z
Setting up cg style minimization ...
  Unit style    : metal
  Current step  : 4717
Per MPI rank memory allocation (min/avg/max) = 5.441 | 5.816 | 6.074 Mbytes
Step PotEng KinEng TotEng v_fx v_fy v_fz 
    4717     -1152449            0     -1152449 -0.061505162  0.071268695  0.069428095 
    4948     -1152449            0     -1152449 -1.0944709e-06 1.4237288e-06 3.0344485e-07 
Loop time of 2.79033 on 104 procs for 231 steps with 288751 atoms

99.9% CPU use with 104 MPI tasks x 1 OpenMP threads

Minimization stats:
  Stopping criterion = energy tolerance
  Energy initial, next-to-last, final = 
     -1152448.97796636  -1152448.98101295  -1152448.98101295
  Force two-norm initial, final = 0.22269234 2.9393570e-05
  Force max component initial, final = 0.15360258 1.4237288e-06
  Final line search alpha, max atom move = 1.0000000 1.4237288e-06
  Iterations, force evaluations = 231 462

MPI task timing breakdown:
Section |  min time  |  avg time  |  max time  |%varavg| %total
---------------------------------------------------------------
Pair    | 0.69982    | 1.9342     | 2.6344     |  37.7 | 69.32
Neigh   | 0          | 0          | 0          |   0.0 |  0.00
Comm    | 0.038189   | 0.46029    | 1.3313     |  53.4 | 16.50
Output  | 0          | 0          | 0          |   0.0 |  0.00
Modify  | 2.7586e-05 | 0.0038095  | 0.0081115  |   2.9 |  0.14
Other   |            | 0.392      |            |       | 14.05

Nlocal:        2776.45 ave        3930 max           0 min
Histogram: 8 4 4 0 4 12 8 0 26 38
Nghost:        3879.14 ave        5424 max         232 min
Histogram: 8 0 8 0 16 0 8 8 16 40
Neighs:        79213.3 ave      114463 max           0 min
Histogram: 8 4 4 0 8 8 8 8 20 36

Total # of neighbors = 8238179
Ave neighs/atom = 28.530391
Neighbor list builds = 0
Dangerous builds = 0
The dot product: 4.43261004433346e-08
Setting atom values ...
  1 settings made for x
  1 settings made for y
  1 settings made for z
Setting up cg style minimization ...
  Unit style    : metal
  Current step  : 4948
Per MPI rank memory allocation (min/avg/max) = 5.441 | 5.816 | 6.074 Mbytes
Step PotEng KinEng TotEng v_fx v_fy v_fz 
    4948   -1152448.9            0   -1152448.9 -0.055614204  0.071845942  0.084918484 
    5000     -1152449            0     -1152449 -0.00091110115 0.00082903983 0.0043089128 
    5210     -1152449            0     -1152449 -9.4863907e-06 1.1938659e-05 1.7138429e-05 
Loop time of 3.19304 on 104 procs for 262 steps with 288751 atoms

99.9% CPU use with 104 MPI tasks x 1 OpenMP threads

Minimization stats:
  Stopping criterion = energy tolerance
  Energy initial, next-to-last, final = 
     -1152448.94256667  -1152448.97863054  -1152448.97863054
  Force two-norm initial, final = 0.23008268 0.00010870616
  Force max component initial, final = 0.15751494 2.5128638e-05
  Final line search alpha, max atom move = 1.0000000 2.5128638e-05
  Iterations, force evaluations = 262 523

MPI task timing breakdown:
Section |  min time  |  avg time  |  max time  |%varavg| %total
---------------------------------------------------------------
Pair    | 0.79566    | 2.2156     | 3.0126     |  40.1 | 69.39
Neigh   | 1.0415e-05 | 0.0029541  | 0.0042769  |   2.2 |  0.09
Comm    | 0.045078   | 0.5238     | 1.5189     |  56.6 | 16.40
Output  | 0.00010427 | 0.00010689 | 0.00024597 |   0.0 |  0.00
Modify  | 3.1747e-05 | 0.0043092  | 0.0092332  |   3.1 |  0.13
Other   |            | 0.4462     |            |       | 13.97

Nlocal:        2776.45 ave        3930 max           0 min
Histogram: 8 4 4 0 4 12 8 0 26 38
Nghost:        3879.18 ave        5424 max         232 min
Histogram: 8 0 8 0 16 0 8 8 16 40
Neighs:        79213.2 ave      114469 max           0 min
Histogram: 8 4 4 0 8 8 8 8 20 36

Total # of neighbors = 8238174
Ave neighs/atom = 28.530374
Neighbor list builds = 1
Dangerous builds = 0
The dot product: 1.59050623794231e-06
Setting atom values ...
  1 settings made for x
  1 settings made for y
  1 settings made for z
Setting up cg style minimization ...
  Unit style    : metal
  Current step  : 5210
Per MPI rank memory allocation (min/avg/max) = 5.441 | 5.816 | 6.074 Mbytes
Step PotEng KinEng TotEng v_fx v_fy v_fz 
    5210     -1152449            0     -1152449 -0.029187417  0.063873134   0.14335532 
    5397     -1152449            0     -1152449 5.1478868e-06 -8.7836947e-06 -1.5268352e-06 
Loop time of 2.29602 on 104 procs for 187 steps with 288751 atoms

99.9% CPU use with 104 MPI tasks x 1 OpenMP threads

Minimization stats:
  Stopping criterion = energy tolerance
  Energy initial, next-to-last, final = 
     -1152448.95614756  -1152448.96030319  -1152448.96030319
  Force two-norm initial, final = 0.2614543 0.00021694185
  Force max component initial, final = 0.1649628 4.0628357e-05
  Final line search alpha, max atom move = 1.0000000 4.0628357e-05
  Iterations, force evaluations = 187 374

MPI task timing breakdown:
Section |  min time  |  avg time  |  max time  |%varavg| %total
---------------------------------------------------------------
Pair    | 0.57146    | 1.5846     | 2.152      |  33.9 | 69.01
Neigh   | 0          | 0          | 0          |   0.0 |  0.00
Comm    | 0.041806   | 0.3786     | 1.0996     |  47.7 | 16.49
Output  | 0          | 0          | 0          |   0.0 |  0.00
Modify  | 2.2842e-05 | 0.003083   | 0.0066147  |   2.6 |  0.13
Other   |            | 0.3297     |            |       | 14.36

Nlocal:        2776.45 ave        3942 max           0 min
Histogram: 8 4 4 0 4 12 8 2 26 36
Nghost:        3879.18 ave        5424 max         232 min
Histogram: 8 0 8 0 16 0 8 8 16 40
Neighs:        79213.3 ave      114853 max           0 min
Histogram: 8 4 4 0 10 6 8 8 22 34

Total # of neighbors = 8238183
Ave neighs/atom = 28.530405
Neighbor list builds = 0
Dangerous builds = 0
The dot product: -1.78020222795326e-07
Setting atom values ...
  1 settings made for x
  1 settings made for y
  1 settings made for z
Setting up cg style minimization ...
  Unit style    : metal
  Current step  : 5397
Per MPI rank memory allocation (min/avg/max) = 5.441 | 5.816 | 6.074 Mbytes
Step PotEng KinEng TotEng v_fx v_fy v_fz 
    5397   -1152448.9            0   -1152448.9 -0.0088324901  0.030395886  0.069726847 
    5568   -1152448.9            0   -1152448.9 -4.014492e-06 3.0613454e-06 -1.9078216e-05 
Loop time of 2.06754 on 104 procs for 171 steps with 288751 atoms

99.9% CPU use with 104 MPI tasks x 1 OpenMP threads

Minimization stats:
  Stopping criterion = energy tolerance
  Energy initial, next-to-last, final = 
     -1152448.93780751  -1152448.94024007  -1152448.94024007
  Force two-norm initial, final = 0.22528329 0.00012884835
  Force max component initial, final = 0.16632765 1.9078216e-05
  Final line search alpha, max atom move = 1.0000000 1.9078216e-05
  Iterations, force evaluations = 171 342

MPI task timing breakdown:
Section |  min time  |  avg time  |  max time  |%varavg| %total
---------------------------------------------------------------
Pair    | 0.51711    | 1.4444     | 1.9542     |  32.3 | 69.86
Neigh   | 0          | 0          | 0          |   0.0 |  0.00
Comm    | 0.028654   | 0.33899    | 0.97679    |  45.8 | 16.40
Output  | 0          | 0          | 0          |   0.0 |  0.00
Modify  | 2.0677e-05 | 0.0028193  | 0.0060132  |   2.5 |  0.14
Other   |            | 0.2813     |            |       | 13.61

Nlocal:        2776.45 ave        3945 max           0 min
Histogram: 8 4 4 0 4 12 8 2 26 36
Nghost:        3879.11 ave        5424 max         232 min
Histogram: 8 0 8 0 16 0 8 8 16 40
Neighs:        79213.3 ave      114941 max           0 min
Histogram: 8 4 4 0 10 6 8 8 23 33

Total # of neighbors = 8238184
Ave neighs/atom = 28.530409
Neighbor list builds = 0
Dangerous builds = 0
The dot product: -2.35607409617684e-07
Setting atom values ...
  1 settings made for x
  1 settings made for y
  1 settings made for z
Setting up cg style minimization ...
  Unit style    : metal
  Current step  : 5568
Per MPI rank memory allocation (min/avg/max) = 5.441 | 5.816 | 6.074 Mbytes
Step PotEng KinEng TotEng v_fx v_fy v_fz 
    5568   -1152448.9            0   -1152448.9 -0.0021422937  0.014926082  0.041800239 
    5751   -1152448.9            0   -1152448.9 1.2562566e-06 -1.2203418e-06 3.9794286e-06 
Loop time of 2.2126 on 104 procs for 183 steps with 288751 atoms

99.9% CPU use with 104 MPI tasks x 1 OpenMP threads

Minimization stats:
  Stopping criterion = energy tolerance
  Energy initial, next-to-last, final = 
     -1152448.91780319  -1152448.92011386  -1152448.92011386
  Force two-norm initial, final = 0.22160987 6.9683135e-05
  Force max component initial, final = 0.16800774 1.6061168e-05
  Final line search alpha, max atom move = 1.0000000 1.6061168e-05
  Iterations, force evaluations = 183 366

MPI task timing breakdown:
Section |  min time  |  avg time  |  max time  |%varavg| %total
---------------------------------------------------------------
Pair    | 0.55437    | 1.5423     | 2.0926     |  33.5 | 69.71
Neigh   | 0          | 0          | 0          |   0.0 |  0.00
Comm    | 0.030015   | 0.36378    | 1.0616     |  47.6 | 16.44
Output  | 0          | 0          | 0          |   0.0 |  0.00
Modify  | 2.2343e-05 | 0.0030157  | 0.006454   |   2.6 |  0.14
Other   |            | 0.3035     |            |       | 13.72

Nlocal:        2776.45 ave        3946 max           0 min
Histogram: 8 4 4 0 4 12 8 2 26 36
Nghost:        3879.11 ave        5424 max         232 min
Histogram: 8 0 8 0 16 0 8 8 16 40
Neighs:        79213.3 ave      114983 max           0 min
Histogram: 8 4 4 0 10 6 8 8 24 32

Total # of neighbors = 8238183
Ave neighs/atom = 28.530405
Neighbor list builds = 0
Dangerous builds = 0
The dot product: 2.9129965037779e-08
Setting atom values ...
  1 settings made for x
  1 settings made for y
  1 settings made for z
Setting up cg style minimization ...
  Unit style    : metal
  Current step  : 5751
Per MPI rank memory allocation (min/avg/max) = 5.441 | 5.816 | 6.074 Mbytes
Step PotEng KinEng TotEng v_fx v_fy v_fz 
    5751   -1152448.9            0   -1152448.9 8.7785219e-05 0.0086623333  0.029838259 
    5887   -1152448.9            0   -1152448.9 7.735671e-06 -1.2587834e-05 5.2268553e-06 
Loop time of 1.65134 on 104 procs for 136 steps with 288751 atoms

99.9% CPU use with 104 MPI tasks x 1 OpenMP threads

Minimization stats:
  Stopping criterion = energy tolerance
  Energy initial, next-to-last, final = 
      -1152448.8978188    -1152448.899763    -1152448.899763
  Force two-norm initial, final = 0.22056219 0.00023096691
  Force max component initial, final = 0.1699263 6.2976272e-05
  Final line search alpha, max atom move = 1.0000000 6.2976272e-05
  Iterations, force evaluations = 136 272

MPI task timing breakdown:
Section |  min time  |  avg time  |  max time  |%varavg| %total
---------------------------------------------------------------
Pair    | 0.41067    | 1.1498     | 1.5618     |  29.0 | 69.63
Neigh   | 0          | 0          | 0          |   0.0 |  0.00
Comm    | 0.022955   | 0.27105    | 0.78435    |  40.8 | 16.41
Output  | 0          | 0          | 0          |   0.0 |  0.00
Modify  | 1.6241e-05 | 0.0022448  | 0.0048412  |   2.2 |  0.14
Other   |            | 0.2283     |            |       | 13.82

Nlocal:        2776.45 ave        3947 max           0 min
Histogram: 8 4 4 0 4 12 8 2 26 36
Nghost:        3879.11 ave        5424 max         232 min
Histogram: 8 0 8 0 16 0 8 8 16 40
Neighs:        79213.3 ave      115013 max           0 min
Histogram: 8 4 4 0 10 6 8 8 24 32

Total # of neighbors = 8238182
Ave neighs/atom = 28.530402
Neighbor list builds = 0
Dangerous builds = 0
The dot product: 9.98152129626555e-09
Setting atom values ...
  1 settings made for x
  1 settings made for y
  1 settings made for z
Setting up cg style minimization ...
  Unit style    : metal
  Current step  : 5887
Per MPI rank memory allocation (min/avg/max) = 5.441 | 5.816 | 6.074 Mbytes
Step PotEng KinEng TotEng v_fx v_fy v_fz 
    5887   -1152448.9            0   -1152448.9 0.00023725247 0.0056484013  0.019486775 
    6000   -1152448.9            0   -1152448.9 1.1278248e-06 -4.7360549e-06 -8.5457281e-06 
    6087   -1152448.9            0   -1152448.9 3.3478847e-06 -4.6823002e-06 4.6672991e-06 
Loop time of 2.41855 on 104 procs for 200 steps with 288751 atoms

99.9% CPU use with 104 MPI tasks x 1 OpenMP threads

Minimization stats:
  Stopping criterion = energy tolerance
  Energy initial, next-to-last, final = 
     -1152448.87624529   -1152448.8780618   -1152448.8780618
  Force two-norm initial, final = 0.21965405 6.9112447e-05
  Force max component initial, final = 0.17207723 1.6125027e-05
  Final line search alpha, max atom move = 1.0000000 1.6125027e-05
  Iterations, force evaluations = 200 400

MPI task timing breakdown:
Section |  min time  |  avg time  |  max time  |%varavg| %total
---------------------------------------------------------------
Pair    | 0.60381    | 1.6716     | 2.2822     |  34.9 | 69.12
Neigh   | 0          | 0          | 0          |   0.0 |  0.00
Comm    | 0.034124   | 0.39875    | 1.1514     |  49.3 | 16.49
Output  | 9.9611e-05 | 0.0001023  | 0.00025683 |   0.0 |  0.00
Modify  | 2.4291e-05 | 0.0033028  | 0.0070402  |   2.7 |  0.14
Other   |            | 0.3448     |            |       | 14.26

Nlocal:        2776.45 ave        3946 max           0 min
Histogram: 8 4 4 0 4 12 8 2 26 36
Nghost:        3879.14 ave        5424 max         232 min
Histogram: 8 0 8 0 16 0 8 8 16 40
Neighs:        79213.3 ave      114984 max           0 min
Histogram: 8 4 4 0 10 6 8 8 24 32

Total # of neighbors = 8238180
Ave neighs/atom = 28.530395
Neighbor list builds = 0
Dangerous builds = 0
The dot product: 9.77351463015101e-09
Setting atom values ...
  1 settings made for x
  1 settings made for y
  1 settings made for z
Setting up cg style minimization ...
  Unit style    : metal
  Current step  : 6087
Per MPI rank memory allocation (min/avg/max) = 5.441 | 5.816 | 6.074 Mbytes
Step PotEng KinEng TotEng v_fx v_fy v_fz 
    6087   -1152448.9            0   -1152448.9 0.00016635597 0.0038484947  0.013029168 
    6226   -1152448.9            0   -1152448.9 1.9017173e-05 -3.2770812e-05 6.5726167e-06 
Loop time of 1.71088 on 104 procs for 139 steps with 288751 atoms

99.9% CPU use with 104 MPI tasks x 1 OpenMP threads

Minimization stats:
  Stopping criterion = energy tolerance
  Energy initial, next-to-last, final = 
     -1152448.85250085  -1152448.85443295  -1152448.85443295
  Force two-norm initial, final = 0.22369876 0.00021334886
  Force max component initial, final = 0.17420194 5.3673928e-05
  Final line search alpha, max atom move = 1.0000000 5.3673928e-05
  Iterations, force evaluations = 139 278

MPI task timing breakdown:
Section |  min time  |  avg time  |  max time  |%varavg| %total
---------------------------------------------------------------
Pair    | 0.42158    | 1.1779     | 1.6205     |  29.4 | 68.85
Neigh   | 0          | 0          | 0          |   0.0 |  0.00
Comm    | 0.023514   | 0.28099    | 0.79634    |  41.1 | 16.42
Output  | 0          | 0          | 0          |   0.0 |  0.00
Modify  | 1.6593e-05 | 0.0022924  | 0.0049015  |   2.3 |  0.13
Other   |            | 0.2497     |            |       | 14.59

Nlocal:        2776.45 ave        3945 max           0 min
Histogram: 8 4 4 0 4 12 8 2 26 36
Nghost:        3879.14 ave        5424 max         232 min
Histogram: 8 0 8 0 16 0 8 8 16 40
Neighs:        79213.3 ave      114941 max           0 min
Histogram: 8 4 4 0 10 6 8 8 22 34

Total # of neighbors = 8238179
Ave neighs/atom = 28.530391
Neighbor list builds = 0
Dangerous builds = 0
The dot product: 2.58789768964157e-08
Setting atom values ...
  1 settings made for x
  1 settings made for y
  1 settings made for z
Setting up cg style minimization ...
  Unit style    : metal
  Current step  : 6226
Per MPI rank memory allocation (min/avg/max) = 5.441 | 5.816 | 6.074 Mbytes
Step PotEng KinEng TotEng v_fx v_fy v_fz 
    6226   -1152448.8            0   -1152448.8 8.1239632e-05 0.0028964664 0.0095068011 
    6419   -1152448.8            0   -1152448.8 3.0055714e-07 -2.4266886e-06 -5.8593419e-06 
Loop time of 2.32772 on 104 procs for 193 steps with 288751 atoms

99.9% CPU use with 104 MPI tasks x 1 OpenMP threads

Minimization stats:
  Stopping criterion = energy tolerance
  Energy initial, next-to-last, final = 
      -1152448.8266246  -1152448.82866823  -1152448.82866823
  Force two-norm initial, final = 0.22830796 9.9214563e-05
  Force max component initial, final = 0.17639787 3.4569084e-05
  Final line search alpha, max atom move = 1.0000000 3.4569084e-05
  Iterations, force evaluations = 193 386

MPI task timing breakdown:
Section |  min time  |  avg time  |  max time  |%varavg| %total
---------------------------------------------------------------
Pair    | 0.58124    | 1.618      | 2.2027     |  34.5 | 69.51
Neigh   | 0          | 0          | 0          |   0.0 |  0.00
Comm    | 0.032671   | 0.38369    | 1.1196     |  49.0 | 16.48
Output  | 0          | 0          | 0          |   0.0 |  0.00
Modify  | 2.3904e-05 | 0.003199   | 0.0069819  |   2.7 |  0.14
Other   |            | 0.3229     |            |       | 13.87

Nlocal:        2776.45 ave        3943 max           0 min
Histogram: 8 4 4 0 4 12 8 2 26 36
Nghost:        3879.14 ave        5424 max         232 min
Histogram: 8 0 8 0 16 0 8 8 16 40
Neighs:        79213.2 ave      114886 max           0 min
Histogram: 8 4 4 0 10 6 8 8 22 34

Total # of neighbors = 8238176
Ave neighs/atom = 28.530381
Neighbor list builds = 0
Dangerous builds = 0
The dot product: 1.56057356947617e-09
Setting atom values ...
  1 settings made for x
  1 settings made for y
  1 settings made for z
Setting up cg style minimization ...
  Unit style    : metal
  Current step  : 6419
Per MPI rank memory allocation (min/avg/max) = 5.441 | 5.816 | 6.074 Mbytes
Step PotEng KinEng TotEng v_fx v_fy v_fz 
    6419   -1152448.8            0   -1152448.8 -5.7807536e-05 0.0025286452 0.0075782328 
    6598   -1152448.8            0   -1152448.8 9.9948932e-07 -1.9835185e-06 -5.0077922e-07 
Loop time of 2.20969 on 104 procs for 179 steps with 288751 atoms

99.9% CPU use with 104 MPI tasks x 1 OpenMP threads

Minimization stats:
  Stopping criterion = energy tolerance
  Energy initial, next-to-last, final = 
     -1152448.79850637  -1152448.80064713  -1152448.80064713
  Force two-norm initial, final = 0.23285377 0.00018793738
  Force max component initial, final = 0.1787509 4.6926020e-05
  Final line search alpha, max atom move = 1.0000000 4.6926020e-05
  Iterations, force evaluations = 179 358

MPI task timing breakdown:
Section |  min time  |  avg time  |  max time  |%varavg| %total
---------------------------------------------------------------
Pair    | 0.54271    | 1.5164     | 2.0766     |  33.3 | 68.63
Neigh   | 0          | 0          | 0          |   0.0 |  0.00
Comm    | 0.031432   | 0.3647     | 1.0567     |  47.0 | 16.50
Output  | 0          | 0          | 0          |   0.0 |  0.00
Modify  | 2.1318e-05 | 0.0029522  | 0.0062898  |   2.6 |  0.13
Other   |            | 0.3256     |            |       | 14.74

Nlocal:        2776.45 ave        3939 max           0 min
Histogram: 8 4 4 0 4 12 8 2 26 36
Nghost:        3879.12 ave        5424 max         232 min
Histogram: 8 0 8 0 16 0 8 8 16 40
Neighs:        79213.2 ave      114760 max           0 min
Histogram: 8 4 4 0 10 6 8 8 22 34

Total # of neighbors = 8238175
Ave neighs/atom = 28.530377
Neighbor list builds = 0
Dangerous builds = 0
The dot product: 2.15628442778966e-09
Setting atom values ...
  1 settings made for x
  1 settings made for y
  1 settings made for z
Setting up cg style minimization ...
  Unit style    : metal
  Current step  : 6598
Per MPI rank memory allocation (min/avg/max) = 5.441 | 5.816 | 6.074 Mbytes
Step PotEng KinEng TotEng v_fx v_fy v_fz 
    6598   -1152448.8            0   -1152448.8 -0.00030589416 0.0025793259 0.0063611553 
    6807   -1152448.8            0   -1152448.8 -1.9995814e-06 3.5819991e-06 -1.7206444e-07 
Loop time of 2.52757 on 104 procs for 209 steps with 288751 atoms

99.9% CPU use with 104 MPI tasks x 1 OpenMP threads

Minimization stats:
  Stopping criterion = energy tolerance
  Energy initial, next-to-last, final = 
     -1152448.76807274  -1152448.77028703  -1152448.77028703
  Force two-norm initial, final = 0.23674317 7.4937513e-05
  Force max component initial, final = 0.18111242 2.6317255e-05
  Final line search alpha, max atom move = 1.0000000 2.6317255e-05
  Iterations, force evaluations = 209 418

MPI task timing breakdown:
Section |  min time  |  avg time  |  max time  |%varavg| %total
---------------------------------------------------------------
Pair    | 0.63277    | 1.7518     | 2.3907     |  35.9 | 69.31
Neigh   | 0          | 0          | 0          |   0.0 |  0.00
Comm    | 0.034811   | 0.41635    | 1.2081     |  50.8 | 16.47
Output  | 0          | 0          | 0          |   0.0 |  0.00
Modify  | 2.5112e-05 | 0.0034545  | 0.0073787  |   2.8 |  0.14
Other   |            | 0.3559     |            |       | 14.08

Nlocal:        2776.45 ave        3930 max           0 min
Histogram: 8 4 4 0 4 12 8 0 26 38
Nghost:        3879.12 ave        5424 max         232 min
Histogram: 8 0 8 0 16 0 8 8 16 40
Neighs:        79213.2 ave      114480 max           0 min
Histogram: 8 4 4 0 8 8 8 8 20 36

Total # of neighbors = 8238169
Ave neighs/atom = 28.530357
Neighbor list builds = 0
Dangerous builds = 0
The dot product: -3.55176400681366e-09
Setting atom values ...
  1 settings made for x
  1 settings made for y
  1 settings made for z
Setting up cg style minimization ...
  Unit style    : metal
  Current step  : 6807
Per MPI rank memory allocation (min/avg/max) = 5.441 | 5.816 | 6.074 Mbytes
Step PotEng KinEng TotEng v_fx v_fy v_fz 
    6807   -1152448.7            0   -1152448.7 -0.00059222435 0.0029092198 0.0058119929 
    7000   -1152448.7            0   -1152448.7 -1.1856431e-06 1.4884691e-06 -2.0950646e-06 
    7002   -1152448.7            0   -1152448.7 -4.9605973e-07 5.1387784e-07 -1.2213566e-06 
Loop time of 2.36272 on 104 procs for 195 steps with 288751 atoms

99.9% CPU use with 104 MPI tasks x 1 OpenMP threads

Minimization stats:
  Stopping criterion = energy tolerance
  Energy initial, next-to-last, final = 
     -1152448.73527025  -1152448.73753482  -1152448.73753482
  Force two-norm initial, final = 0.2398958 0.00010295941
  Force max component initial, final = 0.18353512 3.9913686e-05
  Final line search alpha, max atom move = 1.0000000 3.9913686e-05
  Iterations, force evaluations = 195 390

MPI task timing breakdown:
Section |  min time  |  avg time  |  max time  |%varavg| %total
---------------------------------------------------------------
Pair    | 0.5916     | 1.6404     | 2.2311     |  34.5 | 69.43
Neigh   | 0          | 0          | 0          |   0.0 |  0.00
Comm    | 0.035831   | 0.38497    | 1.1192     |  49.2 | 16.29
Output  | 0.00016041 | 0.00016304 | 0.0003307  |   0.0 |  0.01
Modify  | 2.4193e-05 | 0.0032127  | 0.00689    |   2.7 |  0.14
Other   |            | 0.3339     |            |       | 14.13

Nlocal:        2776.45 ave        3930 max           0 min
Histogram: 8 4 4 0 4 12 8 0 26 38
Nghost:        3879.11 ave        5424 max         232 min
Histogram: 8 0 8 0 16 0 8 8 16 40
Neighs:        79213.1 ave      114480 max           0 min
Histogram: 8 4 4 0 8 8 8 8 20 36

Total # of neighbors = 8238166
Ave neighs/atom = 28.530346
Neighbor list builds = 0
Dangerous builds = 0
The dot product: 2.3717123596656e-10
Setting atom values ...
  1 settings made for x
  1 settings made for y
  1 settings made for z
Setting up cg style minimization ...
  Unit style    : metal
  Current step  : 7002
Per MPI rank memory allocation (min/avg/max) = 5.441 | 5.816 | 6.074 Mbytes
Step PotEng KinEng TotEng v_fx v_fy v_fz 
    7002   -1152448.7            0   -1152448.7 -0.00089345819 0.0034025769 0.0057036062 
    7162   -1152448.7            0   -1152448.7 -5.3233819e-06 5.3763748e-06 -1.3570894e-05 
Loop time of 1.93215 on 104 procs for 160 steps with 288751 atoms

99.9% CPU use with 104 MPI tasks x 1 OpenMP threads

Minimization stats:
  Stopping criterion = energy tolerance
  Energy initial, next-to-last, final = 
     -1152448.70007072  -1152448.70236441  -1152448.70236441
  Force two-norm initial, final = 0.24232675 0.00020608804
  Force max component initial, final = 0.18594605 7.8585845e-05
  Final line search alpha, max atom move = 1.0000000 7.8585845e-05
  Iterations, force evaluations = 160 320

MPI task timing breakdown:
Section |  min time  |  avg time  |  max time  |%varavg| %total
---------------------------------------------------------------
Pair    | 0.4839     | 1.3477     | 1.8283     |  31.4 | 69.75
Neigh   | 0          | 0          | 0          |   0.0 |  0.00
Comm    | 0.02672    | 0.3186     | 0.93074    |  44.6 | 16.49
Output  | 0          | 0          | 0          |   0.0 |  0.00
Modify  | 1.911e-05  | 0.0026344  | 0.0057025  |   2.4 |  0.14
Other   |            | 0.2632     |            |       | 13.62

Nlocal:        2776.45 ave        3930 max           0 min
Histogram: 8 4 4 0 4 12 8 0 26 38
Nghost:        3879.09 ave        5424 max         232 min
Histogram: 8 0 8 0 16 0 8 8 16 40
Neighs:        79213.1 ave      114479 max           0 min
Histogram: 8 4 4 0 8 8 8 8 20 36

Total # of neighbors = 8238166
Ave neighs/atom = 28.530346
Neighbor list builds = 0
Dangerous builds = 0
The dot product: 4.97714881671305e-09
Setting atom values ...
  1 settings made for x
  1 settings made for y
  1 settings made for z
Setting up cg style minimization ...
  Unit style    : metal
  Current step  : 7162
Per MPI rank memory allocation (min/avg/max) = 5.441 | 5.816 | 6.074 Mbytes
Step PotEng KinEng TotEng v_fx v_fy v_fz 
    7162   -1152448.7            0   -1152448.7 -0.0012279044 0.0040659225 0.0059573962 
    7352   -1152448.7            0   -1152448.7 1.1759361e-06 -1.6544643e-06 1.5045414e-06 
Loop time of 2.29506 on 104 procs for 190 steps with 288751 atoms

99.9% CPU use with 104 MPI tasks x 1 OpenMP threads

Minimization stats:
  Stopping criterion = energy tolerance
  Energy initial, next-to-last, final = 
     -1152448.66246637   -1152448.6647734   -1152448.6647734
  Force two-norm initial, final = 0.2443405 0.00014436825
  Force max component initial, final = 0.1885165 4.7315810e-05
  Final line search alpha, max atom move = 1.0000000 4.7315810e-05
  Iterations, force evaluations = 190 380

MPI task timing breakdown:
Section |  min time  |  avg time  |  max time  |%varavg| %total
---------------------------------------------------------------
Pair    | 0.57581    | 1.6011     | 2.1733     |  34.2 | 69.76
Neigh   | 0          | 0          | 0          |   0.0 |  0.00
Comm    | 0.03197    | 0.37661    | 1.0936     |  48.6 | 16.41
Output  | 0          | 0          | 0          |   0.0 |  0.00
Modify  | 2.2677e-05 | 0.003125   | 0.0066979  |   2.7 |  0.14
Other   |            | 0.3142     |            |       | 13.69

Nlocal:        2776.45 ave        3930 max           0 min
Histogram: 8 4 4 0 4 12 8 0 26 38
Nghost:        3879.09 ave        5424 max         232 min
Histogram: 8 0 8 0 16 0 8 8 16 40
Neighs:        79213.1 ave      114478 max           0 min
Histogram: 8 4 4 0 8 8 8 8 20 36

Total # of neighbors = 8238163
Ave neighs/atom = 28.530336
Neighbor list builds = 0
Dangerous builds = 0
The dot product: 9.98659162123722e-11
Setting up cg style minimization ...
  Unit style    : metal
  Current step  : 7352
Per MPI rank memory allocation (min/avg/max) = 5.441 | 5.816 | 6.074 Mbytes
Step PotEng KinEng TotEng v_fx v_fy v_fz 
    7352   -1152448.7            0   -1152448.7    1.6778593   0.92990453  -0.28882888 
    7632   -1152449.5            0   -1152449.5 -1.1893539e-05 1.5650894e-05 8.8319378e-07 
Loop time of 3.4016 on 104 procs for 280 steps with 288751 atoms

99.9% CPU use with 104 MPI tasks x 1 OpenMP threads

Minimization stats:
[...]
Histogram: 8 4 4 0 4 12 8 2 28 34
Nghost:        3879.03 ave        5424 max         232 min
Histogram: 8 0 8 0 16 0 8 8 16 40
Neighs:        79213.4 ave      115398 max           0 min
Histogram: 8 4 4 0 10 6 8 8 24 32

Total # of neighbors = 8238193
Ave neighs/atom = 28.530440
Neighbor list builds = 0
Dangerous builds = 0
The dot product: -4.25243262177082e-09
Setting atom values ...
  1 settings made for x
  1 settings made for y
  1 settings made for z
Setting up cg style minimization ...
  Unit style    : metal
  Current step  : 10815
Per MPI rank memory allocation (min/avg/max) = 5.441 | 5.816 | 6.074 Mbytes
Step PotEng KinEng TotEng v_fx v_fy v_fz 
   10815   -1152449.4            0   -1152449.4 -0.013245322  0.017365457  -0.02023984 
   11000   -1152449.4            0   -1152449.4 -1.2557968e-05 -8.8290025e-06 3.3444499e-05 
   11033   -1152449.4            0   -1152449.4 4.3742773e-06 -3.3250601e-07 -4.5579889e-06 
Loop time of 2.64369 on 104 procs for 218 steps with 288751 atoms

99.9% CPU use with 104 MPI tasks x 1 OpenMP threads

Minimization stats:
  Stopping criterion = energy tolerance
  Energy initial, next-to-last, final = 
     -1152449.44076573   -1152449.4420678   -1152449.4420678
  Force two-norm initial, final = 0.16382013 2.9517834e-05
  Force max component initial, final = 0.088794172 7.2094900e-06
  Final line search alpha, max atom move = 1.0000000 7.2094900e-06
  Iterations, force evaluations = 218 436

MPI task timing breakdown:
Section |  min time  |  avg time  |  max time  |%varavg| %total
---------------------------------------------------------------
Pair    | 0.65418    | 1.8306     | 2.4936     |  36.6 | 69.24
Neigh   | 0          | 0          | 0          |   0.0 |  0.00
Comm    | 0.037046   | 0.42862    | 1.2411     |  51.8 | 16.21
Output  | 0.0001583  | 0.00016057 | 0.00030026 |   0.0 |  0.01
Modify  | 2.6925e-05 | 0.0035907  | 0.0076242  |   2.8 |  0.14
Other   |            | 0.3807     |            |       | 14.40

Nlocal:        2776.45 ave        3960 max           0 min
Histogram: 8 4 4 0 4 12 8 2 28 34
Nghost:        3879.05 ave        5427 max         232 min
Histogram: 8 0 8 0 16 0 8 8 16 40
Neighs:        79213.4 ave      115420 max           0 min
Histogram: 8 4 4 0 10 6 8 8 24 32

Total # of neighbors = 8238197
Ave neighs/atom = 28.530454
Neighbor list builds = 0
Dangerous builds = 0
The dot product: 2.29590131873873e-09
Setting atom values ...
  1 settings made for x
  1 settings made for y
  1 settings made for z
Setting up cg style minimization ...
  Unit style    : metal
  Current step  : 11033
Per MPI rank memory allocation (min/avg/max) = 5.441 | 5.816 | 6.074 Mbytes
Step PotEng KinEng TotEng v_fx v_fy v_fz 
   11033   -1152449.4            0   -1152449.4 -0.011166751  0.016597517 -0.021174147 
   11164   -1152449.4            0   -1152449.4 -5.4371617e-05 7.9285671e-06 4.8801975e-05 
Loop time of 1.61563 on 104 procs for 131 steps with 288751 atoms

99.9% CPU use with 104 MPI tasks x 1 OpenMP threads

Minimization stats:
  Stopping criterion = energy tolerance
  Energy initial, next-to-last, final = 
     -1152449.43513358  -1152449.43642314  -1152449.43642314
  Force two-norm initial, final = 0.16304621 0.00028772742
  Force max component initial, final = 0.090194838 5.4371617e-05
  Final line search alpha, max atom move = 1.0000000 5.4371617e-05
  Iterations, force evaluations = 131 262

MPI task timing breakdown:
Section |  min time  |  avg time  |  max time  |%varavg| %total
---------------------------------------------------------------
Pair    | 0.39512    | 1.1047     | 1.5251     |  28.6 | 68.37
Neigh   | 0          | 0          | 0          |   0.0 |  0.00
Comm    | 0.021765   | 0.26293    | 0.75453    |  40.1 | 16.27
Output  | 0          | 0          | 0          |   0.0 |  0.00
Modify  | 1.6709e-05 | 0.002162   | 0.0045896  |   2.2 |  0.13
Other   |            | 0.2459     |            |       | 15.22

Nlocal:        2776.45 ave        3961 max           0 min
Histogram: 8 4 4 0 6 10 8 2 28 34
Nghost:        3879.07 ave        5425 max         232 min
Histogram: 8 0 8 0 16 0 8 8 16 40
Neighs:        79213.4 ave      115463 max           0 min
Histogram: 8 4 4 0 10 6 8 8 24 32

Total # of neighbors = 8238195
Ave neighs/atom = 28.530447
Neighbor list builds = 0
Dangerous builds = 0
The dot product: -9.22939217610128e-08
Setting atom values ...
  1 settings made for x
  1 settings made for y
  1 settings made for z
Setting up cg style minimization ...
  Unit style    : metal
  Current step  : 11164
Per MPI rank memory allocation (min/avg/max) = 5.441 | 5.816 | 6.074 Mbytes
Step PotEng KinEng TotEng v_fx v_fy v_fz 
   11164   -1152449.4            0   -1152449.4 -0.012443043  0.016740438 -0.019963274 
   11343   -1152449.4            0   -1152449.4 2.9061667e-06 -1.2934659e-05 2.3511199e-05 
Loop time of 2.18164 on 104 procs for 179 steps with 288751 atoms

99.9% CPU use with 104 MPI tasks x 1 OpenMP threads

Minimization stats:
  Stopping criterion = energy tolerance
  Energy initial, next-to-last, final = 
     -1152449.42823139  -1152449.42949714  -1152449.42949714
  Force two-norm initial, final = 0.16179853 0.00011103555
  Force max component initial, final = 0.091473726 2.3511199e-05
  Final line search alpha, max atom move = 1.0000000 2.3511199e-05
  Iterations, force evaluations = 179 358

MPI task timing breakdown:
Section |  min time  |  avg time  |  max time  |%varavg| %total
---------------------------------------------------------------
Pair    | 0.53762    | 1.5076     | 2.066      |  33.4 | 69.11
Neigh   | 0          | 0          | 0          |   0.0 |  0.00
Comm    | 0.030356   | 0.35678    | 1.0327     |  46.8 | 16.35
Output  | 0          | 0          | 0          |   0.0 |  0.00
Modify  | 2.2331e-05 | 0.0029484  | 0.0062879  |   2.6 |  0.14
Other   |            | 0.3143     |            |       | 14.40

Nlocal:        2776.45 ave        3961 max           0 min
Histogram: 8 4 4 0 6 10 8 3 27 34
Nghost:        3879.07 ave        5425 max         232 min
Histogram: 8 0 8 0 16 0 8 8 16 40
Neighs:        79213.4 ave      115463 max           0 min
Histogram: 8 4 4 0 10 6 8 8 24 32

Total # of neighbors = 8238197
Ave neighs/atom = 28.530454
Neighbor list builds = 0
Dangerous builds = 0
The dot product: -2.11402405505739e-08
Setting atom values ...
  1 settings made for x
  1 settings made for y
  1 settings made for z
Setting up cg style minimization ...
  Unit style    : metal
  Current step  : 11343
Per MPI rank memory allocation (min/avg/max) = 5.441 | 5.816 | 6.074 Mbytes
Step PotEng KinEng TotEng v_fx v_fy v_fz 
   11343   -1152449.4            0   -1152449.4 -0.013758975  0.016885538 -0.018701499 
   11517   -1152449.4            0   -1152449.4 4.0125148e-05 -1.3185071e-05 -2.0910715e-05 
Loop time of 2.12334 on 104 procs for 174 steps with 288751 atoms

99.9% CPU use with 104 MPI tasks x 1 OpenMP threads

Minimization stats:
  Stopping criterion = energy tolerance
  Energy initial, next-to-last, final = 
     -1152449.41999501   -1152449.4212386   -1152449.4212386
  Force two-norm initial, final = 0.16073227 0.00014817773
  Force max component initial, final = 0.092728127 4.0125148e-05
  Final line search alpha, max atom move = 1.0000000 4.0125148e-05
  Iterations, force evaluations = 174 348

MPI task timing breakdown:
Section |  min time  |  avg time  |  max time  |%varavg| %total
---------------------------------------------------------------
Pair    | 0.52533    | 1.4672     | 2.0093     |  32.9 | 69.10
Neigh   | 0          | 0          | 0          |   0.0 |  0.00
Comm    | 0.029234   | 0.34875    | 1.0103     |  46.4 | 16.42
Output  | 0          | 0          | 0          |   0.0 |  0.00
Modify  | 2.1659e-05 | 0.0028687  | 0.0061269  |   2.5 |  0.14
Other   |            | 0.3045     |            |       | 14.34

Nlocal:        2776.45 ave        3961 max           0 min
Histogram: 8 4 4 0 6 10 8 4 26 34
Nghost:        3879.07 ave        5424 max         232 min
Histogram: 8 0 8 0 16 0 8 8 16 40
Neighs:        79213.4 ave      115463 max           0 min
Histogram: 8 4 4 0 10 6 8 8 24 32

Total # of neighbors = 8238198
Ave neighs/atom = 28.530457
Neighbor list builds = 0
Dangerous builds = 0
The dot product: 2.92384274691244e-08
Setting atom values ...
  1 settings made for x
  1 settings made for y
  1 settings made for z
Setting up cg style minimization ...
  Unit style    : metal
  Current step  : 11517
Per MPI rank memory allocation (min/avg/max) = 5.441 | 5.816 | 6.074 Mbytes
Step PotEng KinEng TotEng v_fx v_fy v_fz 
   11517   -1152449.4            0   -1152449.4 -0.014960124  0.017017788 -0.017551633 
   11699   -1152449.4            0   -1152449.4 -1.1528277e-05 1.1066226e-05 -9.2327856e-06 
Loop time of 2.22635 on 104 procs for 182 steps with 288751 atoms

99.9% CPU use with 104 MPI tasks x 1 OpenMP threads

Minimization stats:
  Stopping criterion = linesearch alpha is zero
  Energy initial, next-to-last, final = 
     -1152449.41038417  -1152449.41161019  -1152449.41161019
  Force two-norm initial, final = 0.15992585 0.00010614244
  Force max component initial, final = 0.093961226 1.9782218e-05
  Final line search alpha, max atom move = 0.5 9.8911092e-06
  Iterations, force evaluations = 182 365

MPI task timing breakdown:
Section |  min time  |  avg time  |  max time  |%varavg| %total
---------------------------------------------------------------
Pair    | 0.5498     | 1.5404     | 2.0889     |  33.5 | 69.19
Neigh   | 0          | 0          | 0          |   0.0 |  0.00
Comm    | 0.030737   | 0.36119    | 1.045      |  47.4 | 16.22
Output  | 0          | 0          | 0          |   0.0 |  0.00
Modify  | 2.2684e-05 | 0.0030118  | 0.0064205  |   2.6 |  0.14
Other   |            | 0.3218     |            |       | 14.45

Nlocal:        2776.45 ave        3961 max           0 min
Histogram: 8 4 4 0 6 10 8 4 26 34
Nghost:        3879.07 ave        5424 max         232 min
Histogram: 8 0 8 0 16 0 8 8 16 40
Neighs:        79213.5 ave      115463 max           0 min
Histogram: 8 4 4 0 10 6 8 8 24 32

Total # of neighbors = 8238199
Ave neighs/atom = 28.530461
Neighbor list builds = 0
Dangerous builds = 0
The dot product: 8.60044649227219e-09
Setting atom values ...
  1 settings made for x
  1 settings made for y
  1 settings made for z
Setting up cg style minimization ...
  Unit style    : metal
  Current step  : 11699
Per MPI rank memory allocation (min/avg/max) = 5.441 | 5.816 | 6.074 Mbytes
Step PotEng KinEng TotEng v_fx v_fy v_fz 
   11699   -1152449.4            0   -1152449.4 -0.016061401  0.017126827  -0.01647505 
   11855   -1152449.4            0   -1152449.4 -6.0708513e-06 1.905561e-05 -3.2647791e-05 
Loop time of 1.89999 on 104 procs for 156 steps with 288751 atoms

99.9% CPU use with 104 MPI tasks x 1 OpenMP threads

Minimization stats:
  Stopping criterion = energy tolerance
  Energy initial, next-to-last, final = 
     -1152449.39937118  -1152449.40058373  -1152449.40058373
  Force two-norm initial, final = 0.15937071 0.00024268247
  Force max component initial, final = 0.095136167 3.2647791e-05
  Final line search alpha, max atom move = 1.0000000 3.2647791e-05
  Iterations, force evaluations = 156 312

MPI task timing breakdown:
Section |  min time  |  avg time  |  max time  |%varavg| %total
---------------------------------------------------------------
Pair    | 0.4705     | 1.3129     | 1.799      |  31.1 | 69.10
Neigh   | 0          | 0          | 0          |   0.0 |  0.00
Comm    | 0.026062   | 0.31102    | 0.89659    |  43.6 | 16.37
Output  | 0          | 0          | 0          |   0.0 |  0.00
Modify  | 1.9278e-05 | 0.0025766  | 0.0055024  |   2.4 |  0.14
Other   |            | 0.2735     |            |       | 14.39

Nlocal:        2776.45 ave        3961 max           0 min
Histogram: 8 4 4 0 6 10 8 4 26 34
Nghost:        3879.03 ave        5424 max         232 min
Histogram: 8 0 8 0 16 0 8 8 16 40
Neighs:        79213.5 ave      115465 max           0 min
Histogram: 8 4 4 0 10 6 8 8 24 32

Total # of neighbors = 8238200
Ave neighs/atom = 28.530464
Neighbor list builds = 0
Dangerous builds = 0
The dot product: 3.01459071828013e-08
Setting atom values ...
  1 settings made for x
  1 settings made for y
  1 settings made for z
Setting up cg style minimization ...
  Unit style    : metal
  Current step  : 11855
Per MPI rank memory allocation (min/avg/max) = 5.441 | 5.816 | 6.074 Mbytes
Step PotEng KinEng TotEng v_fx v_fy v_fz 
   11855   -1152449.4            0   -1152449.4 -0.016901308  0.017174242 -0.015589352 
   12000   -1152449.4            0   -1152449.4 -4.8345236e-05 1.1212615e-05 3.5150818e-05 
   12039   -1152449.4            0   -1152449.4 -1.2329946e-05 1.4055872e-05 -1.4584193e-05 
Loop time of 2.23969 on 104 procs for 184 steps with 288751 atoms

99.9% CPU use with 104 MPI tasks x 1 OpenMP threads

Minimization stats:
  Stopping criterion = energy tolerance
  Energy initial, next-to-last, final = 
     -1152449.38693448  -1152449.38813779  -1152449.38813779
  Force two-norm initial, final = 0.15901405 9.4703195e-05
  Force max component initial, final = 0.096324025 1.5610932e-05
  Final line search alpha, max atom move = 1.0000000 1.5610932e-05
  Iterations, force evaluations = 184 368

MPI task timing breakdown:
Section |  min time  |  avg time  |  max time  |%varavg| %total
---------------------------------------------------------------
Pair    | 0.55459    | 1.5481     | 2.1126     |  33.6 | 69.12
Neigh   | 0          | 0          | 0          |   0.0 |  0.00
Comm    | 0.031244   | 0.36317    | 1.0504     |  47.5 | 16.22
Output  | 0.00013473 | 0.00014649 | 0.00028218 |   0.0 |  0.01
Modify  | 2.3106e-05 | 0.0030313  | 0.0064471  |   2.6 |  0.14
Other   |            | 0.3252     |            |       | 14.52

Nlocal:        2776.45 ave        3961 max           0 min
Histogram: 8 4 4 0 6 10 8 4 26 34
Nghost:        3879.03 ave        5424 max         232 min
Histogram: 8 0 8 0 16 0 8 8 16 40
Neighs:        79213.4 ave      115482 max           0 min
Histogram: 8 4 4 0 10 6 8 8 24 32

Total # of neighbors = 8238197
Ave neighs/atom = 28.530454
Neighbor list builds = 0
Dangerous builds = 0
The dot product: 1.74672821061383e-08
Setting atom values ...
  1 settings made for x
  1 settings made for y
  1 settings made for z
Setting up cg style minimization ...
  Unit style    : metal
  Current step  : 12039
Per MPI rank memory allocation (min/avg/max) = 5.441 | 5.816 | 6.074 Mbytes
Step PotEng KinEng TotEng v_fx v_fy v_fz 
   12039   -1152449.4            0   -1152449.4 -0.017567401  0.017152643 -0.014771781 
   12209   -1152449.4            0   -1152449.4 3.7687514e-05 -8.1198128e-06 -2.8717736e-05 
Loop time of 2.11639 on 104 procs for 170 steps with 288751 atoms

99.9% CPU use with 104 MPI tasks x 1 OpenMP threads

Minimization stats:
  Stopping criterion = energy tolerance
  Energy initial, next-to-last, final = 
     -1152449.37305778  -1152449.37425596  -1152449.37425596
  Force two-norm initial, final = 0.15881726 0.00018151952
  Force max component initial, final = 0.097491605 3.9585665e-05
  Final line search alpha, max atom move = 1.0000000 3.9585665e-05
  Iterations, force evaluations = 170 340

MPI task timing breakdown:
Section |  min time  |  avg time  |  max time  |%varavg| %total
---------------------------------------------------------------
Pair    | 0.51189    | 1.4398     | 1.9929     |  32.9 | 68.03
Neigh   | 0          | 0          | 0          |   0.0 |  0.00
Comm    | 0.028454   | 0.34523    | 0.97106    |  44.7 | 16.31
Output  | 0          | 0          | 0          |   0.0 |  0.00
Modify  | 2.1304e-05 | 0.0028021  | 0.0059647  |   2.5 |  0.13
Other   |            | 0.3286     |            |       | 15.53

Nlocal:        2776.45 ave        3961 max           0 min
Histogram: 8 4 4 0 6 10 8 4 26 34
Nghost:        3879.03 ave        5424 max         232 min
Histogram: 8 0 8 0 16 0 8 8 16 40
Neighs:        79213.4 ave      115483 max           0 min
Histogram: 8 4 4 0 10 6 8 8 24 32

Total # of neighbors = 8238197
Ave neighs/atom = 28.530454
Neighbor list builds = 0
Dangerous builds = 0
The dot product: -1.94194238782995e-09
Setting atom values ...
  1 settings made for x
  1 settings made for y
  1 settings made for z
Setting up cg style minimization ...
  Unit style    : metal
  Current step  : 12209
Per MPI rank memory allocation (min/avg/max) = 5.441 | 5.816 | 6.074 Mbytes
Step PotEng KinEng TotEng v_fx v_fy v_fz 
   12209   -1152449.4            0   -1152449.4 -0.018041223  0.017079085 -0.014082357 
   12534   -1152449.4            0   -1152449.4 -2.6261386e-08 -3.0824801e-08 9.6967211e-08 
Loop time of 3.95195 on 104 procs for 325 steps with 288751 atoms

99.9% CPU use with 104 MPI tasks x 1 OpenMP threads

Minimization stats:
  Stopping criterion = energy tolerance
  Energy initial, next-to-last, final = 
     -1152449.35772847  -1152449.35892518  -1152449.35892518
  Force two-norm initial, final = 0.1587731 3.4806124e-07
  Force max component initial, final = 0.098663843 9.6967211e-08
  Final line search alpha, max atom move = 1.0000000 9.6967211e-08
  Iterations, force evaluations = 325 650

MPI task timing breakdown:
Section |  min time  |  avg time  |  max time  |%varavg| %total
---------------------------------------------------------------
Pair    | 0.97816    | 2.7351     | 3.7296     |  44.9 | 69.21
Neigh   | 0          | 0          | 0          |   0.0 |  0.00
Comm    | 0.056189   | 0.64257    | 1.8597     |  63.2 | 16.26
Output  | 0          | 0          | 0          |   0.0 |  0.00
Modify  | 4.0167e-05 | 0.0053533  | 0.011362   |   3.5 |  0.14
Other   |            | 0.5689     |            |       | 14.39

Nlocal:        2776.45 ave        3961 max           0 min
Histogram: 8 4 4 0 6 10 8 4 26 34
Nghost:        3879.05 ave        5424 max         232 min
Histogram: 8 0 8 0 16 0 8 8 16 40
Neighs:        79213.4 ave      115482 max           0 min
Histogram: 8 4 4 0 10 6 8 8 24 32

Total # of neighbors = 8238193
Ave neighs/atom = 28.530440
Neighbor list builds = 0
Dangerous builds = 0
The dot product: -4.91513338657995e-11
Setting up cg style minimization ...
  Unit style    : metal
  Current step  : 12534
Per MPI rank memory allocation (min/avg/max) = 5.441 | 5.816 | 6.074 Mbytes
Step PotEng KinEng TotEng v_fx v_fy v_fz 
   12534   -1152449.4            0   -1152449.4  -0.37104643  -0.64346655  -0.30504033 
   12811   -1152449.5            0   -1152449.5 2.2458469e-06 3.7441084e-07 8.9981722e-06 
Loop time of 3.41872 on 104 procs for 277 steps with 288751 atoms

99.9% CPU use with 104 MPI tasks x 1 OpenMP threads

Minimization stats:
  Stopping criterion = energy tolerance
  Energy initial, next-to-last, final = 
     -1152449.35892518  -1152449.45035287  -1152449.45035287
  Force two-norm initial, final = 0.80297836 2.6721117e-05
  Force max component initial, final = 0.64346655 8.9981722e-06
  Final line search alpha, max atom move = 1.0000000 8.9981722e-06
  Iterations, force evaluations = 277 554

MPI task timing breakdown:
Section |  min time  |  avg time  |  max time  |%varavg| %total
---------------------------------------------------------------
Pair    | 0.86496    | 2.3413     | 3.2014     |  40.8 | 68.48
Neigh   | 1.0046e-05 | 0.0029481  | 0.0042748  |   2.2 |  0.09
Comm    | 0.0504     | 0.5578     | 1.6157     |  57.9 | 16.32
Output  | 0          | 0          | 0          |   0.0 |  0.00
Modify  | 3.2966e-05 | 0.0029703  | 0.0076044  |   3.4 |  0.09
Other   |            | 0.5137     |            |       | 15.03

Nlocal:        2776.45 ave        3961 max           0 min
Histogram: 8 4 4 0 6 10 8 4 26 34
Nghost:        3879.07 ave        5424 max         232 min
Histogram: 8 0 8 0 16 0 8 8 16 40
Neighs:        79213.4 ave      115479 max           0 min
Histogram: 8 4 4 0 10 6 8 8 24 32

Total # of neighbors = 8238191
Ave neighs/atom = 28.530433
Neighbor list builds = 1
Dangerous builds = 0
