LAMMPS (29 Oct 2020)
OMP_NUM_THREADS environment is not set. Defaulting to 1 thread. (../comm.cpp:94)
  using 1 OpenMP thread(s) per MPI task
OMP_NUM_THREADS environment is not set. Defaulting to 1 thread. (../comm.cpp:94)
  using 1 OpenMP thread(s) per MPI task
Reading data file ...
  orthogonal box = (-122.39241 -121.13707 -37.090501) to (122.39241 121.13707 37.090501)
  13 by 2 by 1 MPI processor grid
  reading atoms ...
  288751 atoms
  read_data CPU = 0.461 seconds
199981 atoms in group inner
88770 atoms in group outer
1 atoms in group carbon
Neighbor list info ...
  update every 1 steps, delay 0 steps, check yes
  max neighbors/atom: 2000, page size: 100000
  master list distance cutoff = 5.6
  ghost atom cutoff = 5.6
  binsize = 2.8, bins = 88 87 27
  1 neighbor lists, perpetual/occasional/extra = 1 0 0
  (1) pair eam/alloy, perpetual
      attributes: half, newton on
      pair build: half/bin/atomonly/newton
      stencil: half/bin/3d/newton
      bin: standard
Setting up cg style minimization ...
  Unit style    : metal
  Current step  : 0
Per MPI rank memory allocation (min/avg/max) = 6.233 | 10.36 | 11.60 Mbytes
Step v_fx v_fy v_fz PotEng KinEng TotEng 
       0  -0.51856966   0.24066459  -0.34690092   -1152447.8            0   -1152447.8 
     153 2.2203084e-05 4.3506323e-05 -1.2115432e-05   -1152449.5            0   -1152449.5 
Loop time of 5.74931 on 26 procs for 153 steps with 288751 atoms

99.9% CPU use with 26 MPI tasks x 1 OpenMP threads

Minimization stats:
  Stopping criterion = linesearch alpha is zero
  Energy initial, next-to-last, final = 
     -1152447.84022082  -1152449.45035273  -1152449.45035273
  Force two-norm initial, final = 9.7338475 0.00017098168
  Force max component initial, final = 4.2305334 4.3506323e-05
  Final line search alpha, max atom move = 0.25 1.0876581e-05
  Iterations, force evaluations = 153 308

MPI task timing breakdown:
Section |  min time  |  avg time  |  max time  |%varavg| %total
---------------------------------------------------------------
Pair    | 2.1272     | 4.1125     | 5.2705     |  49.2 | 71.53
Neigh   | 0.010062   | 0.029853   | 0.045386   |   5.8 |  0.52
Comm    | 0.16217    | 0.6088     | 1.3986     |  47.0 | 10.59
Output  | 0          | 0          | 0          |   0.0 |  0.00
Modify  | 0.0046088  | 0.0061308  | 0.0092794  |   1.7 |  0.11
Other   |            | 0.992      |            |       | 17.25

Nlocal:        11105.8 ave       15296 max        4380 min
Histogram: 4 0 0 0 4 0 4 4 8 2
Nghost:        10533.6 ave       14020 max        4076 min
Histogram: 4 0 0 0 4 0 4 2 6 6
Neighs:       316854.0 ave      441479 max      114725 min
Histogram: 4 0 0 0 4 0 4 4 8 2

Total # of neighbors = 8238197
Ave neighs/atom = 28.530454
Neighbor list builds = 2
Dangerous builds = 1
Setting atom values ...
  1 settings made for x
  1 settings made for y
  1 settings made for z
Setting up cg style minimization ...
  Unit style    : metal
  Current step  : 153
Per MPI rank memory allocation (min/avg/max) = 6.233 | 10.36 | 11.60 Mbytes
Step PotEng KinEng TotEng v_fx v_fy v_fz 
     153   -1152449.4            0   -1152449.4  0.026127032 0.0035585368 -0.039055975 
     331   -1152449.4            0   -1152449.4 2.4588146e-05 1.1862961e-05 -2.0591238e-05 
Loop time of 6.57133 on 26 procs for 178 steps with 288751 atoms

99.9% CPU use with 26 MPI tasks x 1 OpenMP threads

Minimization stats:
  Stopping criterion = linesearch alpha is zero
  Energy initial, next-to-last, final = 
     -1152449.44584249  -1152449.44857564  -1152449.44857564
  Force two-norm initial, final = 0.23326875 0.00023692014
  Force max component initial, final = 0.12690177 2.5488964e-05
  Final line search alpha, max atom move = 0.125 3.1861205e-06
  Iterations, force evaluations = 178 367

MPI task timing breakdown:
Section |  min time  |  avg time  |  max time  |%varavg| %total
---------------------------------------------------------------
Pair    | 2.4349     | 4.7432     | 6.1211     |  53.4 | 72.18
Neigh   | 0          | 0          | 0          |   0.0 |  0.00
Comm    | 0.10602    | 0.66741    | 1.563      |  52.8 | 10.16
Output  | 0          | 0          | 0          |   0.0 |  0.00
Modify  | 0.0067776  | 0.01069    | 0.013731   |   1.7 |  0.16
Other   |            | 1.15       |            |       | 17.50

Nlocal:        11105.8 ave       15293 max        4380 min
Histogram: 4 0 0 0 4 0 4 4 8 2
Nghost:        10533.6 ave       14020 max        4076 min
Histogram: 4 0 0 0 4 0 4 2 6 6
Neighs:       316854.0 ave      441389 max      114725 min
Histogram: 4 0 0 0 4 0 4 4 8 2

Total # of neighbors = 8238197
Ave neighs/atom = 28.530454
Neighbor list builds = 0
Dangerous builds = 0
Setting atom values ...
  1 settings made for x
  1 settings made for y
  1 settings made for z
Setting up cg style minimization ...
  Unit style    : metal
  Current step  : 331
Per MPI rank memory allocation (min/avg/max) = 6.233 | 10.36 | 11.60 Mbytes
Step PotEng KinEng TotEng v_fx v_fy v_fz 
     331   -1152449.4            0   -1152449.4  0.019057638 0.0040685651 -0.030907642 
     476   -1152449.4            0   -1152449.4 -9.8507614e-06 -4.7802385e-06 1.0520035e-05 
Loop time of 5.30392 on 26 procs for 145 steps with 288751 atoms

99.9% CPU use with 26 MPI tasks x 1 OpenMP threads

Minimization stats:
  Stopping criterion = linesearch alpha is zero
  Energy initial, next-to-last, final = 
     -1152449.44397521  -1152449.44527729  -1152449.44527729
  Force two-norm initial, final = 0.16035263 0.00026461293
  Force max component initial, final = 0.092176805 2.0134983e-05
  Final line search alpha, max atom move = 0.125 2.5168729e-06
  Iterations, force evaluations = 145 297

MPI task timing breakdown:
Section |  min time  |  avg time  |  max time  |%varavg| %total
---------------------------------------------------------------
Pair    | 1.9739     | 3.834      | 4.9408     |  47.9 | 72.29
Neigh   | 0          | 0          | 0          |   0.0 |  0.00
Comm    | 0.088148   | 0.53578    | 1.2662     |  47.6 | 10.10
Output  | 0          | 0          | 0          |   0.0 |  0.00
Modify  | 0.0055283  | 0.0086539  | 0.011095   |   1.6 |  0.16
Other   |            | 0.9255     |            |       | 17.45

Nlocal:        11105.8 ave       15293 max        4380 min
Histogram: 4 0 0 0 4 0 4 4 8 2
Nghost:        10533.6 ave       14020 max        4076 min
Histogram: 4 0 0 0 4 0 4 2 6 6
Neighs:       316854.0 ave      441388 max      114725 min
Histogram: 4 0 0 0 4 0 4 4 8 2

Total # of neighbors = 8238195
Ave neighs/atom = 28.530447
Neighbor list builds = 0
Dangerous builds = 0
The dot product: -3.54403883721319e-08
Setting atom values ...
  1 settings made for x
  1 settings made for y
  1 settings made for z
Setting up cg style minimization ...
  Unit style    : metal
  Current step  : 476
Per MPI rank memory allocation (min/avg/max) = 6.233 | 10.36 | 11.60 Mbytes
Step PotEng KinEng TotEng v_fx v_fy v_fz 
     476   -1152449.4            0   -1152449.4  0.017458985 0.0036491663  -0.03380002 
     601   -1152449.4            0   -1152449.4 -6.0726578e-05 -4.7286746e-05 4.0416696e-05 
Loop time of 4.63607 on 26 procs for 125 steps with 288751 atoms

99.9% CPU use with 26 MPI tasks x 1 OpenMP threads

Minimization stats:
  Stopping criterion = linesearch alpha is zero
  Energy initial, next-to-last, final = 
     -1152449.43901966  -1152449.44031725  -1152449.44031725
  Force two-norm initial, final = 0.15922372 0.00027705526
  Force max component initial, final = 0.096376806 6.0726578e-05
  Final line search alpha, max atom move = 0.125 7.5908222e-06
  Iterations, force evaluations = 125 259

MPI task timing breakdown:
Section |  min time  |  avg time  |  max time  |%varavg| %total
---------------------------------------------------------------
Pair    | 1.728      | 3.3536     | 4.3208     |  44.8 | 72.34
Neigh   | 0          | 0          | 0          |   0.0 |  0.00
Comm    | 0.074257   | 0.46765    | 1.1079     |  44.5 | 10.09
Output  | 0          | 0          | 0          |   0.0 |  0.00
Modify  | 0.00484    | 0.0075255  | 0.009609   |   1.5 |  0.16
Other   |            | 0.8073     |            |       | 17.41

Nlocal:        11105.8 ave       15288 max        4380 min
Histogram: 4 0 0 0 4 0 4 4 8 2
Nghost:        10533.6 ave       14020 max        4076 min
Histogram: 4 0 0 0 4 0 4 2 6 6
Neighs:       316854.0 ave      441242 max      114725 min
Histogram: 4 0 0 0 4 0 4 4 8 2

Total # of neighbors = 8238194
Ave neighs/atom = 28.530443
Neighbor list builds = 0
Dangerous builds = 0
The dot product: -2.32067910712892e-07
Setting atom values ...
  1 settings made for x
  1 settings made for y
  1 settings made for z
Setting up cg style minimization ...
  Unit style    : metal
  Current step  : 601
Per MPI rank memory allocation (min/avg/max) = 6.233 | 10.36 | 11.60 Mbytes
Step PotEng KinEng TotEng v_fx v_fy v_fz 
     601   -1152449.4            0   -1152449.4  0.018030334 0.0048747705 -0.039328121 
     728   -1152449.4            0   -1152449.4 -1.1295345e-05 -1.4500375e-05 -4.5453336e-06 
Loop time of 4.59263 on 26 procs for 127 steps with 288751 atoms

99.9% CPU use with 26 MPI tasks x 1 OpenMP threads

Minimization stats:
  Stopping criterion = linesearch alpha is zero
  Energy initial, next-to-last, final = 
     -1152449.43246286  -1152449.43377449  -1152449.43377449
  Force two-norm initial, final = 0.15927842 0.0001970275
  Force max component initial, final = 0.10040425 4.4246438e-05
  Final line search alpha, max atom move = 0.25 1.1061610e-05
  Iterations, force evaluations = 127 257

MPI task timing breakdown:
Section |  min time  |  avg time  |  max time  |%varavg| %total
---------------------------------------------------------------
Pair    | 1.7103     | 3.3186     | 4.2804     |  44.6 | 72.26
Neigh   | 0          | 0          | 0          |   0.0 |  0.00
Comm    | 0.075193   | 0.4649     | 1.0977     |  44.4 | 10.12
Output  | 0          | 0          | 0          |   0.0 |  0.00
Modify  | 0.0047885  | 0.0074884  | 0.0095565  |   1.5 |  0.16
Other   |            | 0.8017     |            |       | 17.46

Nlocal:        11105.8 ave       15287 max        4380 min
Histogram: 4 0 0 0 4 0 4 4 8 2
Nghost:        10533.6 ave       14020 max        4076 min
Histogram: 4 0 0 0 4 0 4 2 6 6
Neighs:       316854.0 ave      441201 max      114725 min
Histogram: 4 0 0 0 4 0 4 4 8 2

Total # of neighbors = 8238193
Ave neighs/atom = 28.530440
Neighbor list builds = 0
Dangerous builds = 0
The dot product: -1.14308537210509e-08
Setting atom values ...
  1 settings made for x
  1 settings made for y
  1 settings made for z
Setting up cg style minimization ...
  Unit style    : metal
  Current step  : 728
Per MPI rank memory allocation (min/avg/max) = 6.233 | 10.36 | 11.60 Mbytes
Step PotEng KinEng TotEng v_fx v_fy v_fz 
     728   -1152449.4            0   -1152449.4  0.019717941 0.0090136309 -0.044230588 
     825   -1152449.4            0   -1152449.4 2.9055737e-05 1.6406312e-05 -5.5389781e-05 
Loop time of 3.60895 on 26 procs for 97 steps with 288751 atoms

99.9% CPU use with 26 MPI tasks x 1 OpenMP threads

Minimization stats:
  Stopping criterion = linesearch alpha is zero
  Energy initial, next-to-last, final = 
     -1152449.42441838  -1152449.42575146  -1152449.42575146
  Force two-norm initial, final = 0.15963623 0.00033502413
  Force max component initial, final = 0.10438563 8.4706820e-05
  Final line search alpha, max atom move = 0.0625 5.2941762e-06
  Iterations, force evaluations = 97 201

MPI task timing breakdown:
Section |  min time  |  avg time  |  max time  |%varavg| %total
---------------------------------------------------------------
Pair    | 1.3342     | 2.606      | 3.3669     |  39.6 | 72.21
Neigh   | 0          | 0          | 0          |   0.0 |  0.00
Comm    | 0.056599   | 0.36799    | 0.86673    |  39.3 | 10.20
Output  | 0          | 0          | 0          |   0.0 |  0.00
Modify  | 0.0037793  | 0.0058585  | 0.0075188  |   1.3 |  0.16
Other   |            | 0.6291     |            |       | 17.43

Nlocal:        11105.8 ave       15283 max        4380 min
Histogram: 4 0 0 0 4 0 4 4 8 2
Nghost:        10533.6 ave       14020 max        4076 min
Histogram: 4 0 0 0 4 0 4 2 6 6
Neighs:       316854.0 ave      441072 max      114725 min
Histogram: 4 0 0 0 4 0 4 4 8 2

Total # of neighbors = 8238194
Ave neighs/atom = 28.530443
Neighbor list builds = 0
Dangerous builds = 0
The dot product: 4.25079997596338e-07
Setting atom values ...
  1 settings made for x
  1 settings made for y
  1 settings made for z
Setting up cg style minimization ...
  Unit style    : metal
  Current step  : 825
Per MPI rank memory allocation (min/avg/max) = 6.233 | 10.36 | 11.60 Mbytes
Step PotEng KinEng TotEng v_fx v_fy v_fz 
     825   -1152449.4            0   -1152449.4  0.022902423  0.016790222 -0.048127859 
     927   -1152449.4            0   -1152449.4 -4.307105e-06 -6.2884457e-07 1.9586057e-05 
Loop time of 3.7339 on 26 procs for 102 steps with 288751 atoms

99.9% CPU use with 26 MPI tasks x 1 OpenMP threads

Minimization stats:
  Stopping criterion = linesearch alpha is zero
  Energy initial, next-to-last, final = 
     -1152449.41499078  -1152449.41637885  -1152449.41637885
  Force two-norm initial, final = 0.16080688 0.00027336916
  Force max component initial, final = 0.10822492 1.9586057e-05
  Final line search alpha, max atom move = 0.125 2.4482571e-06
  Iterations, force evaluations = 102 209

MPI task timing breakdown:
Section |  min time  |  avg time  |  max time  |%varavg| %total
---------------------------------------------------------------
Pair    | 1.3905     | 2.7002     | 3.4816     |  40.2 | 72.31
Neigh   | 0          | 0          | 0          |   0.0 |  0.00
Comm    | 0.060349   | 0.37778    | 0.89928    |  40.1 | 10.12
Output  | 0          | 0          | 0          |   0.0 |  0.00
Modify  | 0.0038892  | 0.0060818  | 0.0077868  |   1.3 |  0.16
Other   |            | 0.6499     |            |       | 17.40

Nlocal:        11105.8 ave       15281 max        4380 min
Histogram: 4 0 0 0 4 0 4 4 8 2
Nghost:        10533.6 ave       14020 max        4076 min
Histogram: 4 0 0 0 4 0 4 2 6 6
Neighs:       316854.0 ave      441003 max      114725 min
Histogram: 4 0 0 0 4 0 4 4 8 2

Total # of neighbors = 8238191
Ave neighs/atom = 28.530433
Neighbor list builds = 0
Dangerous builds = 0
The dot product: -1.61688906900073e-07
Setting atom values ...
  1 settings made for x
  1 settings made for y
  1 settings made for z
Setting up cg style minimization ...
  Unit style    : metal
  Current step  : 927
Per MPI rank memory allocation (min/avg/max) = 6.233 | 10.36 | 11.60 Mbytes
Step PotEng KinEng TotEng v_fx v_fy v_fz 
     927   -1152449.4            0   -1152449.4  0.025756853  0.026911745 -0.050288997 
    1000   -1152449.4            0   -1152449.4 -0.00010805453 -0.00012140062 0.00015711219 
    1081   -1152449.4            0   -1152449.4 9.5737058e-06 8.3655012e-06 -2.9066437e-05 
Loop time of 5.54898 on 26 procs for 154 steps with 288751 atoms

100.0% CPU use with 26 MPI tasks x 1 OpenMP threads

Minimization stats:
  Stopping criterion = energy tolerance
  Energy initial, next-to-last, final = 
     -1152449.40436198  -1152449.40582993  -1152449.40582993
  Force two-norm initial, final = 0.16247396 0.0002593463
  Force max component initial, final = 0.11185937 2.9066437e-05
  Final line search alpha, max atom move = 1.0000000 2.9066437e-05
  Iterations, force evaluations = 154 310

MPI task timing breakdown:
Section |  min time  |  avg time  |  max time  |%varavg| %total
---------------------------------------------------------------
Pair    | 2.056      | 4.0116     | 5.177      |  49.1 | 72.30
Neigh   | 0          | 0          | 0          |   0.0 |  0.00
Comm    | 0.086654   | 0.56632    | 1.345      |  49.0 | 10.21
Output  | 0.00022402 | 0.00022542 | 0.00024265 |   0.0 |  0.00
Modify  | 0.0057697  | 0.0090002  | 0.011518   |   1.6 |  0.16
Other   |            | 0.9618     |            |       | 17.33

Nlocal:        11105.8 ave       15278 max        4380 min
Histogram: 4 0 0 0 4 0 4 4 6 4
Nghost:        10533.6 ave       14020 max        4076 min
Histogram: 4 0 0 0 4 0 4 2 6 6
Neighs:       316853.0 ave      440895 max      114725 min
Histogram: 4 0 0 0 4 0 4 4 8 2

Total # of neighbors = 8238190
Ave neighs/atom = 28.530429
Neighbor list builds = 0
Dangerous builds = 0
The dot product: 3.39469465042925e-07
Setting atom values ...
  1 settings made for x
  1 settings made for y
  1 settings made for z
Setting up cg style minimization ...
  Unit style    : metal
  Current step  : 1081
Per MPI rank memory allocation (min/avg/max) = 6.233 | 10.36 | 11.60 Mbytes
Step PotEng KinEng TotEng v_fx v_fy v_fz 
    1081   -1152449.4            0   -1152449.4  0.024856358  0.034330377  -0.04936682 
    1255   -1152449.4            0   -1152449.4 -2.1826712e-05 -3.30243e-05 3.6845792e-06 
Loop time of 6.28567 on 26 procs for 174 steps with 288751 atoms

99.9% CPU use with 26 MPI tasks x 1 OpenMP threads

Minimization stats:
  Stopping criterion = linesearch alpha is zero
  Energy initial, next-to-last, final = 
     -1152449.39263065   -1152449.3941331   -1152449.3941331
  Force two-norm initial, final = 0.16311245 0.00017361884
  Force max component initial, final = 0.11471552 4.1250702e-05
  Final line search alpha, max atom move = 0.25 1.0312675e-05
  Iterations, force evaluations = 174 351

MPI task timing breakdown:
Section |  min time  |  avg time  |  max time  |%varavg| %total
---------------------------------------------------------------
Pair    | 2.3269     | 4.5378     | 5.8631     |  52.4 | 72.19
Neigh   | 0          | 0          | 0          |   0.0 |  0.00
Comm    | 0.099655   | 0.63782    | 1.5088     |  51.5 | 10.15
Output  | 0          | 0          | 0          |   0.0 |  0.00
Modify  | 0.0065     | 0.010194   | 0.013076   |   1.7 |  0.16
Other   |            | 1.1        |            |       | 17.50

Nlocal:        11105.8 ave       15277 max        4380 min
Histogram: 4 0 0 0 4 0 4 4 6 4
Nghost:        10533.6 ave       14020 max        4076 min
Histogram: 4 0 0 0 4 0 4 2 6 6
Neighs:       316854.0 ave      440853 max      114725 min
Histogram: 4 0 0 0 4 0 4 4 8 2

Total # of neighbors = 8238192
Ave neighs/atom = 28.530436
Neighbor list builds = 0
Dangerous builds = 0
The dot product: -4.32061828328828e-07
Setting atom values ...
  1 settings made for x
  1 settings made for y
  1 settings made for z
Setting up cg style minimization ...
  Unit style    : metal
  Current step  : 1255
Per MPI rank memory allocation (min/avg/max) = 6.233 | 10.36 | 11.60 Mbytes
Step PotEng KinEng TotEng v_fx v_fy v_fz 
    1255   -1152449.4            0   -1152449.4  0.021223413  0.037729686 -0.045789922 
    1411   -1152449.4            0   -1152449.4 -8.6004501e-06 -1.5544334e-05 3.465372e-05 
Loop time of 5.66745 on 26 procs for 156 steps with 288751 atoms

99.9% CPU use with 26 MPI tasks x 1 OpenMP threads

Minimization stats:
  Stopping criterion = linesearch alpha is zero
  Energy initial, next-to-last, final = 
     -1152449.37973837  -1152449.38122843  -1152449.38122843
  Force two-norm initial, final = 0.16262149 0.00028393249
  Force max component initial, final = 0.11658476 5.2142813e-05
  Final line search alpha, max atom move = 0.125 6.5178516e-06
  Iterations, force evaluations = 156 317

MPI task timing breakdown:
Section |  min time  |  avg time  |  max time  |%varavg| %total
---------------------------------------------------------------
Pair    | 2.1147     | 4.0955     | 5.2841     |  49.5 | 72.26
Neigh   | 0          | 0          | 0          |   0.0 |  0.00
Comm    | 0.091101   | 0.57288    | 1.3442     |  49.0 | 10.11
Output  | 0          | 0          | 0          |   0.0 |  0.00
Modify  | 0.0058635  | 0.0091999  | 0.011811   |   1.6 |  0.16
Other   |            | 0.9898     |            |       | 17.47

Nlocal:        11105.8 ave       15277 max        4380 min
Histogram: 4 0 0 0 4 0 4 4 6 4
Nghost:        10533.6 ave       14020 max        4076 min
Histogram: 4 0 0 0 4 0 4 2 6 6
Neighs:       316854.0 ave      440850 max      114725 min
Histogram: 4 0 0 0 4 0 4 4 8 2

Total # of neighbors = 8238192
Ave neighs/atom = 28.530436
Neighbor list builds = 0
Dangerous builds = 0
The dot product: -4.5182803046162e-07
Setting atom values ...
  1 settings made for x
  1 settings made for y
  1 settings made for z
Setting up cg style minimization ...
  Unit style    : metal
  Current step  : 1411
Per MPI rank memory allocation (min/avg/max) = 6.233 | 10.36 | 11.60 Mbytes
Step PotEng KinEng TotEng v_fx v_fy v_fz 
    1411   -1152449.4            0   -1152449.4  0.016531506  0.037275324 -0.040516316 
    1518   -1152449.4            0   -1152449.4 4.2454102e-05 7.335646e-05 0.00010736614 
Loop time of 3.81255 on 26 procs for 107 steps with 288751 atoms

100.0% CPU use with 26 MPI tasks x 1 OpenMP threads

Minimization stats:
  Stopping criterion = energy tolerance
  Energy initial, next-to-last, final = 
     -1152449.36559502  -1152449.36703511  -1152449.36703511
  Force two-norm initial, final = 0.16138564 0.0005459305
  Force max component initial, final = 0.11752451 0.00012613033
  Final line search alpha, max atom move = 1.0000000 0.00012613033
  Iterations, force evaluations = 107 214

MPI task timing breakdown:
Section |  min time  |  avg time  |  max time  |%varavg| %total
---------------------------------------------------------------
Pair    | 1.4277     | 2.761      | 3.5573     |  40.4 | 72.42
Neigh   | 0          | 0          | 0          |   0.0 |  0.00
Comm    | 0.059779   | 0.38512    | 0.91623    |  41.0 | 10.10
Output  | 0          | 0          | 0          |   0.0 |  0.00
Modify  | 0.0039921  | 0.0062267  | 0.0079455  |   1.3 |  0.16
Other   |            | 0.6602     |            |       | 17.32

Nlocal:        11105.8 ave       15278 max        4380 min
Histogram: 4 0 0 0 4 0 4 4 6 4
Nghost:        10533.6 ave       14020 max        4076 min
Histogram: 4 0 0 0 4 0 4 2 6 6
Neighs:       316854.0 ave      440876 max      114725 min
Histogram: 4 0 0 0 4 0 4 4 8 2

Total # of neighbors = 8238192
Ave neighs/atom = 28.530436
Neighbor list builds = 0
Dangerous builds = 0
The dot product: 1.65396489095997e-07
Setting atom values ...
  1 settings made for x
  1 settings made for y
  1 settings made for z
Setting up cg style minimization ...
  Unit style    : metal
  Current step  : 1518
Per MPI rank memory allocation (min/avg/max) = 6.233 | 10.36 | 11.60 Mbytes
Step PotEng KinEng TotEng v_fx v_fy v_fz 
    1518   -1152449.4            0   -1152449.4  0.011968668  0.033876577 -0.034631126 
    1650   -1152449.4            0   -1152449.4 -6.649541e-06 -1.3226741e-05 -9.4660852e-06 
Loop time of 4.87019 on 26 procs for 132 steps with 288751 atoms

100.0% CPU use with 26 MPI tasks x 1 OpenMP threads

Minimization stats:
  Stopping criterion = linesearch alpha is zero
  Energy initial, next-to-last, final = 
     -1152449.35011143  -1152449.35148262  -1152449.35148262
  Force two-norm initial, final = 0.15994638 0.00048330801
  Force max component initial, final = 0.11776439 8.6158925e-05
  Final line search alpha, max atom move = 0.03125 2.6924664e-06
  Iterations, force evaluations = 132 273

MPI task timing breakdown:
Section |  min time  |  avg time  |  max time  |%varavg| %total
---------------------------------------------------------------
Pair    | 1.814      | 3.5222     | 4.5445     |  45.9 | 72.32
Neigh   | 0          | 0          | 0          |   0.0 |  0.00
Comm    | 0.07678    | 0.4925     | 1.1661     |  45.8 | 10.11
Output  | 0          | 0          | 0          |   0.0 |  0.00
Modify  | 0.0050678  | 0.0079133  | 0.010128   |   1.5 |  0.16
Other   |            | 0.8476     |            |       | 17.40

Nlocal:        11105.8 ave       15278 max        4380 min
Histogram: 4 0 0 0 4 0 4 4 6 4
Nghost:        10533.6 ave       14020 max        4076 min
Histogram: 4 0 0 0 4 0 4 2 6 6
Neighs:       316854.0 ave      440867 max      114725 min
Histogram: 4 0 0 0 4 0 4 4 8 2

Total # of neighbors = 8238191
Ave neighs/atom = 28.530433
Neighbor list builds = 0
Dangerous builds = 0
The dot product: -8.4851112323594e-08
Setting atom values ...
  1 settings made for x
  1 settings made for y
  1 settings made for z
Setting up cg style minimization ...
  Unit style    : metal
  Current step  : 1650
Per MPI rank memory allocation (min/avg/max) = 6.233 | 10.36 | 11.60 Mbytes
Step PotEng KinEng TotEng v_fx v_fy v_fz 
    1650   -1152449.3            0   -1152449.3 0.0079423849  0.028447438 -0.029423899 
    1781   -1152449.3            0   -1152449.3 2.4758778e-05 2.747185e-05 0.00012603649 
Loop time of 4.79492 on 26 procs for 131 steps with 288751 atoms

100.0% CPU use with 26 MPI tasks x 1 OpenMP threads

Minimization stats:
  Stopping criterion = linesearch alpha is zero
  Energy initial, next-to-last, final = 
     -1152449.33321857  -1152449.33451928  -1152449.33451928
  Force two-norm initial, final = 0.15889954 0.00040673874
  Force max component initial, final = 0.11779254 0.00012603649
  Final line search alpha, max atom move = 0.0625 7.8772809e-06
  Iterations, force evaluations = 131 269

MPI task timing breakdown:
Section |  min time  |  avg time  |  max time  |%varavg| %total
---------------------------------------------------------------
Pair    | 1.7845     | 3.4682     | 4.4735     |  45.5 | 72.33
Neigh   | 0          | 0          | 0          |   0.0 |  0.00
Comm    | 0.077621   | 0.48502    | 1.1458     |  45.2 | 10.12
Output  | 0          | 0          | 0          |   0.0 |  0.00
Modify  | 0.0050096  | 0.0078109  | 0.010136   |   1.5 |  0.16
Other   |            | 0.8339     |            |       | 17.39

Nlocal:        11105.8 ave       15280 max        4380 min
Histogram: 4 0 0 0 4 0 4 4 6 4
Nghost:        10533.6 ave       14020 max        4076 min
Histogram: 4 0 0 0 4 0 4 2 6 6
Neighs:       316853.0 ave      440932 max      114725 min
Histogram: 4 0 0 0 4 0 4 4 8 2

Total # of neighbors = 8238188
Ave neighs/atom = 28.530422
Neighbor list builds = 0
Dangerous builds = 0
The dot product: -3.08636069957162e-07
Setting atom values ...
  1 settings made for x
  1 settings made for y
  1 settings made for z
Setting up cg style minimization ...
  Unit style    : metal
  Current step  : 1781
Per MPI rank memory allocation (min/avg/max) = 6.233 | 10.36 | 11.60 Mbytes
Step PotEng KinEng TotEng v_fx v_fy v_fz 
    1781   -1152449.3            0   -1152449.3 0.0047298935  0.022077069 -0.024482393 
    1969   -1152449.3            0   -1152449.3 -8.5685132e-06 -1.5609281e-05 -2.3197907e-05 
Loop time of 6.79053 on 26 procs for 188 steps with 288751 atoms

99.9% CPU use with 26 MPI tasks x 1 OpenMP threads

Minimization stats:
  Stopping criterion = linesearch alpha is zero
  Energy initial, next-to-last, final = 
      -1152449.3148737  -1152449.31611561  -1152449.31611561
  Force two-norm initial, final = 0.1583946 8.7323065e-05
  Force max component initial, final = 0.11790496 2.3197907e-05
  Final line search alpha, max atom move = 0.5 1.1598954e-05
  Iterations, force evaluations = 188 381

MPI task timing breakdown:
Section |  min time  |  avg time  |  max time  |%varavg| %total
---------------------------------------------------------------
Pair    | 2.5173     | 4.9111     | 6.3282     |  54.2 | 72.32
Neigh   | 0          | 0          | 0          |   0.0 |  0.00
Comm    | 0.10813    | 0.68753    | 1.6397     |  54.5 | 10.12
Output  | 0          | 0          | 0          |   0.0 |  0.00
Modify  | 0.0070661  | 0.01105    | 0.014112   |   1.8 |  0.16
Other   |            | 1.181      |            |       | 17.39

Nlocal:        11105.8 ave       15280 max        4380 min
Histogram: 4 0 0 0 4 0 4 4 6 4
Nghost:        10533.6 ave       14020 max        4076 min
Histogram: 4 0 0 0 4 0 4 2 6 6
Neighs:       316853.0 ave      440931 max      114725 min
Histogram: 4 0 0 0 4 0 4 4 8 2

Total # of neighbors = 8238187
Ave neighs/atom = 28.530419
Neighbor list builds = 0
Dangerous builds = 0
The dot product: -2.52300849766284e-08
Setting atom values ...
  1 settings made for x
  1 settings made for y
  1 settings made for z
Setting up cg style minimization ...
  Unit style    : metal
  Current step  : 1969
Per MPI rank memory allocation (min/avg/max) = 6.233 | 10.36 | 11.60 Mbytes
Step PotEng KinEng TotEng v_fx v_fy v_fz 
    1969   -1152449.3            0   -1152449.3  0.002076964  0.015155724 -0.020550827 
    2000   -1152449.3            0   -1152449.3 -0.00021393205 -0.00044964231 -0.00045764239 
    2116   -1152449.3            0   -1152449.3 2.008639e-05 4.8216582e-05 2.9073107e-05 
Loop time of 5.38835 on 26 procs for 147 steps with 288751 atoms

99.9% CPU use with 26 MPI tasks x 1 OpenMP threads

Minimization stats:
  Stopping criterion = linesearch alpha is zero
  Energy initial, next-to-last, final = 
     -1152449.29505613  -1152449.29625533  -1152449.29625533
  Force two-norm initial, final = 0.15854221 0.00025762841
  Force max component initial, final = 0.11809888 4.8216582e-05
  Final line search alpha, max atom move = 0.125 6.0270727e-06
  Iterations, force evaluations = 147 303

MPI task timing breakdown:
Section |  min time  |  avg time  |  max time  |%varavg| %total
---------------------------------------------------------------
Pair    | 2.0175     | 3.907      | 5.0305     |  48.2 | 72.51
Neigh   | 0          | 0          | 0          |   0.0 |  0.00
Comm    | 0.09072    | 0.54555    | 1.2898     |  48.1 | 10.12
Output  | 0.00022305 | 0.00022427 | 0.00024058 |   0.0 |  0.00
Modify  | 0.0056516  | 0.0088088  | 0.011283   |   1.6 |  0.16
Other   |            | 0.9268     |            |       | 17.20

Nlocal:        11105.8 ave       15280 max        4380 min
Histogram: 4 0 0 0 4 0 4 4 6 4
Nghost:        10533.5 ave       14020 max        4076 min
Histogram: 4 0 0 0 4 0 4 2 6 6
Neighs:       316853.0 ave      440930 max      114725 min
Histogram: 4 0 0 0 4 0 4 4 8 2

Total # of neighbors = 8238187
Ave neighs/atom = 28.530419
Neighbor list builds = 0
Dangerous builds = 0
The dot product: 1.65465328300589e-07
Setting atom values ...
  1 settings made for x
  1 settings made for y
  1 settings made for z
Setting up cg style minimization ...
  Unit style    : metal
  Current step  : 2116
Per MPI rank memory allocation (min/avg/max) = 6.233 | 10.36 | 11.60 Mbytes
Step PotEng KinEng TotEng v_fx v_fy v_fz 
    2116   -1152449.3            0   -1152449.3 -3.4603083e-05 0.0080731827 -0.016718781 
    2240   -1152449.3            0   -1152449.3 -9.8781984e-06 -3.4618047e-06 -5.7597565e-05 
Loop time of 4.49591 on 26 procs for 124 steps with 288751 atoms

100.0% CPU use with 26 MPI tasks x 1 OpenMP threads

Minimization stats:
  Stopping criterion = linesearch alpha is zero
  Energy initial, next-to-last, final = 
     -1152449.27375978  -1152449.27493289  -1152449.27493289
  Force two-norm initial, final = 0.15932066 0.0003204465
  Force max component initial, final = 0.11856013 5.7597565e-05
  Final line search alpha, max atom move = 0.0625 3.5998478e-06
  Iterations, force evaluations = 124 255

MPI task timing breakdown:
Section |  min time  |  avg time  |  max time  |%varavg| %total
---------------------------------------------------------------
Pair    | 1.6933     | 3.2966     | 4.2404     |  44.5 | 73.33
Neigh   | 0          | 0          | 0          |   0.0 |  0.00
Comm    | 0.063673   | 0.45929    | 1.0997     |  45.2 | 10.22
Output  | 0          | 0          | 0          |   0.0 |  0.00
Modify  | 0.0047432  | 0.0073713  | 0.0093747  |   1.4 |  0.16
Other   |            | 0.7326     |            |       | 16.30

Nlocal:        11105.8 ave       15280 max        4380 min
Histogram: 4 0 0 0 4 0 4 4 6 4
Nghost:        10533.6 ave       14021 max        4076 min
Histogram: 4 0 0 0 4 0 4 2 6 6
Neighs:       316853.0 ave      440930 max      114725 min
Histogram: 4 0 0 0 4 0 4 4 8 2

Total # of neighbors = 8238185
Ave neighs/atom = 28.530412
Neighbor list builds = 0
Dangerous builds = 0
The dot product: 1.12309774958497e-07
Setting atom values ...
  1 settings made for x
  1 settings made for y
  1 settings made for z
Setting up cg style minimization ...
  Unit style    : metal
  Current step  : 2240
Per MPI rank memory allocation (min/avg/max) = 6.233 | 10.36 | 11.60 Mbytes
Step PotEng KinEng TotEng v_fx v_fy v_fz 
    2240   -1152449.3            0   -1152449.3 -0.001982419 0.00057560542 -0.013469389 
    2377   -1152449.3            0   -1152449.3 7.1602906e-07 1.6106276e-05 -2.5792329e-05 
Loop time of 4.81219 on 26 procs for 137 steps with 288751 atoms

100.0% CPU use with 26 MPI tasks x 1 OpenMP threads

Minimization stats:
  Stopping criterion = energy tolerance
  Energy initial, next-to-last, final = 
     -1152449.25098531  -1152449.25215102  -1152449.25215102
  Force two-norm initial, final = 0.1608344 0.00030838038
  Force max component initial, final = 0.11931201 7.3331569e-05
  Final line search alpha, max atom move = 1.0000000 7.3331569e-05
  Iterations, force evaluations = 137 274

MPI task timing breakdown:
Section |  min time  |  avg time  |  max time  |%varavg| %total
---------------------------------------------------------------
Pair    | 1.8211     | 3.5246     | 4.5371     |  45.9 | 73.24
Neigh   | 0          | 0          | 0          |   0.0 |  0.00
Comm    | 0.073698   | 0.48664    | 1.1636     |  46.3 | 10.11
Output  | 0          | 0          | 0          |   0.0 |  0.00
Modify  | 0.0050512  | 0.0079123  | 0.010033   |   1.5 |  0.16
Other   |            | 0.793      |            |       | 16.48

Nlocal:        11105.8 ave       15280 max        4380 min
Histogram: 4 0 0 0 4 0 4 4 6 4
Nghost:        10533.5 ave       14021 max        4076 min
Histogram: 4 0 0 0 4 0 4 2 6 6
Neighs:       316853.0 ave      440929 max      114725 min
Histogram: 4 0 0 0 4 0 4 4 8 2

Total # of neighbors = 8238186
Ave neighs/atom = 28.530415
Neighbor list builds = 0
Dangerous builds = 0
The dot product: 6.59466308418627e-08
Setting atom values ...
  1 settings made for x
  1 settings made for y
  1 settings made for z
Setting up cg style minimization ...
  Unit style    : metal
  Current step  : 2377
Per MPI rank memory allocation (min/avg/max) = 6.233 | 10.36 | 11.60 Mbytes
Step PotEng KinEng TotEng v_fx v_fy v_fz 
    2377   -1152449.2            0   -1152449.2 -0.0039144287 -0.0074120913 -0.010412084 
    2493   -1152449.2            0   -1152449.2 -8.4489016e-06 -1.0029322e-05 -3.3167654e-05 
Loop time of 4.21999 on 26 procs for 116 steps with 288751 atoms

99.9% CPU use with 26 MPI tasks x 1 OpenMP threads

Minimization stats:
  Stopping criterion = linesearch alpha is zero
  Energy initial, next-to-last, final = 
     -1152449.22674493  -1152449.22792355  -1152449.22792355
  Force two-norm initial, final = 0.16316151 0.00032024533
  Force max component initial, final = 0.12045835 3.3167654e-05
  Final line search alpha, max atom move = 0.0625 2.0729784e-06
  Iterations, force evaluations = 116 239

MPI task timing breakdown:
Section |  min time  |  avg time  |  max time  |%varavg| %total
---------------------------------------------------------------
Pair    | 1.5953     | 3.0928     | 3.9745     |  43.0 | 73.29
Neigh   | 0          | 0          | 0          |   0.0 |  0.00
Comm    | 0.059951   | 0.43052    | 1.0175     |  43.5 | 10.20
Output  | 0          | 0          | 0          |   0.0 |  0.00
Modify  | 0.0044497  | 0.0069174  | 0.0087405  |   1.4 |  0.16
Other   |            | 0.6897     |            |       | 16.34

Nlocal:        11105.8 ave       15279 max        4380 min
Histogram: 4 0 0 0 4 0 4 4 6 4
Nghost:        10533.5 ave       14021 max        4076 min
Histogram: 4 0 0 0 4 0 4 2 6 6
Neighs:       316853.0 ave      440898 max      114725 min
Histogram: 4 0 0 0 4 0 4 4 8 2

Total # of neighbors = 8238185
Ave neighs/atom = 28.530412
Neighbor list builds = 0
Dangerous builds = 0
The dot product: 4.25131284868457e-08
Setting atom values ...
  1 settings made for x
  1 settings made for y
  1 settings made for z
Setting up cg style minimization ...
  Unit style    : metal
  Current step  : 2493
Per MPI rank memory allocation (min/avg/max) = 6.233 | 10.36 | 11.60 Mbytes
Step PotEng KinEng TotEng v_fx v_fy v_fz 
    2493   -1152449.2            0   -1152449.2 -0.0061569983 -0.016583192 -0.0072155785 
    2595   -1152449.2            0   -1152449.2 -2.6609971e-05 -5.890612e-05 -5.3760809e-05 
Loop time of 3.72052 on 26 procs for 102 steps with 288751 atoms

100.0% CPU use with 26 MPI tasks x 1 OpenMP threads

Minimization stats:
  Stopping criterion = linesearch alpha is zero
  Energy initial, next-to-last, final = 
     -1152449.20106788  -1152449.20229063  -1152449.20229063
  Force two-norm initial, final = 0.16653227 0.00038811314
  Force max component initial, final = 0.12216014 5.8906120e-05
  Final line search alpha, max atom move = 0.0625 3.6816325e-06
  Iterations, force evaluations = 102 211

MPI task timing breakdown:
Section |  min time  |  avg time  |  max time  |%varavg| %total
---------------------------------------------------------------
Pair    | 1.4098     | 2.7284     | 3.5077     |  40.4 | 73.33
Neigh   | 0          | 0          | 0          |   0.0 |  0.00
Comm    | 0.053513   | 0.37661    | 0.89816    |  40.9 | 10.12
Output  | 0          | 0          | 0          |   0.0 |  0.00
Modify  | 0.0039295  | 0.0061182  | 0.0077406  |   1.3 |  0.16
Other   |            | 0.6094     |            |       | 16.38

Nlocal:        11105.8 ave       15278 max        4380 min
Histogram: 4 0 0 0 4 0 4 4 6 4
Nghost:        10533.6 ave       14021 max        4076 min
Histogram: 4 0 0 0 4 0 4 2 6 6
Neighs:       316853.0 ave      440858 max      114725 min
Histogram: 4 0 0 0 4 0 4 4 8 2

Total # of neighbors = 8238184
Ave neighs/atom = 28.530409
Neighbor list builds = 0
Dangerous builds = 0
The dot product: 2.27655554934704e-07
Setting atom values ...
  1 settings made for x
  1 settings made for y
  1 settings made for z
Setting up cg style minimization ...
  Unit style    : metal
  Current step  : 2595
Per MPI rank memory allocation (min/avg/max) = 6.233 | 10.36 | 11.60 Mbytes
Step PotEng KinEng TotEng v_fx v_fy v_fz 
    2595   -1152449.2            0   -1152449.2 -0.009330723 -0.028387276 -0.0034859916 
    2727   -1152449.2            0   -1152449.2 -1.2762961e-05 -5.551405e-05 2.5496123e-05 
Loop time of 4.73621 on 26 procs for 132 steps with 288751 atoms

100.0% CPU use with 26 MPI tasks x 1 OpenMP threads

Minimization stats:
  Stopping criterion = linesearch alpha is zero
  Energy initial, next-to-last, final = 
     -1152449.17402856  -1152449.17536124  -1152449.17536124
  Force two-norm initial, final = 0.17135976 0.00026494311
  Force max component initial, final = 0.12449016 5.5514050e-05
  Final line search alpha, max atom move = 0.125 6.9392563e-06
  Iterations, force evaluations = 132 269

MPI task timing breakdown:
Section |  min time  |  avg time  |  max time  |%varavg| %total
---------------------------------------------------------------
Pair    | 1.7975     | 3.4745     | 4.4645     |  45.4 | 73.36
Neigh   | 0          | 0          | 0          |   0.0 |  0.00
Comm    | 0.068591   | 0.4794     | 1.1559     |  46.3 | 10.12
Output  | 0          | 0          | 0          |   0.0 |  0.00
Modify  | 0.0050129  | 0.0077845  | 0.0098773  |   1.5 |  0.16
Other   |            | 0.7745     |            |       | 16.35

Nlocal:        11105.8 ave       15277 max        4380 min
Histogram: 4 0 0 0 4 0 4 4 6 4
Nghost:        10533.6 ave       14021 max        4076 min
Histogram: 4 0 0 0 4 0 4 2 6 6
Neighs:       316853.0 ave      440833 max      114725 min
Histogram: 4 0 0 0 4 0 4 4 8 2

Total # of neighbors = 8238185
Ave neighs/atom = 28.530412
Neighbor list builds = 0
Dangerous builds = 0
The dot product: 4.52449729599562e-07
Setting atom values ...
  1 settings made for x
  1 settings made for y
  1 settings made for z
Setting up cg style minimization ...
  Unit style    : metal
  Current step  : 2727
Per MPI rank memory allocation (min/avg/max) = 6.233 | 10.36 | 11.60 Mbytes
Step PotEng KinEng TotEng v_fx v_fy v_fz 
    2727   -1152449.1            0   -1152449.1 -0.012945567 -0.041933562 0.0051471439 
    2835   -1152449.1            0   -1152449.1 -2.1939233e-05 -3.4649346e-05 -6.2532673e-05 
Loop time of 3.88229 on 26 procs for 108 steps with 288751 atoms

100.0% CPU use with 26 MPI tasks x 1 OpenMP threads

Minimization stats:
  Stopping criterion = linesearch alpha is zero
  Energy initial, next-to-last, final = 
     -1152449.14574175  -1152449.14725974  -1152449.14725974
  Force two-norm initial, final = 0.1774826 0.00028340213
  Force max component initial, final = 0.12782093 6.2532673e-05
  Final line search alpha, max atom move = 0.125 7.8165841e-06
  Iterations, force evaluations = 108 221

MPI task timing breakdown:
Section |  min time  |  avg time  |  max time  |%varavg| %total
---------------------------------------------------------------
Pair    | 1.4712     | 2.8474     | 3.6616     |  41.2 | 73.34
Neigh   | 0          | 0          | 0          |   0.0 |  0.00
Comm    | 0.057654   | 0.39268    | 0.93233    |  41.6 | 10.11
Output  | 0          | 0          | 0          |   0.0 |  0.00
Modify  | 0.0040946  | 0.0063924  | 0.0081279  |   1.3 |  0.16
Other   |            | 0.6359     |            |       | 16.38

Nlocal:        11105.8 ave       15276 max        4380 min
Histogram: 4 0 0 0 4 0 4 4 6 4
Nghost:        10533.6 ave       14021 max        4076 min
Histogram: 4 0 0 0 4 0 4 2 6 6
Neighs:       316853.0 ave      440803 max      114725 min
Histogram: 4 0 0 0 4 0 4 4 8 2

Total # of neighbors = 8238184
Ave neighs/atom = 28.530409
Neighbor list builds = 0
Dangerous builds = 0
The dot product: 2.8712967944974e-07
Setting atom values ...
  1 settings made for x
  1 settings made for y
  1 settings made for z
Setting up cg style minimization ...
  Unit style    : metal
  Current step  : 2835
Per MPI rank memory allocation (min/avg/max) = 6.233 | 10.36 | 11.60 Mbytes
Step PotEng KinEng TotEng v_fx v_fy v_fz 
    2835   -1152449.1            0   -1152449.1 -0.015860507  -0.05224557  0.018402509 
    2941   -1152449.1            0   -1152449.1 9.7053455e-07 1.1376237e-05 -1.92561e-05 
Loop time of 3.81727 on 26 procs for 106 steps with 288751 atoms

100.0% CPU use with 26 MPI tasks x 1 OpenMP threads

Minimization stats:
  Stopping criterion = linesearch alpha is zero
  Energy initial, next-to-last, final = 
     -1152449.11613149  -1152449.11788515  -1152449.11788515
  Force two-norm initial, final = 0.18493045 0.00027544505
  Force max component initial, final = 0.13210812 3.1932500e-05
  Final line search alpha, max atom move = 0.125 3.9915624e-06
  Iterations, force evaluations = 106 217

MPI task timing breakdown:
Section |  min time  |  avg time  |  max time  |%varavg| %total
---------------------------------------------------------------
Pair    | 1.4432     | 2.8029     | 3.5998     |  40.9 | 73.43
Neigh   | 0          | 0          | 0          |   0.0 |  0.00
Comm    | 0.054706   | 0.38686    | 0.92461    |  41.7 | 10.13
Output  | 0          | 0          | 0          |   0.0 |  0.00
Modify  | 0.0040484  | 0.0062781  | 0.0080237  |   1.3 |  0.16
Other   |            | 0.6212     |            |       | 16.27

Nlocal:        11105.8 ave       15274 max        4380 min
Histogram: 4 0 0 0 4 0 4 4 6 4
Nghost:        10533.6 ave       14021 max        4076 min
Histogram: 4 0 0 0 4 0 4 2 6 6
Neighs:       316853.0 ave      440744 max      114725 min
Histogram: 4 0 0 0 4 0 4 4 8 2

Total # of neighbors = 8238182
Ave neighs/atom = 28.530402
Neighbor list builds = 0
Dangerous builds = 0
The dot product: -2.49079548271599e-07
Setting atom values ...
  1 settings made for x
  1 settings made for y
  1 settings made for z
Setting up cg style minimization ...
  Unit style    : metal
  Current step  : 2941
Per MPI rank memory allocation (min/avg/max) = 6.233 | 10.36 | 11.60 Mbytes
Step PotEng KinEng TotEng v_fx v_fy v_fz 
    2941   -1152449.1            0   -1152449.1 -0.019396164  -0.05930442  0.027839927 
    3000   -1152449.1            0   -1152449.1 3.6757222e-05 4.9639945e-05 0.00011114505 
    3041   -1152449.1            0   -1152449.1 -8.4202479e-06 -2.1401854e-05 7.4036347e-07 
Loop time of 3.6379 on 26 procs for 100 steps with 288751 atoms

100.0% CPU use with 26 MPI tasks x 1 OpenMP threads

Minimization stats:
  Stopping criterion = linesearch alpha is zero
  Energy initial, next-to-last, final = 
     -1152449.08517091  -1152449.08712864  -1152449.08712864
  Force two-norm initial, final = 0.19228681 0.00035513301
  Force max component initial, final = 0.1368674 2.1401854e-05
  Final line search alpha, max atom move = 0.0625 1.3376159e-06
  Iterations, force evaluations = 100 207

MPI task timing breakdown:
Section |  min time  |  avg time  |  max time  |%varavg| %total
---------------------------------------------------------------
Pair    | 1.3783     | 2.6699     | 3.4321     |  39.8 | 73.39
Neigh   | 0          | 0          | 0          |   0.0 |  0.00
Comm    | 0.05508    | 0.36748    | 0.8828     |  40.5 | 10.10
Output  | 0.00022244 | 0.00022349 | 0.0002372  |   0.0 |  0.01
Modify  | 0.003853   | 0.0059986  | 0.0076225  |   1.3 |  0.16
Other   |            | 0.5943     |            |       | 16.34

Nlocal:        11105.8 ave       15268 max        4380 min
Histogram: 4 0 0 0 4 0 4 4 6 4
Nghost:        10533.5 ave       14021 max        4076 min
Histogram: 4 0 0 0 4 0 4 2 6 6
Neighs:       316853.0 ave      440594 max      114725 min
Histogram: 4 0 0 0 4 0 4 4 8 2

Total # of neighbors = 8238182
Ave neighs/atom = 28.530402
Neighbor list builds = 0
Dangerous builds = 0
The dot product: 3.64450734255506e-07
Setting atom values ...
  1 settings made for x
  1 settings made for y
  1 settings made for z
Setting up cg style minimization ...
  Unit style    : metal
  Current step  : 3041
Per MPI rank memory allocation (min/avg/max) = 6.233 | 10.36 | 11.60 Mbytes
Step PotEng KinEng TotEng v_fx v_fy v_fz 
    3041   -1152449.1            0   -1152449.1 -0.022724664 -0.063356971  0.036932091 
    3142   -1152449.1            0   -1152449.1 4.9309802e-06 2.1624345e-05 -3.2943902e-05 
Loop time of 3.69166 on 26 procs for 101 steps with 288751 atoms

100.0% CPU use with 26 MPI tasks x 1 OpenMP threads

Minimization stats:
  Stopping criterion = linesearch alpha is zero
  Energy initial, next-to-last, final = 
     -1152449.05287475  -1152449.05498879  -1152449.05498879
  Force two-norm initial, final = 0.19873165 0.00040929382
  Force max component initial, final = 0.14185338 0.00011175934
  Final line search alpha, max atom move = 0.0625 6.9849587e-06
  Iterations, force evaluations = 101 209

MPI task timing breakdown:
Section |  min time  |  avg time  |  max time  |%varavg| %total
---------------------------------------------------------------
Pair    | 1.3906     | 2.7062     | 3.4813     |  40.2 | 73.31
Neigh   | 0          | 0          | 0          |   0.0 |  0.00
Comm    | 0.052082   | 0.37513    | 0.89559    |  40.9 | 10.16
Output  | 0          | 0          | 0          |   0.0 |  0.00
Modify  | 0.0038834  | 0.0060593  | 0.0076792  |   1.3 |  0.16
Other   |            | 0.6042     |            |       | 16.37

Nlocal:        11105.8 ave       15258 max        4380 min
Histogram: 4 0 0 0 4 0 4 4 6 4
Nghost:        10533.4 ave       14021 max        4076 min
Histogram: 4 0 0 0 4 0 4 2 6 6
Neighs:       316853.0 ave      440248 max      114725 min
Histogram: 4 0 0 0 4 0 4 4 8 2

Total # of neighbors = 8238179
Ave neighs/atom = 28.530391
Neighbor list builds = 0
Dangerous builds = 0
The dot product: -6.38735172900284e-07
Setting atom values ...
  1 settings made for x
  1 settings made for y
  1 settings made for z
Setting up cg style minimization ...
  Unit style    : metal
  Current step  : 3142
Per MPI rank memory allocation (min/avg/max) = 6.233 | 10.36 | 11.60 Mbytes
Step PotEng KinEng TotEng v_fx v_fy v_fz 
    3142     -1152449            0     -1152449 -0.024939952 -0.064356778  0.050112257 
    3279     -1152449            0     -1152449 -6.2792811e-06 -2.0086399e-05 2.8118833e-05 
Loop time of 4.85633 on 26 procs for 137 steps with 288751 atoms

99.9% CPU use with 26 MPI tasks x 1 OpenMP threads

Minimization stats:
  Stopping criterion = energy tolerance
  Energy initial, next-to-last, final = 
     -1152449.01931991  -1152449.02160122  -1152449.02160122
  Force two-norm initial, final = 0.20522558 0.00036630108
  Force max component initial, final = 0.14702138 6.2708926e-05
  Final line search alpha, max atom move = 1.0000000 6.2708926e-05
  Iterations, force evaluations = 137 276

MPI task timing breakdown:
Section |  min time  |  avg time  |  max time  |%varavg| %total
---------------------------------------------------------------
Pair    | 1.8369     | 3.5589     | 4.5716     |  46.0 | 73.28
Neigh   | 0          | 0          | 0          |   0.0 |  0.00
Comm    | 0.073177   | 0.49038    | 1.1725     |  46.5 | 10.10
Output  | 0          | 0          | 0          |   0.0 |  0.00
Modify  | 0.0051573  | 0.0079967  | 0.010193   |   1.5 |  0.16
Other   |            | 0.7991     |            |       | 16.45

Nlocal:        11105.8 ave       15247 max        4380 min
Histogram: 4 0 0 0 4 0 4 4 6 4
Nghost:        10533.3 ave       14021 max        4076 min
Histogram: 4 0 0 0 4 0 4 2 6 6
Neighs:       316853.0 ave      439896 max      114725 min
Histogram: 4 0 0 0 4 0 4 4 7 3

Total # of neighbors = 8238178
Ave neighs/atom = 28.530388
Neighbor list builds = 0
Dangerous builds = 0
The dot product: 6.71281802646939e-07
Setting atom values ...
  1 settings made for x
  1 settings made for y
  1 settings made for z
Setting up cg style minimization ...
  Unit style    : metal
  Current step  : 3279
Per MPI rank memory allocation (min/avg/max) = 6.233 | 10.36 | 11.60 Mbytes
Step PotEng KinEng TotEng v_fx v_fy v_fz 
    3279     -1152449            0     -1152449 -0.026038177 -0.061699753  0.065012446 
    3438     -1152449            0     -1152449 -1.6047934e-05 -1.7465718e-05 -7.3273542e-05 
Loop time of 5.73011 on 26 procs for 159 steps with 288751 atoms

100.0% CPU use with 26 MPI tasks x 1 OpenMP threads

Minimization stats:
  Stopping criterion = linesearch alpha is zero
  Energy initial, next-to-last, final = 
     -1152448.98474058  -1152448.98710766  -1152448.98710766
  Force two-norm initial, final = 0.21133653 0.0003585567
  Force max component initial, final = 0.15205352 7.3273542e-05
  Final line search alpha, max atom move = 0.0625 4.5795964e-06
  Iterations, force evaluations = 159 325

MPI task timing breakdown:
Section |  min time  |  avg time  |  max time  |%varavg| %total
---------------------------------------------------------------
Pair    | 2.1693     | 4.1959     | 5.4058     |  50.1 | 73.23
Neigh   | 0          | 0          | 0          |   0.0 |  0.00
Comm    | 0.080029   | 0.58385    | 1.3741     |  50.3 | 10.19
Output  | 0          | 0          | 0          |   0.0 |  0.00
Modify  | 0.0060603  | 0.009407   | 0.011868   |   1.6 |  0.16
Other   |            | 0.941      |            |       | 16.42

Nlocal:        11105.8 ave       15242 max        4380 min
Histogram: 4 0 0 0 4 0 4 4 6 4
Nghost:        10533.3 ave       14021 max        4076 min
Histogram: 4 0 0 0 4 0 4 2 6 6
Neighs:       316853.0 ave      439741 max      114725 min
Histogram: 4 0 0 0 4 0 4 4 7 3

Total # of neighbors = 8238176
Ave neighs/atom = 28.530381
Neighbor list builds = 0
Dangerous builds = 0
The dot product: -7.25894883955404e-07
Setting atom values ...
  1 settings made for x
  1 settings made for y
  1 settings made for z
Setting up cg style minimization ...
  Unit style    : metal
  Current step  : 3438
Per MPI rank memory allocation (min/avg/max) = 6.233 | 10.36 | 11.60 Mbytes
Step PotEng KinEng TotEng v_fx v_fy v_fz 
    3438   -1152448.9            0   -1152448.9 -0.025739484 -0.054757327  0.075214771 
    3630     -1152449            0     -1152449 1.2538902e-06 -1.9432798e-06 3.6570269e-05 
Loop time of 6.92323 on 26 procs for 192 steps with 288751 atoms

99.9% CPU use with 26 MPI tasks x 1 OpenMP threads

Minimization stats:
  Stopping criterion = energy tolerance
  Energy initial, next-to-last, final = 
     -1152448.94928465   -1152448.9517677   -1152448.9517677
  Force two-norm initial, final = 0.2160547 0.00011561872
  Force max component initial, final = 0.15686815 3.6570269e-05
  Final line search alpha, max atom move = 1.0000000 3.6570269e-05
  Iterations, force evaluations = 192 394

MPI task timing breakdown:
Section |  min time  |  avg time  |  max time  |%varavg| %total
---------------------------------------------------------------
Pair    | 2.6213     | 5.0743     | 6.5311     |  54.9 | 73.29
Neigh   | 0          | 0          | 0          |   0.0 |  0.00
Comm    | 0.097231   | 0.70316    | 1.6815     |  55.8 | 10.16
Output  | 0          | 0          | 0          |   0.0 |  0.00
Modify  | 0.0072906  | 0.011426   | 0.014476   |   1.8 |  0.17
Other   |            | 1.134      |            |       | 16.38

Nlocal:        11105.8 ave       15242 max        4380 min
Histogram: 4 0 0 0 4 0 4 4 6 4
Nghost:        10533.3 ave       14021 max        4076 min
Histogram: 4 0 0 0 4 0 4 2 6 6
Neighs:       316853.0 ave      439739 max      114725 min
Histogram: 4 0 0 0 4 0 4 4 7 3

Total # of neighbors = 8238177
Ave neighs/atom = 28.530384
Neighbor list builds = 0
Dangerous builds = 0
The dot product: 6.67892214865874e-07
Setting atom values ...
  1 settings made for x
  1 settings made for y
  1 settings made for z
Setting up cg style minimization ...
  Unit style    : metal
  Current step  : 3630
Per MPI rank memory allocation (min/avg/max) = 6.233 | 10.36 | 11.60 Mbytes
Step PotEng KinEng TotEng v_fx v_fy v_fz 
    3630   -1152448.9            0   -1152448.9 -0.022971812 -0.043245737  0.094378366 
    3877     -1152449            0     -1152449 2.9042404e-06 5.1102561e-06 -3.8188444e-06 
Loop time of 8.85973 on 26 procs for 247 steps with 288751 atoms

100.0% CPU use with 26 MPI tasks x 1 OpenMP threads

Minimization stats:
  Stopping criterion = linesearch alpha is zero
  Energy initial, next-to-last, final = 
     -1152448.91444474  -1152448.96406841  -1152448.96406841
  Force two-norm initial, final = 0.23350173 0.00011165374
  Force max component initial, final = 0.16170791 2.2714500e-05
  Final line search alpha, max atom move = 0.5 1.1357250e-05
  Iterations, force evaluations = 247 501

MPI task timing breakdown:
Section |  min time  |  avg time  |  max time  |%varavg| %total
---------------------------------------------------------------
Pair    | 3.3624     | 6.4721     | 8.3275     |  61.8 | 73.05
Neigh   | 0.0076895  | 0.019721   | 0.027388   |   4.3 |  0.22
Comm    | 0.12628    | 0.8996     | 2.1636     |  63.0 | 10.15
Output  | 0          | 0          | 0          |   0.0 |  0.00
Modify  | 0.0092865  | 0.014481   | 0.018359   |   2.0 |  0.16
Other   |            | 1.454      |            |       | 16.41

Nlocal:        11105.8 ave       15242 max        4380 min
Histogram: 4 0 0 0 4 0 4 4 6 4
Nghost:        10533.4 ave       14021 max        4076 min
Histogram: 4 0 0 0 4 0 4 2 6 6
Neighs:       316853.0 ave      439745 max      114725 min
Histogram: 4 0 0 0 4 0 4 4 7 3

Total # of neighbors = 8238178
Ave neighs/atom = 28.530388
Neighbor list builds = 2
Dangerous builds = 0
The dot product: -2.41246653168066e-07
Setting atom values ...
  1 settings made for x
  1 settings made for y
  1 settings made for z
Setting up cg style minimization ...
  Unit style    : metal
  Current step  : 3877
Per MPI rank memory allocation (min/avg/max) = 6.233 | 10.36 | 11.60 Mbytes
Step PotEng KinEng TotEng v_fx v_fy v_fz 
    3877   -1152448.9            0   -1152448.9 -0.017170175 -0.011519094    0.1184146 
    4000   -1152448.9            0   -1152448.9 1.1644276e-05 1.0628536e-05 -6.0632556e-05 
    4040   -1152448.9            0   -1152448.9 -6.4402187e-06 -1.5020051e-05 -3.0313838e-05 
Loop time of 5.81091 on 26 procs for 163 steps with 288751 atoms

99.9% CPU use with 26 MPI tasks x 1 OpenMP threads

Minimization stats:
  Stopping criterion = linesearch alpha is zero
  Energy initial, next-to-last, final = 
     -1152448.94137277  -1152448.94462636  -1152448.94462636
  Force two-norm initial, final = 0.24261209 0.00018835514
  Force max component initial, final = 0.16881992 5.5560825e-05
  Final line search alpha, max atom move = 0.25 1.3890206e-05
  Iterations, force evaluations = 163 331

MPI task timing breakdown:
Section |  min time  |  avg time  |  max time  |%varavg| %total
---------------------------------------------------------------
Pair    | 2.2106     | 4.2665     | 5.4769     |  50.2 | 73.42
Neigh   | 0          | 0          | 0          |   0.0 |  0.00
Comm    | 0.084792   | 0.5861     | 1.3994     |  51.2 | 10.09
Output  | 0.00044331 | 0.00044489 | 0.00046299 |   0.0 |  0.01
Modify  | 0.0061592  | 0.0095621  | 0.012162   |   1.6 |  0.16
Other   |            | 0.9483     |            |       | 16.32

Nlocal:        11105.8 ave       15264 max        4380 min
Histogram: 4 0 0 0 4 0 4 4 6 4
Nghost:        10533.6 ave       14020 max        4076 min
Histogram: 4 0 0 0 4 0 4 2 6 6
Neighs:       316853.0 ave      440467 max      114725 min
Histogram: 4 0 0 0 4 0 4 4 8 2

Total # of neighbors = 8238184
Ave neighs/atom = 28.530409
Neighbor list builds = 0
Dangerous builds = 0
The dot product: -6.90580115818489e-07
Setting atom values ...
  1 settings made for x
  1 settings made for y
  1 settings made for z
Setting up cg style minimization ...
  Unit style    : metal
  Current step  : 4040
Per MPI rank memory allocation (min/avg/max) = 6.233 | 10.36 | 11.60 Mbytes
Step PotEng KinEng TotEng v_fx v_fy v_fz 
    4040   -1152448.9            0   -1152448.9 -0.010371643 -0.0035876262   0.06056174 
    4169   -1152448.9            0   -1152448.9 -2.3335242e-05 -6.0342811e-05 -9.8709013e-05 
Loop time of 4.70614 on 26 procs for 129 steps with 288751 atoms

99.9% CPU use with 26 MPI tasks x 1 OpenMP threads

Minimization stats:
  Stopping criterion = linesearch alpha is zero
  Energy initial, next-to-last, final = 
     -1152448.92206146  -1152448.92452046  -1152448.92452046
  Force two-norm initial, final = 0.22465602 0.00051854029
  Force max component initial, final = 0.17121105 0.00015525026
  Final line search alpha, max atom move = 0.03125 4.8515705e-06
  Iterations, force evaluations = 129 267

MPI task timing breakdown:
Section |  min time  |  avg time  |  max time  |%varavg| %total
---------------------------------------------------------------
Pair    | 1.7746     | 3.4458     | 4.4366     |  45.4 | 73.22
Neigh   | 0          | 0          | 0          |   0.0 |  0.00
Comm    | 0.06736    | 0.47913    | 1.14       |  45.9 | 10.18
Output  | 0          | 0          | 0          |   0.0 |  0.00
Modify  | 0.0049561  | 0.0077316  | 0.0098178  |   1.5 |  0.16
Other   |            | 0.7735     |            |       | 16.44

Nlocal:        11105.8 ave       15264 max        4380 min
Histogram: 4 0 0 0 4 0 4 4 6 4
Nghost:        10533.6 ave       14020 max        4076 min
Histogram: 4 0 0 0 4 0 4 2 6 6
Neighs:       316853.0 ave      440491 max      114725 min
Histogram: 4 0 0 0 4 0 4 4 8 2

Total # of neighbors = 8238183
Ave neighs/atom = 28.530405
Neighbor list builds = 0
Dangerous builds = 0
The dot product: -1.16618030058555e-06
Setting atom values ...
  1 settings made for x
  1 settings made for y
  1 settings made for z
Setting up cg style minimization ...
  Unit style    : metal
  Current step  : 4169
Per MPI rank memory allocation (min/avg/max) = 6.233 | 10.36 | 11.60 Mbytes
Step PotEng KinEng TotEng v_fx v_fy v_fz 
    4169   -1152448.9            0   -1152448.9 -0.0070458263 -0.0017048314  0.037548816 
    4312   -1152448.9            0   -1152448.9 -2.987911e-06 -7.9162126e-06 -1.151603e-05 
Loop time of 5.0741 on 26 procs for 143 steps with 288751 atoms

100.0% CPU use with 26 MPI tasks x 1 OpenMP threads

Minimization stats:
  Stopping criterion = linesearch alpha is zero
  Energy initial, next-to-last, final = 
     -1152448.90225121  -1152448.90433417  -1152448.90433417
  Force two-norm initial, final = 0.22205967 0.00021400106
  Force max component initial, final = 0.17325729 4.0100035e-05
  Final line search alpha, max atom move = 0.25 1.0025009e-05
  Iterations, force evaluations = 143 289

MPI task timing breakdown:
Section |  min time  |  avg time  |  max time  |%varavg| %total
---------------------------------------------------------------
Pair    | 1.9238     | 3.7205     | 4.7853     |  47.0 | 73.32
Neigh   | 0          | 0          | 0          |   0.0 |  0.00
Comm    | 0.077342   | 0.51307    | 1.2253     |  47.6 | 10.11
Output  | 0          | 0          | 0          |   0.0 |  0.00
Modify  | 0.0053617  | 0.0083529  | 0.010608   |   1.5 |  0.16
Other   |            | 0.8322     |            |       | 16.40

Nlocal:        11105.8 ave       15265 max        4380 min
Histogram: 4 0 0 0 4 0 4 4 6 4
Nghost:        10533.7 ave       14020 max        4076 min
Histogram: 4 0 0 0 4 0 4 2 6 6
Neighs:       316853.0 ave      440525 max      114725 min
Histogram: 4 0 0 0 4 0 4 4 8 2

Total # of neighbors = 8238182
Ave neighs/atom = 28.530402
Neighbor list builds = 0
Dangerous builds = 0
The dot product: -7.19690844143876e-08
Setting atom values ...
  1 settings made for x
  1 settings made for y
  1 settings made for z
Setting up cg style minimization ...
  Unit style    : metal
  Current step  : 4312
Per MPI rank memory allocation (min/avg/max) = 6.233 | 10.36 | 11.60 Mbytes
Step PotEng KinEng TotEng v_fx v_fy v_fz 
    4312   -1152448.9            0   -1152448.9 -0.0050554875 -0.0016259049    0.0235283 
    4436   -1152448.9            0   -1152448.9 4.2736105e-05 5.907796e-05 -3.8409145e-05 
Loop time of 4.48432 on 26 procs for 124 steps with 288751 atoms

100.0% CPU use with 26 MPI tasks x 1 OpenMP threads

Minimization stats:
  Stopping criterion = linesearch alpha is zero
  Energy initial, next-to-last, final = 
     -1152448.88119339  -1152448.88300296  -1152448.88300296
  Force two-norm initial, final = 0.21943056 0.00032499982
  Force max component initial, final = 0.17572096 5.9077960e-05
  Final line search alpha, max atom move = 0.0625 3.6923725e-06
  Iterations, force evaluations = 124 255

MPI task timing breakdown:
Section |  min time  |  avg time  |  max time  |%varavg| %total
---------------------------------------------------------------
Pair    | 1.6959     | 3.2964     | 4.2303     |  44.4 | 73.51
Neigh   | 0          | 0          | 0          |   0.0 |  0.00
Comm    | 0.063039   | 0.45419    | 1.0897     |  45.5 | 10.13
Output  | 0          | 0          | 0          |   0.0 |  0.00
Modify  | 0.0047581  | 0.0073749  | 0.009374   |   1.4 |  0.16
Other   |            | 0.7263     |            |       | 16.20

Nlocal:        11105.8 ave       15263 max        4380 min
Histogram: 4 0 0 0 4 0 4 4 6 4
Nghost:        10533.5 ave       14020 max        4076 min
Histogram: 4 0 0 0 4 0 4 2 6 6
Neighs:       316853.0 ave      440449 max      114725 min
Histogram: 4 0 0 0 4 0 4 4 8 2

Total # of neighbors = 8238180
Ave neighs/atom = 28.530395
Neighbor list builds = 0
Dangerous builds = 0
The dot product: -9.49458706882777e-08
Setting atom values ...
  1 settings made for x
  1 settings made for y
  1 settings made for z
Setting up cg style minimization ...
  Unit style    : metal
  Current step  : 4436
Per MPI rank memory allocation (min/avg/max) = 6.233 | 10.36 | 11.60 Mbytes
Step PotEng KinEng TotEng v_fx v_fy v_fz 
    4436   -1152448.9            0   -1152448.9 -0.0034612423 -0.0014027967  0.014643877 
    4549   -1152448.9            0   -1152448.9 -3.6981825e-05 -5.0092024e-05 3.5920262e-05 
Loop time of 4.13419 on 26 procs for 113 steps with 288751 atoms

100.0% CPU use with 26 MPI tasks x 1 OpenMP threads

Minimization stats:
  Stopping criterion = linesearch alpha is zero
  Energy initial, next-to-last, final = 
     -1152448.85791756  -1152448.85982461  -1152448.85982461
  Force two-norm initial, final = 0.22269031 0.00047505987
  Force max component initial, final = 0.17787222 0.00013189849
  Final line search alpha, max atom move = 0.03125 4.1218279e-06
  Iterations, force evaluations = 113 235

MPI task timing breakdown:
Section |  min time  |  avg time  |  max time  |%varavg| %total
---------------------------------------------------------------
Pair    | 1.5612     | 3.0315     | 3.9001     |  42.6 | 73.33
Neigh   | 0          | 0          | 0          |   0.0 |  0.00
Comm    | 0.062144   | 0.41818    | 1.0082     |  43.2 | 10.12
Output  | 0          | 0          | 0          |   0.0 |  0.00
Modify  | 0.0043994  | 0.0068105  | 0.0086813  |   1.4 |  0.16
Other   |            | 0.6777     |            |       | 16.39

Nlocal:        11105.8 ave       15258 max        4380 min
Histogram: 4 0 0 0 4 0 4 4 6 4
Nghost:        10533.5 ave       14020 max        4076 min
Histogram: 4 0 0 0 4 0 4 2 6 6
Neighs:       316853.0 ave      440286 max      114725 min
Histogram: 4 0 0 0 4 0 4 4 8 2

Total # of neighbors = 8238180
Ave neighs/atom = 28.530395
Neighbor list builds = 0
Dangerous builds = 0
The dot product: -2.53007844773021e-09
Setting atom values ...
  1 settings made for x
  1 settings made for y
  1 settings made for z
Setting up cg style minimization ...
  Unit style    : metal
  Current step  : 4549
Per MPI rank memory allocation (min/avg/max) = 6.233 | 10.36 | 11.60 Mbytes
Step PotEng KinEng TotEng v_fx v_fy v_fz 
    4549   -1152448.8            0   -1152448.8 -0.0026638476 -0.0013137658  0.010378001 
    4696   -1152448.8            0   -1152448.8 -2.4477594e-06 -1.0996126e-05 -2.3693921e-05 
Loop time of 5.30481 on 26 procs for 147 steps with 288751 atoms

100.0% CPU use with 26 MPI tasks x 1 OpenMP threads

Minimization stats:
  Stopping criterion = linesearch alpha is zero
  Energy initial, next-to-last, final = 
     -1152448.83252242  -1152448.83454345  -1152448.83454345
  Force two-norm initial, final = 0.22742089 0.00034977258
  Force max component initial, final = 0.18029288 0.00010399635
  Final line search alpha, max atom move = 0.0625 6.4997720e-06
  Iterations, force evaluations = 147 301

MPI task timing breakdown:
Section |  min time  |  avg time  |  max time  |%varavg| %total
---------------------------------------------------------------
Pair    | 2.0089     | 3.8896     | 5.005      |  48.2 | 73.32
Neigh   | 0          | 0          | 0          |   0.0 |  0.00
Comm    | 0.074451   | 0.53616    | 1.2697     |  48.7 | 10.11
Output  | 0          | 0          | 0          |   0.0 |  0.00
Modify  | 0.0055856  | 0.0087083  | 0.011007   |   1.5 |  0.16
Other   |            | 0.8703     |            |       | 16.41

Nlocal:        11105.8 ave       15253 max        4380 min
Histogram: 4 0 0 0 4 0 4 4 6 4
Nghost:        10533.5 ave       14020 max        4076 min
Histogram: 4 0 0 0 4 0 4 2 6 6
Neighs:       316853.0 ave      440116 max      114725 min
Histogram: 4 0 0 0 4 0 4 4 8 2

Total # of neighbors = 8238177
Ave neighs/atom = 28.530384
Neighbor list builds = 0
Dangerous builds = 0
The dot product: -1.35715950665329e-08
Setting atom values ...
  1 settings made for x
  1 settings made for y
  1 settings made for z
Setting up cg style minimization ...
  Unit style    : metal
  Current step  : 4696
Per MPI rank memory allocation (min/avg/max) = 6.233 | 10.36 | 11.60 Mbytes
Step PotEng KinEng TotEng v_fx v_fy v_fz 
    4696   -1152448.8            0   -1152448.8 -0.0021925901 -0.0012443559 0.0079908822 
    4808   -1152448.8            0   -1152448.8 -2.7948993e-07 2.0193297e-05 6.983214e-05 
Loop time of 3.94071 on 26 procs for 112 steps with 288751 atoms

100.0% CPU use with 26 MPI tasks x 1 OpenMP threads

Minimization stats:
  Stopping criterion = energy tolerance
  Energy initial, next-to-last, final = 
     -1152448.80490636   -1152448.8070282   -1152448.8070282
  Force two-norm initial, final = 0.23200938 0.0004678534
  Force max component initial, final = 0.18253273 0.0001405353
  Final line search alpha, max atom move = 1.0000000 0.0001405353
  Iterations, force evaluations = 112 224

MPI task timing breakdown:
Section |  min time  |  avg time  |  max time  |%varavg| %total
---------------------------------------------------------------
Pair    | 1.4969     | 2.8875     | 3.7146     |  41.4 | 73.27
Neigh   | 0          | 0          | 0          |   0.0 |  0.00
Comm    | 0.056357   | 0.39866    | 0.9455     |  41.9 | 10.12
Output  | 0          | 0          | 0          |   0.0 |  0.00
Modify  | 0.0041494  | 0.006475   | 0.0082463  |   1.3 |  0.16
Other   |            | 0.6481     |            |       | 16.45

Nlocal:        11105.8 ave       15242 max        4380 min
Histogram: 4 0 0 0 4 0 4 4 6 4
Nghost:        10533.5 ave       14020 max        4076 min
Histogram: 4 0 0 0 4 0 4 2 6 6
Neighs:       316853.0 ave      439767 max      114725 min
Histogram: 4 0 0 0 4 0 4 4 7 3

Total # of neighbors = 8238177
Ave neighs/atom = 28.530384
Neighbor list builds = 0
Dangerous builds = 0
The dot product: -2.68675053753685e-09
Setting atom values ...
  1 settings made for x
  1 settings made for y
  1 settings made for z
Setting up cg style minimization ...
  Unit style    : metal
  Current step  : 4808
Per MPI rank memory allocation (min/avg/max) = 6.233 | 10.36 | 11.60 Mbytes
Step PotEng KinEng TotEng v_fx v_fy v_fz 
    4808   -1152448.8            0   -1152448.8 -0.0020599976 -0.0014383238 0.0066333477 
    4928   -1152448.8            0   -1152448.8 4.0810732e-05 6.001856e-05  -2.4794e-05 
Loop time of 4.23627 on 26 procs for 120 steps with 288751 atoms

100.0% CPU use with 26 MPI tasks x 1 OpenMP threads

Minimization stats:
  Stopping criterion = energy tolerance
  Energy initial, next-to-last, final = 
     -1152448.77498806  -1152448.77718981  -1152448.77718981
  Force two-norm initial, final = 0.23609371 0.0004242612
  Force max component initial, final = 0.18486207 0.00013821924
  Final line search alpha, max atom move = 1.0000000 0.00013821924
  Iterations, force evaluations = 120 240

MPI task timing breakdown:
Section |  min time  |  avg time  |  max time  |%varavg| %total
---------------------------------------------------------------
Pair    | 1.6009     | 3.0996     | 3.9924     |  43.0 | 73.17
Neigh   | 0          | 0          | 0          |   0.0 |  0.00
Comm    | 0.061787   | 0.43213    | 1.0216     |  43.3 | 10.20
Output  | 0          | 0          | 0          |   0.0 |  0.00
Modify  | 0.0044533  | 0.0069533  | 0.0087953  |   1.4 |  0.16
Other   |            | 0.6975     |            |       | 16.47

Nlocal:        11105.8 ave       15241 max        4380 min
Histogram: 4 0 0 0 4 0 4 4 6 4
Nghost:        10533.6 ave       14021 max        4076 min
Histogram: 4 0 0 0 4 0 4 2 6 6
Neighs:       316853.0 ave      439731 max      114725 min
Histogram: 4 0 0 0 4 0 4 4 7 3

Total # of neighbors = 8238169
Ave neighs/atom = 28.530357
Neighbor list builds = 0
Dangerous builds = 0
The dot product: 7.7580755869797e-08
Setting atom values ...
  1 settings made for x
  1 settings made for y
  1 settings made for z
Setting up cg style minimization ...
  Unit style    : metal
  Current step  : 4928
Per MPI rank memory allocation (min/avg/max) = 6.233 | 10.36 | 11.60 Mbytes
Step PotEng KinEng TotEng v_fx v_fy v_fz 
    4928   -1152448.7            0   -1152448.7 -0.0021296847 -0.0018036833 0.0058353094 
    5000   -1152448.7            0   -1152448.7 -6.2274424e-06 -1.3261474e-05 -1.0019406e-05 
    5078   -1152448.7            0   -1152448.7 1.4605394e-06 1.7801951e-06 -2.1599382e-06 
Loop time of 5.39331 on 26 procs for 150 steps with 288751 atoms

100.0% CPU use with 26 MPI tasks x 1 OpenMP threads

Minimization stats:
  Stopping criterion = linesearch alpha is zero
  Energy initial, next-to-last, final = 
     -1152448.74271209  -1152448.74496885  -1152448.74496885
  Force two-norm initial, final = 0.23939162 0.00032456572
  Force max component initial, final = 0.18718161 9.8866030e-05
  Final line search alpha, max atom move = 0.0625 6.1791269e-06
  Iterations, force evaluations = 150 307

MPI task timing breakdown:
Section |  min time  |  avg time  |  max time  |%varavg| %total
---------------------------------------------------------------
Pair    | 2.047      | 3.9571     | 5.0875     |  48.3 | 73.37
Neigh   | 0          | 0          | 0          |   0.0 |  0.00
Comm    | 0.076903   | 0.54689    | 1.3135     |  49.4 | 10.14
Output  | 0.00035331 | 0.00035455 | 0.00036929 |   0.0 |  0.01
Modify  | 0.0057148  | 0.0088887  | 0.011257   |   1.6 |  0.16
Other   |            | 0.8801     |            |       | 16.32

Nlocal:        11105.8 ave       15240 max        4380 min
Histogram: 4 0 0 0 4 0 4 4 6 4
Nghost:        10533.7 ave       14021 max        4076 min
Histogram: 4 0 0 0 4 0 4 2 6 6
Neighs:       316853.0 ave      439688 max      114725 min
Histogram: 4 0 0 0 4 0 4 4 7 3

Total # of neighbors = 8238166
Ave neighs/atom = 28.530346
Neighbor list builds = 0
Dangerous builds = 0
The dot product: 3.27924623545878e-09
Setting atom values ...
  1 settings made for x
  1 settings made for y
  1 settings made for z
Setting up cg style minimization ...
  Unit style    : metal
  Current step  : 5078
Per MPI rank memory allocation (min/avg/max) = 6.233 | 10.36 | 11.60 Mbytes
Step PotEng KinEng TotEng v_fx v_fy v_fz 
    5078   -1152448.7            0   -1152448.7 -0.0024239418 -0.0023431059 0.0057143616 
    5238   -1152448.7            0   -1152448.7 4.7693506e-07 -1.5132033e-06 -7.842952e-06 
Loop time of 5.79366 on 26 procs for 160 steps with 288751 atoms

100.0% CPU use with 26 MPI tasks x 1 OpenMP threads

Minimization stats:
  Stopping criterion = energy tolerance
  Energy initial, next-to-last, final = 
     -1152448.70804453  -1152448.71033321  -1152448.71033321
  Force two-norm initial, final = 0.24179816 0.0002902121
  Force max component initial, final = 0.1892933 8.7335632e-05
  Final line search alpha, max atom move = 1.0000000 8.7335632e-05
  Iterations, force evaluations = 160 328

MPI task timing breakdown:
Section |  min time  |  avg time  |  max time  |%varavg| %total
---------------------------------------------------------------
Pair    | 2.178      | 4.2364     | 5.4636     |  50.4 | 73.12
Neigh   | 0          | 0          | 0          |   0.0 |  0.00
Comm    | 0.08345    | 0.59056    | 1.4138     |  50.9 | 10.19
Output  | 0          | 0          | 0          |   0.0 |  0.00
Modify  | 0.0061065  | 0.0094949  | 0.012051   |   1.6 |  0.16
Other   |            | 0.9572     |            |       | 16.52

Nlocal:        11105.8 ave       15240 max        4380 min
Histogram: 4 0 0 0 4 0 4 4 6 4
Nghost:        10533.7 ave       14021 max        4076 min
Histogram: 4 0 0 0 4 0 4 2 6 6
Neighs:       316852.0 ave      439688 max      114725 min
Histogram: 4 0 0 0 4 0 4 4 7 3

Total # of neighbors = 8238165
Ave neighs/atom = 28.530343
Neighbor list builds = 0
Dangerous builds = 0
The dot product: 4.7441691012169e-09
Setting atom values ...
  1 settings made for x
  1 settings made for y
  1 settings made for z
Setting up cg style minimization ...
  Unit style    : metal
  Current step  : 5238
Per MPI rank memory allocation (min/avg/max) = 6.233 | 10.36 | 11.60 Mbytes
Step PotEng KinEng TotEng v_fx v_fy v_fz 
    5238   -1152448.7            0   -1152448.7 -0.0028134774 -0.0029379397 0.0059537002 
    5384   -1152448.7            0   -1152448.7 5.5661762e-06 5.2752879e-06 -1.361502e-05 
Loop time of 5.24887 on 26 procs for 146 steps with 288751 atoms

100.0% CPU use with 26 MPI tasks x 1 OpenMP threads

Minimization stats:
  Stopping criterion = linesearch alpha is zero
  Energy initial, next-to-last, final = 
     -1152448.67097009  -1152448.67327538  -1152448.67327538
  Force two-norm initial, final = 0.24396345 0.00024233268
  Force max component initial, final = 0.19187619 9.4189976e-05
  Final line search alpha, max atom move = 0.125 1.1773747e-05
  Iterations, force evaluations = 146 299

MPI task timing breakdown:
Section |  min time  |  avg time  |  max time  |%varavg| %total
---------------------------------------------------------------
Pair    | 1.9887     | 3.8511     | 4.9505     |  47.9 | 73.37
Neigh   | 0          | 0          | 0          |   0.0 |  0.00
Comm    | 0.075554   | 0.53054    | 1.2728     |  48.6 | 10.11
Output  | 0          | 0          | 0          |   0.0 |  0.00
Modify  | 0.0055786  | 0.0086329  | 0.010982   |   1.5 |  0.16
Other   |            | 0.8586     |            |       | 16.36

Nlocal:        11105.8 ave       15240 max        4380 min
Histogram: 4 0 0 0 4 0 4 4 6 4
Nghost:        10533.5 ave       14021 max        4076 min
Histogram: 4 0 0 0 4 0 4 2 6 6
Neighs:       316852.0 ave      439691 max      114725 min
Histogram: 4 0 0 0 4 0 4 4 7 3

Total # of neighbors = 8238164
Ave neighs/atom = 28.530339
Neighbor list builds = 0
Dangerous builds = 0
The dot product: 1.56958975876949e-08
Setting atom values ...
  1 settings made for x
  1 settings made for y
  1 settings made for z
Setting up cg style minimization ...
  Unit style    : metal
  Current step  : 5384
Per MPI rank memory allocation (min/avg/max) = 6.233 | 10.36 | 11.60 Mbytes
Step PotEng KinEng TotEng v_fx v_fy v_fz 
    5384   -1152448.6            0   -1152448.6 -0.0033142002 -0.003633831 0.0064938612 
    5529   -1152448.6            0   -1152448.6 3.2491664e-06 7.9165021e-06 8.5988136e-06 
Loop time of 5.20114 on 26 procs for 145 steps with 288751 atoms

100.0% CPU use with 26 MPI tasks x 1 OpenMP threads

Minimization stats:
  Stopping criterion = linesearch alpha is zero
  Energy initial, next-to-last, final = 
     -1152448.63150292  -1152448.63380847  -1152448.63380847
  Force two-norm initial, final = 0.2454528 0.00025559372
  Force max component initial, final = 0.19411813 9.0386009e-05
  Final line search alpha, max atom move = 0.125 1.1298251e-05
  Iterations, force evaluations = 145 295

MPI task timing breakdown:
Section |  min time  |  avg time  |  max time  |%varavg| %total
---------------------------------------------------------------
Pair    | 1.962      | 3.8103     | 4.9037     |  47.6 | 73.26
Neigh   | 0          | 0          | 0          |   0.0 |  0.00
Comm    | 0.07331    | 0.52902    | 1.2574     |  48.4 | 10.17
Output  | 0          | 0          | 0          |   0.0 |  0.00
Modify  | 0.0054607  | 0.0085547  | 0.010811   |   1.5 |  0.16
Other   |            | 0.8533     |            |       | 16.41

Nlocal:        11105.8 ave       15240 max        4380 min
Histogram: 4 0 0 0 4 0 4 4 6 4
Nghost:        10533.4 ave       14021 max        4076 min
Histogram: 4 0 0 0 4 0 4 2 6 6
Neighs:       316852.0 ave      439692 max      114725 min
Histogram: 4 0 0 0 4 0 4 4 7 3

Total # of neighbors = 8238163
Ave neighs/atom = 28.530336
Neighbor list builds = 0
Dangerous builds = 0
The dot product: -2.58653045934135e-09
Setting atom values ...
  1 settings made for x
  1 settings made for y
  1 settings made for z
Setting up cg style minimization ...
  Unit style    : metal
  Current step  : 5529
Per MPI rank memory allocation (min/avg/max) = 6.233 | 10.36 | 11.60 Mbytes
Step PotEng KinEng TotEng v_fx v_fy v_fz 
    5529   -1152448.6            0   -1152448.6 -0.0039734046 -0.0044828935 0.0074311421 
    5653   -1152448.6            0   -1152448.6 3.6727071e-06 3.2899845e-06 -9.82042e-06 
Loop time of 4.48306 on 26 procs for 124 steps with 288751 atoms

100.0% CPU use with 26 MPI tasks x 1 OpenMP threads

Minimization stats:
  Stopping criterion = linesearch alpha is zero
  Energy initial, next-to-last, final = 
     -1152448.58966338  -1152448.59195831  -1152448.59195831
  Force two-norm initial, final = 0.24706282 0.0003764542
  Force max component initial, final = 0.19677674 0.00013765374
  Final line search alpha, max atom move = 0.0625 8.6033587e-06
[...]
Histogram: 4 0 0 0 4 0 4 4 8 2
Nghost:        10533.9 ave       14027 max        4076 min
Histogram: 4 0 0 0 4 0 4 2 6 6
Neighs:       316853.0 ave      441250 max      114725 min
Histogram: 4 0 0 0 4 0 4 4 8 2

Total # of neighbors = 8238190
Ave neighs/atom = 28.530429
Neighbor list builds = 0
Dangerous builds = 0
The dot product: 1.25324209065508e-07
Setting atom values ...
  1 settings made for x
  1 settings made for y
  1 settings made for z
Setting up cg style minimization ...
  Unit style    : metal
  Current step  : 14569
Per MPI rank memory allocation (min/avg/max) = 6.233 | 10.36 | 11.60 Mbytes
Step PotEng KinEng TotEng v_fx v_fy v_fz 
   14569   -1152449.3            0   -1152449.3  0.017195372  0.037884429  0.023160254 
   14712   -1152449.3            0   -1152449.3 5.0505416e-06 -4.5656586e-05 2.4378646e-07 
Loop time of 6.01173 on 26 procs for 143 steps with 288751 atoms

99.9% CPU use with 26 MPI tasks x 1 OpenMP threads

Minimization stats:
  Stopping criterion = linesearch alpha is zero
  Energy initial, next-to-last, final = 
     -1152449.32579203  -1152449.32681279  -1152449.32681279
  Force two-norm initial, final = 0.13947375 0.00032078619
  Force max component initial, final = 0.059518273 4.5656586e-05
  Final line search alpha, max atom move = 0.0625 2.8535366e-06
  Iterations, force evaluations = 143 293

MPI task timing breakdown:
Section |  min time  |  avg time  |  max time  |%varavg| %total
---------------------------------------------------------------
Pair    | 2.3084     | 4.4346     | 5.7289     |  51.5 | 73.77
Neigh   | 0          | 0          | 0          |   0.0 |  0.00
Comm    | 0.094293   | 0.61303    | 1.4148     |  50.3 | 10.20
Output  | 0          | 0          | 0          |   0.0 |  0.00
Modify  | 0.0064397  | 0.0099068  | 0.012567   |   1.6 |  0.16
Other   |            | 0.9542     |            |       | 15.87

Nlocal:        11105.8 ave       15294 max        4380 min
Histogram: 4 0 0 0 4 0 4 4 8 2
Nghost:        10533.9 ave       14027 max        4076 min
Histogram: 4 0 0 0 4 0 4 2 6 6
Neighs:       316854.0 ave      441269 max      114725 min
Histogram: 4 0 0 0 4 0 4 4 8 2

Total # of neighbors = 8238191
Ave neighs/atom = 28.530433
Neighbor list builds = 0
Dangerous builds = 0
The dot product: -1.09506310068659e-07
Setting atom values ...
  1 settings made for x
  1 settings made for y
  1 settings made for z
Setting up cg style minimization ...
  Unit style    : metal
  Current step  : 14712
Per MPI rank memory allocation (min/avg/max) = 6.233 | 10.36 | 11.60 Mbytes
Step PotEng KinEng TotEng v_fx v_fy v_fz 
   14712   -1152449.3            0   -1152449.3  0.016714249  0.036978795  0.022620397 
   14875   -1152449.3            0   -1152449.3 -1.4989053e-05 2.1832493e-06 -1.6138078e-05 
Loop time of 6.86738 on 26 procs for 163 steps with 288751 atoms

99.9% CPU use with 26 MPI tasks x 1 OpenMP threads

Minimization stats:
  Stopping criterion = linesearch alpha is zero
  Energy initial, next-to-last, final = 
     -1152449.31829194  -1152449.31929586  -1152449.31929586
  Force two-norm initial, final = 0.13819369 0.00022675849
  Force max component initial, final = 0.057690207 1.6138078e-05
  Final line search alpha, max atom move = 0.125 2.0172598e-06
  Iterations, force evaluations = 163 333

MPI task timing breakdown:
Section |  min time  |  avg time  |  max time  |%varavg| %total
---------------------------------------------------------------
Pair    | 2.6141     | 5.0395     | 6.5452     |  54.7 | 73.38
Neigh   | 0          | 0          | 0          |   0.0 |  0.00
Comm    | 0.10462    | 0.7063     | 1.6157     |  53.1 | 10.28
Output  | 0          | 0          | 0          |   0.0 |  0.00
Modify  | 0.0074432  | 0.011252   | 0.014399   |   1.7 |  0.16
Other   |            | 1.11       |            |       | 16.17

Nlocal:        11105.8 ave       15294 max        4380 min
Histogram: 4 0 0 0 4 0 4 4 8 2
Nghost:        10534.0 ave       14027 max        4076 min
Histogram: 4 0 0 0 4 0 4 2 6 6
Neighs:       316853.0 ave      441265 max      114725 min
Histogram: 4 0 0 0 4 0 4 4 8 2

Total # of neighbors = 8238189
Ave neighs/atom = 28.530426
Neighbor list builds = 0
Dangerous builds = 0
The dot product: -2.25076112648274e-08
Setting atom values ...
  1 settings made for x
  1 settings made for y
  1 settings made for z
Setting up cg style minimization ...
  Unit style    : metal
  Current step  : 14875
Per MPI rank memory allocation (min/avg/max) = 6.233 | 10.36 | 11.60 Mbytes
Step PotEng KinEng TotEng v_fx v_fy v_fz 
   14875   -1152449.3            0   -1152449.3  0.016556081  0.035459089  0.022352843 
   15000   -1152449.3            0   -1152449.3 6.0972994e-05 -2.923321e-05 6.3287201e-05 
   15013   -1152449.3            0   -1152449.3 9.9347036e-05 -3.808994e-05 0.00010425407 
Loop time of 5.64958 on 26 procs for 138 steps with 288751 atoms

99.9% CPU use with 26 MPI tasks x 1 OpenMP threads

Minimization stats:
  Stopping criterion = energy tolerance
  Energy initial, next-to-last, final = 
     -1152449.30930923      -1152449.3103      -1152449.3103
  Force two-norm initial, final = 0.13704231 0.00038307478
  Force max component initial, final = 0.055912493 0.00010425407
  Final line search alpha, max atom move = 1.0000000 0.00010425407
  Iterations, force evaluations = 138 276

MPI task timing breakdown:
Section |  min time  |  avg time  |  max time  |%varavg| %total
---------------------------------------------------------------
Pair    | 2.1666     | 4.1761     | 5.3875     |  49.9 | 73.92
Neigh   | 0          | 0          | 0          |   0.0 |  0.00
Comm    | 0.082347   | 0.5759     | 1.3496     |  49.4 | 10.19
Output  | 0.00018382 | 0.00019065 | 0.00034522 |   0.0 |  0.00
Modify  | 0.0061147  | 0.0093035  | 0.011873   |   1.6 |  0.16
Other   |            | 0.8881     |            |       | 15.72

Nlocal:        11105.8 ave       15294 max        4380 min
Histogram: 4 0 0 0 4 0 4 4 8 2
Nghost:        10534.0 ave       14027 max        4076 min
Histogram: 4 0 0 0 4 0 4 2 6 6
Neighs:       316853.0 ave      441274 max      114725 min
Histogram: 4 0 0 0 4 0 4 4 8 2

Total # of neighbors = 8238190
Ave neighs/atom = 28.530429
Neighbor list builds = 0
Dangerous builds = 0
The dot product: 9.89892302275701e-08
Setting atom values ...
  1 settings made for x
  1 settings made for y
  1 settings made for z
Setting up cg style minimization ...
  Unit style    : metal
  Current step  : 15013
Per MPI rank memory allocation (min/avg/max) = 6.233 | 10.36 | 11.60 Mbytes
Step PotEng KinEng TotEng v_fx v_fy v_fz 
   15013   -1152449.3            0   -1152449.3  0.016855144   0.03325693  0.022494735 
   15163   -1152449.3            0   -1152449.3 4.8888198e-05 -7.9190309e-05 4.4038812e-05 
Loop time of 6.30196 on 26 procs for 150 steps with 288751 atoms

99.9% CPU use with 26 MPI tasks x 1 OpenMP threads

Minimization stats:
  Stopping criterion = linesearch alpha is zero
  Energy initial, next-to-last, final = 
      -1152449.2988225  -1152449.29980242  -1152449.29980242
  Force two-norm initial, final = 0.13601287 0.00031393458
  Force max component initial, final = 0.054108024 7.9190309e-05
  Final line search alpha, max atom move = 0.125 9.8987886e-06
  Iterations, force evaluations = 150 305

MPI task timing breakdown:
Section |  min time  |  avg time  |  max time  |%varavg| %total
---------------------------------------------------------------
Pair    | 2.4035     | 4.6228     | 5.9993     |  52.5 | 73.35
Neigh   | 0          | 0          | 0          |   0.0 |  0.00
Comm    | 0.090649   | 0.64326    | 1.4817     |  50.9 | 10.21
Output  | 0          | 0          | 0          |   0.0 |  0.00
Modify  | 0.0066798  | 0.010295   | 0.013104   |   1.6 |  0.16
Other   |            | 1.026      |            |       | 16.27

Nlocal:        11105.8 ave       15294 max        4380 min
Histogram: 4 0 0 0 4 0 4 4 8 2
Nghost:        10534.0 ave       14027 max        4076 min
Histogram: 4 0 0 0 4 0 4 2 6 6
Neighs:       316853.0 ave      441265 max      114725 min
Histogram: 4 0 0 0 4 0 4 4 8 2

Total # of neighbors = 8238189
Ave neighs/atom = 28.530426
Neighbor list builds = 0
Dangerous builds = 0
The dot product: -7.8504673770515e-08
Setting atom values ...
  1 settings made for x
  1 settings made for y
  1 settings made for z
Setting up cg style minimization ...
  Unit style    : metal
  Current step  : 15163
Per MPI rank memory allocation (min/avg/max) = 6.233 | 10.36 | 11.60 Mbytes
Step PotEng KinEng TotEng v_fx v_fy v_fz 
   15163   -1152449.3            0   -1152449.3  0.017350859  0.030574171  0.022782443 
   15324   -1152449.3            0   -1152449.3 -3.7660327e-08 -3.5667184e-05 -4.4005902e-06 
Loop time of 6.58906 on 26 procs for 161 steps with 288751 atoms

99.9% CPU use with 26 MPI tasks x 1 OpenMP threads

Minimization stats:
  Stopping criterion = energy tolerance
  Energy initial, next-to-last, final = 
     -1152449.28681438  -1152449.28778096  -1152449.28778096
  Force two-norm initial, final = 0.13492913 0.00024725959
  Force max component initial, final = 0.052219163 5.2423122e-05
  Final line search alpha, max atom move = 1.0000000 5.2423122e-05
  Iterations, force evaluations = 161 322

MPI task timing breakdown:
Section |  min time  |  avg time  |  max time  |%varavg| %total
---------------------------------------------------------------
Pair    | 2.5271     | 4.8717     | 6.2827     |  54.0 | 73.94
Neigh   | 0          | 0          | 0          |   0.0 |  0.00
Comm    | 0.097587   | 0.67594    | 1.5573     |  52.9 | 10.26
Output  | 0          | 0          | 0          |   0.0 |  0.00
Modify  | 0.0070916  | 0.010831   | 0.013872   |   1.7 |  0.16
Other   |            | 1.031      |            |       | 15.64

Nlocal:        11105.8 ave       15294 max        4380 min
Histogram: 4 0 0 0 4 0 4 4 8 2
Nghost:        10533.7 ave       14026 max        4076 min
Histogram: 4 0 0 0 4 0 4 2 6 6
Neighs:       316853.0 ave      441245 max      114725 min
Histogram: 4 0 0 0 4 0 4 4 8 2

Total # of neighbors = 8238188
Ave neighs/atom = 28.530422
Neighbor list builds = 0
Dangerous builds = 0
The dot product: -6.94467330268481e-08
Setting atom values ...
  1 settings made for x
  1 settings made for y
  1 settings made for z
Setting up cg style minimization ...
  Unit style    : metal
  Current step  : 15324
Per MPI rank memory allocation (min/avg/max) = 6.233 | 10.36 | 11.60 Mbytes
Step PotEng KinEng TotEng v_fx v_fy v_fz 
   15324   -1152449.3            0   -1152449.3  0.018281317  0.027657923  0.023508647 
   15465   -1152449.3            0   -1152449.3 1.6028904e-05 -2.9166155e-05 1.4012813e-05 
Loop time of 6.0161 on 26 procs for 141 steps with 288751 atoms

99.9% CPU use with 26 MPI tasks x 1 OpenMP threads

Minimization stats:
  Stopping criterion = linesearch alpha is zero
  Energy initial, next-to-last, final = 
     -1152449.27326821  -1152449.27422023  -1152449.27422023
  Force two-norm initial, final = 0.13401646 0.00035613123
  Force max component initial, final = 0.050362863 2.9166155e-05
  Final line search alpha, max atom move = 0.0625 1.8228847e-06
  Iterations, force evaluations = 141 289

MPI task timing breakdown:
Section |  min time  |  avg time  |  max time  |%varavg| %total
---------------------------------------------------------------
Pair    | 2.2662     | 4.3797     | 5.7345     |  51.4 | 72.80
Neigh   | 0          | 0          | 0          |   0.0 |  0.00
Comm    | 0.085559   | 0.62112    | 1.4056     |  48.7 | 10.32
Output  | 0          | 0          | 0          |   0.0 |  0.00
Modify  | 0.0063171  | 0.0097614  | 0.012491   |   1.6 |  0.16
Other   |            | 1.005      |            |       | 16.71

Nlocal:        11105.8 ave       15294 max        4380 min
Histogram: 4 0 0 0 4 0 4 4 8 2
Nghost:        10533.7 ave       14026 max        4076 min
Histogram: 4 0 0 0 4 0 4 2 6 6
Neighs:       316854.0 ave      441245 max      114725 min
Histogram: 4 0 0 0 4 0 4 4 8 2

Total # of neighbors = 8238191
Ave neighs/atom = 28.530433
Neighbor list builds = 0
Dangerous builds = 0
The dot product: -1.62658374803293e-08
Setting atom values ...
  1 settings made for x
  1 settings made for y
  1 settings made for z
Setting up cg style minimization ...
  Unit style    : metal
  Current step  : 15465
Per MPI rank memory allocation (min/avg/max) = 6.233 | 10.36 | 11.60 Mbytes
Step PotEng KinEng TotEng v_fx v_fy v_fz 
   15465   -1152449.3            0   -1152449.3  0.019767784  0.024620393  0.024824588 
   15614   -1152449.3            0   -1152449.3  1.12465e-05 4.5720674e-05 1.8078744e-05 
Loop time of 6.24696 on 26 procs for 149 steps with 288751 atoms

99.9% CPU use with 26 MPI tasks x 1 OpenMP threads

Minimization stats:
  Stopping criterion = linesearch alpha is zero
  Energy initial, next-to-last, final = 
     -1152449.25817704  -1152449.25911045  -1152449.25911045
  Force two-norm initial, final = 0.13333685 0.00032288794
  Force max component initial, final = 0.048924531 4.7300739e-05
  Final line search alpha, max atom move = 0.0625 2.9562962e-06
  Iterations, force evaluations = 149 305

MPI task timing breakdown:
Section |  min time  |  avg time  |  max time  |%varavg| %total
---------------------------------------------------------------
Pair    | 2.3982     | 4.6115     | 5.9543     |  52.5 | 73.82
Neigh   | 0          | 0          | 0          |   0.0 |  0.00
Comm    | 0.097303   | 0.64113    | 1.4832     |  51.7 | 10.26
Output  | 0          | 0          | 0          |   0.0 |  0.00
Modify  | 0.006692   | 0.010283   | 0.013126   |   1.7 |  0.16
Other   |            | 0.9841     |            |       | 15.75

Nlocal:        11105.8 ave       15294 max        4380 min
Histogram: 4 0 0 0 4 0 4 4 8 2
Nghost:        10533.7 ave       14026 max        4076 min
Histogram: 4 0 0 0 4 0 4 2 6 6
Neighs:       316853.0 ave      441244 max      114725 min
Histogram: 4 0 0 0 4 0 4 4 8 2

Total # of neighbors = 8238190
Ave neighs/atom = 28.530429
Neighbor list builds = 0
Dangerous builds = 0
The dot product: 9.83785082342276e-08
Setting atom values ...
  1 settings made for x
  1 settings made for y
  1 settings made for z
Setting up cg style minimization ...
  Unit style    : metal
  Current step  : 15614
Per MPI rank memory allocation (min/avg/max) = 6.233 | 10.36 | 11.60 Mbytes
Step PotEng KinEng TotEng v_fx v_fy v_fz 
   15614   -1152449.2            0   -1152449.2  0.021951268  0.021699299  0.026920187 
   15789   -1152449.2            0   -1152449.2 2.4517869e-05 2.5861473e-05 3.0272165e-05 
Loop time of 7.358 on 26 procs for 175 steps with 288751 atoms

99.8% CPU use with 26 MPI tasks x 1 OpenMP threads

Minimization stats:
  Stopping criterion = linesearch alpha is zero
  Energy initial, next-to-last, final = 
     -1152449.24154293  -1152449.24245292  -1152449.24245292
  Force two-norm initial, final = 0.13299826 0.00016256775
  Force max component initial, final = 0.048940543 3.3342844e-05
  Final line search alpha, max atom move = 0.25 8.3357110e-06
  Iterations, force evaluations = 175 355

MPI task timing breakdown:
Section |  min time  |  avg time  |  max time  |%varavg| %total
---------------------------------------------------------------
Pair    | 2.7946     | 5.3768     | 7.0043     |  56.5 | 73.07
Neigh   | 0          | 0          | 0          |   0.0 |  0.00
Comm    | 0.1043     | 0.75644    | 1.7169     |  54.2 | 10.28
Output  | 0          | 0          | 0          |   0.0 |  0.00
Modify  | 0.0078771  | 0.011996   | 0.015326   |   1.8 |  0.16
Other   |            | 1.213      |            |       | 16.48

Nlocal:        11105.8 ave       15294 max        4380 min
Histogram: 4 0 0 0 4 0 4 4 8 2
Nghost:        10533.8 ave       14027 max        4076 min
Histogram: 4 0 0 0 4 0 4 2 6 6
Neighs:       316853.0 ave      441244 max      114725 min
Histogram: 4 0 0 0 4 0 4 4 8 2

Total # of neighbors = 8238189
Ave neighs/atom = 28.530426
Neighbor list builds = 0
Dangerous builds = 0
The dot product: 1.03584335779154e-07
Setting atom values ...
  1 settings made for x
  1 settings made for y
  1 settings made for z
Setting up cg style minimization ...
  Unit style    : metal
  Current step  : 15789
Per MPI rank memory allocation (min/avg/max) = 6.233 | 10.36 | 11.60 Mbytes
Step PotEng KinEng TotEng v_fx v_fy v_fz 
   15789   -1152449.2            0   -1152449.2  0.025111079  0.018980553  0.030123703 
   15930   -1152449.2            0   -1152449.2 1.5070044e-05 -1.6732702e-05 1.4513689e-05 
Loop time of 5.92661 on 26 procs for 141 steps with 288751 atoms

99.9% CPU use with 26 MPI tasks x 1 OpenMP threads

Minimization stats:
  Stopping criterion = linesearch alpha is zero
  Energy initial, next-to-last, final = 
     -1152449.22339268   -1152449.2242771   -1152449.2242771
  Force two-norm initial, final = 0.13322756 0.00035822958
  Force max component initial, final = 0.048853717 4.4112381e-05
  Final line search alpha, max atom move = 0.0625 2.7570238e-06
  Iterations, force evaluations = 141 289

MPI task timing breakdown:
Section |  min time  |  avg time  |  max time  |%varavg| %total
---------------------------------------------------------------
Pair    | 2.2753     | 4.3741     | 5.6447     |  51.1 | 73.80
Neigh   | 0          | 0          | 0          |   0.0 |  0.00
Comm    | 0.094871   | 0.60486    | 1.4055     |  50.2 | 10.21
Output  | 0          | 0          | 0          |   0.0 |  0.00
Modify  | 0.0063177  | 0.009778   | 0.012503   |   1.6 |  0.16
Other   |            | 0.9379     |            |       | 15.83

Nlocal:        11105.8 ave       15294 max        4380 min
Histogram: 4 0 0 0 4 0 4 4 8 2
Nghost:        10533.7 ave       14027 max        4076 min
Histogram: 4 0 0 0 4 0 4 2 6 6
Neighs:       316853.0 ave      441244 max      114725 min
Histogram: 4 0 0 0 4 0 4 4 8 2

Total # of neighbors = 8238187
Ave neighs/atom = 28.530419
Neighbor list builds = 0
Dangerous builds = 0
The dot product: 2.98911390169818e-08
Setting atom values ...
  1 settings made for x
  1 settings made for y
  1 settings made for z
Setting up cg style minimization ...
  Unit style    : metal
  Current step  : 15930
Per MPI rank memory allocation (min/avg/max) = 6.233 | 10.36 | 11.60 Mbytes
Step PotEng KinEng TotEng v_fx v_fy v_fz 
   15930   -1152449.2            0   -1152449.2  0.029766641  0.016663525  0.035052881 
   16000   -1152449.2            0   -1152449.2 -0.00023242762 -0.00010426842 -0.00027040499 
   16074   -1152449.2            0   -1152449.2 -5.9902387e-05 -3.2739682e-05 -7.043906e-05 
Loop time of 5.91876 on 26 procs for 144 steps with 288751 atoms

99.9% CPU use with 26 MPI tasks x 1 OpenMP threads

Minimization stats:
  Stopping criterion = energy tolerance
  Energy initial, next-to-last, final = 
     -1152449.20380039  -1152449.20466592  -1152449.20466592
  Force two-norm initial, final = 0.13460647 0.00033716679
  Force max component initial, final = 0.050017464 8.1733635e-05
  Final line search alpha, max atom move = 1.0000000 8.1733635e-05
  Iterations, force evaluations = 144 288

MPI task timing breakdown:
Section |  min time  |  avg time  |  max time  |%varavg| %total
---------------------------------------------------------------
Pair    | 2.2579     | 4.363      | 5.648      |  51.1 | 73.72
Neigh   | 0          | 0          | 0          |   0.0 |  0.00
Comm    | 0.084162   | 0.60602    | 1.4281     |  50.9 | 10.24
Output  | 0.00018067 | 0.00018745 | 0.00033674 |   0.0 |  0.00
Modify  | 0.0063133  | 0.0097293  | 0.012488   |   1.6 |  0.16
Other   |            | 0.9398     |            |       | 15.88

Nlocal:        11105.8 ave       15294 max        4380 min
Histogram: 4 0 0 0 4 0 4 4 8 2
Nghost:        10533.7 ave       14028 max        4076 min
Histogram: 4 0 0 0 4 0 4 2 7 5
Neighs:       316853.0 ave      441245 max      114725 min
Histogram: 4 0 0 0 4 0 4 4 8 2

Total # of neighbors = 8238189
Ave neighs/atom = 28.530426
Neighbor list builds = 0
Dangerous builds = 0
The dot product: -3.46201817751502e-07
