LAMMPS (29 Oct 2020)
OMP_NUM_THREADS environment is not set. Defaulting to 1 thread. (../comm.cpp:94)
  using 1 OpenMP thread(s) per MPI task
OMP_NUM_THREADS environment is not set. Defaulting to 1 thread. (../comm.cpp:94)
  using 1 OpenMP thread(s) per MPI task
Reading data file ...
  orthogonal box = (-122.39241 -121.13707 -37.090501) to (122.39241 121.13707 37.090501)
  13 by 4 by 1 MPI processor grid
  reading atoms ...
  288751 atoms
  read_data CPU = 0.443 seconds
199981 atoms in group inner
88770 atoms in group outer
1 atoms in group carbon
Neighbor list info ...
  update every 1 steps, delay 0 steps, check yes
  max neighbors/atom: 2000, page size: 100000
  master list distance cutoff = 5.6
  ghost atom cutoff = 5.6
  binsize = 2.8, bins = 88 87 27
  1 neighbor lists, perpetual/occasional/extra = 1 0 0
  (1) pair eam/alloy, perpetual
      attributes: half, newton on
      pair build: half/bin/atomonly/newton
      stencil: half/bin/3d/newton
      bin: standard
Setting up cg style minimization ...
  Unit style    : metal
  Current step  : 0
Per MPI rank memory allocation (min/avg/max) = 5.465 | 6.344 | 6.728 Mbytes
Step v_fx v_fy v_fz PotEng KinEng TotEng 
       0   0.21355573    1.8808262    2.5146363   -1152447.8            0   -1152447.8 
     170 -1.4095216e-06 -2.1437419e-06 1.7133146e-05   -1152449.5            0   -1152449.5 
Loop time of 3.78521 on 52 procs for 170 steps with 288751 atoms

99.8% CPU use with 52 MPI tasks x 1 OpenMP threads

Minimization stats:
  Stopping criterion = linesearch alpha is zero
  Energy initial, next-to-last, final = 
     -1152447.78397514   -1152449.4503526   -1152449.4503526
  Force two-norm initial, final = 10.156814 8.1466485e-05
  Force max component initial, final = 6.2080810 1.7133146e-05
  Final line search alpha, max atom move = 0.5 8.5665729e-06
  Iterations, force evaluations = 170 340

MPI task timing breakdown:
Section |  min time  |  avg time  |  max time  |%varavg| %total
---------------------------------------------------------------
Pair    | 1.0047     | 2.7293     | 3.5671     |  44.9 | 72.11
Neigh   | 6.1119e-05 | 0.019398   | 0.027766   |   5.9 |  0.51
Comm    | 0.056999   | 0.61241    | 1.9151     |  69.2 | 16.18
Output  | 0          | 0          | 0          |   0.0 |  0.00
Modify  | 4.9116e-05 | 0.0037669  | 0.0094855  |   3.8 |  0.10
Other   |            | 0.4203     |            |       | 11.10

Nlocal:        5552.90 ave        7912 max           0 min
Histogram: 4 2 2 0 2 6 4 0 15 17
Nghost:        6213.54 ave        8769 max         412 min
Histogram: 4 0 4 0 8 0 4 5 7 20
Neighs:       158427.0 ave      230619 max           0 min
Histogram: 4 2 2 0 5 3 4 4 12 16

Total # of neighbors = 8238203
Ave neighs/atom = 28.530474
Neighbor list builds = 3
Dangerous builds = 0
Setting atom values ...
  1 settings made for x
  1 settings made for y
  1 settings made for z
Setting up cg style minimization ...
  Unit style    : metal
  Current step  : 170
Per MPI rank memory allocation (min/avg/max) = 5.465 | 6.344 | 6.728 Mbytes
Step PotEng KinEng TotEng v_fx v_fy v_fz 
     170   -1152449.4            0   -1152449.4 0.0074069663  -0.01506624 -0.024544513 
     375   -1152449.5            0   -1152449.5 -3.0212972e-06 -1.462031e-05 -7.7524941e-06 
Loop time of 4.50909 on 52 procs for 205 steps with 288751 atoms

99.9% CPU use with 52 MPI tasks x 1 OpenMP threads

Minimization stats:
  Stopping criterion = linesearch alpha is zero
  Energy initial, next-to-last, final = 
     -1152449.44965293   -1152449.4500794   -1152449.4500794
  Force two-norm initial, final = 0.09407751 4.6459619e-05
  Force max component initial, final = 0.043954548 1.4620310e-05
  Final line search alpha, max atom move = 0.5 7.3101549e-06
  Iterations, force evaluations = 205 411

MPI task timing breakdown:
Section |  min time  |  avg time  |  max time  |%varavg| %total
---------------------------------------------------------------
Pair    | 1.1647     | 3.2742     | 4.3098     |  50.2 | 72.61
Neigh   | 0          | 0          | 0          |   0.0 |  0.00
Comm    | 0.059321   | 0.72588    | 2.2735     |  76.3 | 16.10
Output  | 0          | 0          | 0          |   0.0 |  0.00
Modify  | 8.8551e-05 | 0.0068899  | 0.014478   |   3.9 |  0.15
Other   |            | 0.5022     |            |       | 11.14

Nlocal:        5552.90 ave        7910 max           0 min
Histogram: 4 2 2 0 2 6 4 0 15 17
Nghost:        6213.54 ave        8769 max         412 min
Histogram: 4 0 4 0 8 0 4 5 7 20
Neighs:       158427.0 ave      230571 max           0 min
Histogram: 4 2 2 0 5 3 4 4 12 16

Total # of neighbors = 8238197
Ave neighs/atom = 28.530454
Neighbor list builds = 0
Dangerous builds = 0
Setting atom values ...
  1 settings made for x
  1 settings made for y
  1 settings made for z
Setting up cg style minimization ...
  Unit style    : metal
  Current step  : 375
Per MPI rank memory allocation (min/avg/max) = 5.465 | 6.344 | 6.728 Mbytes
Step PotEng KinEng TotEng v_fx v_fy v_fz 
     375   -1152449.4            0   -1152449.4 0.0084785791 -0.017067273 -0.038877863 
     550   -1152449.4            0   -1152449.4 -2.5033434e-05 -2.4963063e-05 1.911258e-05 
Loop time of 3.81894 on 52 procs for 175 steps with 288751 atoms

99.9% CPU use with 52 MPI tasks x 1 OpenMP threads

Minimization stats:
  Stopping criterion = energy tolerance
  Energy initial, next-to-last, final = 
      -1152449.4469625  -1152449.44825565  -1152449.44825565
  Force two-norm initial, final = 0.16113057 0.00016456903
  Force max component initial, final = 0.087207609 2.5033434e-05
  Final line search alpha, max atom move = 1.0000000 2.5033434e-05
  Iterations, force evaluations = 175 350

MPI task timing breakdown:
Section |  min time  |  avg time  |  max time  |%varavg| %total
---------------------------------------------------------------
Pair    | 0.98528    | 2.7788     | 3.6684     |  46.4 | 72.76
Neigh   | 0          | 0          | 0          |   0.0 |  0.00
Comm    | 0.045205   | 0.61558    | 1.9464     |  70.7 | 16.12
Output  | 0          | 0          | 0          |   0.0 |  0.00
Modify  | 7.2594e-05 | 0.0058308  | 0.012319   |   3.6 |  0.15
Other   |            | 0.4187     |            |       | 10.96

Nlocal:        5552.90 ave        7910 max           0 min
Histogram: 4 2 2 0 2 6 4 0 15 17
Nghost:        6213.54 ave        8769 max         412 min
Histogram: 4 0 4 0 8 0 4 5 7 20
Neighs:       158427.0 ave      230571 max           0 min
Histogram: 4 2 2 0 5 3 4 4 12 16

Total # of neighbors = 8238196
Ave neighs/atom = 28.530450
Neighbor list builds = 0
Dangerous builds = 0
The dot product: -2.37990874304576e-08
Setting atom values ...
  1 settings made for x
  1 settings made for y
  1 settings made for z
Setting up cg style minimization ...
  Unit style    : metal
  Current step  : 550
Per MPI rank memory allocation (min/avg/max) = 5.465 | 6.344 | 6.728 Mbytes
Step PotEng KinEng TotEng v_fx v_fy v_fz 
     550   -1152449.4            0   -1152449.4 0.0059099259 -0.0097092523 -0.031428282 
     681   -1152449.4            0   -1152449.4 -2.044212e-05 -2.0766831e-05 1.6962498e-05 
Loop time of 2.903 on 52 procs for 131 steps with 288751 atoms

99.9% CPU use with 52 MPI tasks x 1 OpenMP threads

Minimization stats:
  Stopping criterion = linesearch alpha is zero
  Energy initial, next-to-last, final = 
     -1152449.44358756  -1152449.44482251  -1152449.44482251
  Force two-norm initial, final = 0.15529035 0.00017848048
  Force max component initial, final = 0.092292397 2.8847058e-05
  Final line search alpha, max atom move = 0.25 7.2117646e-06
  Iterations, force evaluations = 131 265

MPI task timing breakdown:
Section |  min time  |  avg time  |  max time  |%varavg| %total
---------------------------------------------------------------
Pair    | 0.75219    | 2.1182     | 2.7785     |  40.4 | 72.97
Neigh   | 0          | 0          | 0          |   0.0 |  0.00
Comm    | 0.036688   | 0.46796    | 1.4765     |  61.7 | 16.12
Output  | 0          | 0          | 0          |   0.0 |  0.00
Modify  | 5.8798e-05 | 0.0044431  | 0.0093224  |   3.1 |  0.15
Other   |            | 0.3124     |            |       | 10.76

Nlocal:        5552.90 ave        7909 max           0 min
Histogram: 4 2 2 0 2 6 4 0 15 17
Nghost:        6213.54 ave        8769 max         412 min
Histogram: 4 0 4 0 8 0 4 5 7 20
Neighs:       158427.0 ave      230537 max           0 min
Histogram: 4 2 2 0 5 3 4 4 12 16

Total # of neighbors = 8238193
Ave neighs/atom = 28.530440
Neighbor list builds = 0
Dangerous builds = 0
The dot product: -3.18491768455714e-08
Setting atom values ...
  1 settings made for x
  1 settings made for y
  1 settings made for z
Setting up cg style minimization ...
  Unit style    : metal
  Current step  : 681
Per MPI rank memory allocation (min/avg/max) = 5.465 | 6.344 | 6.728 Mbytes
Step PotEng KinEng TotEng v_fx v_fy v_fz 
     681   -1152449.4            0   -1152449.4  0.002344345 -0.0090662491   -0.0250715 
     786   -1152449.4            0   -1152449.4 -1.9946494e-05 -2.8291252e-05 2.7727477e-06 
Loop time of 2.2868 on 52 procs for 105 steps with 288751 atoms

99.9% CPU use with 52 MPI tasks x 1 OpenMP threads

Minimization stats:
  Stopping criterion = energy tolerance
  Energy initial, next-to-last, final = 
     -1152449.43869443  -1152449.43988035  -1152449.43988035
  Force two-norm initial, final = 0.15174544 0.0003105977
  Force max component initial, final = 0.095990789 6.9550916e-05
  Final line search alpha, max atom move = 1.0000000 6.9550916e-05
  Iterations, force evaluations = 105 210

MPI task timing breakdown:
Section |  min time  |  avg time  |  max time  |%varavg| %total
---------------------------------------------------------------
Pair    | 0.59376    | 1.6702     | 2.198      |  35.9 | 73.04
Neigh   | 0          | 0          | 0          |   0.0 |  0.00
Comm    | 0.026964   | 0.36755    | 1.1619     |  55.1 | 16.07
Output  | 0          | 0          | 0          |   0.0 |  0.00
Modify  | 4.1818e-05 | 0.0035177  | 0.0074759  |   2.8 |  0.15
Other   |            | 0.2455     |            |       | 10.74

Nlocal:        5552.90 ave        7907 max           0 min
Histogram: 4 2 2 0 2 6 4 0 15 17
Nghost:        6213.54 ave        8769 max         412 min
Histogram: 4 0 4 0 8 0 4 5 7 20
Neighs:       158427.0 ave      230486 max           0 min
Histogram: 4 2 2 0 5 3 4 4 12 16

Total # of neighbors = 8238194
Ave neighs/atom = 28.530443
Neighbor list builds = 0
Dangerous builds = 0
The dot product: 1.9009328204177e-08
Setting atom values ...
  1 settings made for x
  1 settings made for y
  1 settings made for z
Setting up cg style minimization ...
  Unit style    : metal
  Current step  : 786
Per MPI rank memory allocation (min/avg/max) = 5.465 | 6.344 | 6.728 Mbytes
Step PotEng KinEng TotEng v_fx v_fy v_fz 
     786   -1152449.4            0   -1152449.4 -0.0028650349 -0.012883584 -0.019606731 
     911   -1152449.4            0   -1152449.4 5.7189788e-06 2.8143582e-05 4.4597583e-05 
Loop time of 2.72086 on 52 procs for 125 steps with 288751 atoms

99.9% CPU use with 52 MPI tasks x 1 OpenMP threads

Minimization stats:
  Stopping criterion = energy tolerance
  Energy initial, next-to-last, final = 
     -1152449.43236496  -1152449.43353187  -1152449.43353187
  Force two-norm initial, final = 0.15013468 0.00020806432
  Force max component initial, final = 0.098987852 4.4597583e-05
  Final line search alpha, max atom move = 1.0000000 4.4597583e-05
  Iterations, force evaluations = 125 250

MPI task timing breakdown:
Section |  min time  |  avg time  |  max time  |%varavg| %total
---------------------------------------------------------------
Pair    | 0.70584    | 1.9891     | 2.6148     |  39.2 | 73.11
Neigh   | 0          | 0          | 0          |   0.0 |  0.00
Comm    | 0.032187   | 0.43797    | 1.3822     |  60.1 | 16.10
Output  | 0          | 0          | 0          |   0.0 |  0.00
Modify  | 4.6541e-05 | 0.0041878  | 0.0088693  |   3.0 |  0.15
Other   |            | 0.2896     |            |       | 10.64

Nlocal:        5552.90 ave        7906 max           0 min
Histogram: 4 2 2 0 2 6 4 0 15 17
Nghost:        6213.54 ave        8769 max         412 min
Histogram: 4 0 4 0 8 0 4 5 7 20
Neighs:       158427.0 ave      230452 max           0 min
Histogram: 4 2 2 0 5 3 4 4 12 16

Total # of neighbors = 8238194
Ave neighs/atom = 28.530443
Neighbor list builds = 0
Dangerous builds = 0
The dot product: -1.38463306226771e-07
Setting atom values ...
  1 settings made for x
  1 settings made for y
  1 settings made for z
Setting up cg style minimization ...
  Unit style    : metal
  Current step  : 911
Per MPI rank memory allocation (min/avg/max) = 5.465 | 6.344 | 6.728 Mbytes
Step PotEng KinEng TotEng v_fx v_fy v_fz 
     911   -1152449.4            0   -1152449.4 -0.0078345907 -0.016488355 -0.014582621 
    1000   -1152449.4            0   -1152449.4 1.130948e-05 3.6958995e-05 5.4210885e-05 
    1053   -1152449.4            0   -1152449.4 3.5650276e-06 5.881252e-07 -1.0791178e-05 
Loop time of 3.11233 on 52 procs for 142 steps with 288751 atoms

99.9% CPU use with 52 MPI tasks x 1 OpenMP threads

Minimization stats:
  Stopping criterion = energy tolerance
  Energy initial, next-to-last, final = 
       -1152449.424723  -1152449.42589706  -1152449.42589706
  Force two-norm initial, final = 0.14951595 0.00016245525
  Force max component initial, final = 0.10164528 1.7329608e-05
  Final line search alpha, max atom move = 1.0000000 1.7329608e-05
  Iterations, force evaluations = 142 284

MPI task timing breakdown:
Section |  min time  |  avg time  |  max time  |%varavg| %total
---------------------------------------------------------------
Pair    | 0.80336    | 2.2593     | 2.972      |  41.7 | 72.59
Neigh   | 0          | 0          | 0          |   0.0 |  0.00
Comm    | 0.04056    | 0.50312    | 1.5922     |  63.5 | 16.17
Output  | 0.00021241 | 0.00021765 | 0.00039353 |   0.0 |  0.01
Modify  | 6.5083e-05 | 0.0047881  | 0.010063   |   3.2 |  0.15
Other   |            | 0.3449     |            |       | 11.08

Nlocal:        5552.90 ave        7903 max           0 min
Histogram: 4 2 2 0 2 6 4 0 15 17
Nghost:        6213.54 ave        8769 max         412 min
Histogram: 4 0 4 0 8 0 4 5 7 20
Neighs:       158427.0 ave      230362 max           0 min
Histogram: 4 2 2 0 5 3 4 4 12 16

Total # of neighbors = 8238194
Ave neighs/atom = 28.530443
Neighbor list builds = 0
Dangerous builds = 0
The dot product: 9.56164355596645e-10
Setting atom values ...
  1 settings made for x
  1 settings made for y
  1 settings made for z
Setting up cg style minimization ...
  Unit style    : metal
  Current step  : 1053
Per MPI rank memory allocation (min/avg/max) = 5.465 | 6.344 | 6.728 Mbytes
Step PotEng KinEng TotEng v_fx v_fy v_fz 
    1053   -1152449.4            0   -1152449.4 -0.010850849 -0.017291854 -0.010388447 
    1176   -1152449.4            0   -1152449.4 -1.7059029e-05 -1.1141749e-05 2.8536072e-05 
Loop time of 2.68182 on 52 procs for 123 steps with 288751 atoms

99.9% CPU use with 52 MPI tasks x 1 OpenMP threads

Minimization stats:
  Stopping criterion = energy tolerance
  Energy initial, next-to-last, final = 
       -1152449.415802  -1152449.41698597  -1152449.41698597
  Force two-norm initial, final = 0.14934 0.00018255451
  Force max component initial, final = 0.10382702 3.6125587e-05
  Final line search alpha, max atom move = 1.0000000 3.6125587e-05
  Iterations, force evaluations = 123 246

MPI task timing breakdown:
Section |  min time  |  avg time  |  max time  |%varavg| %total
---------------------------------------------------------------
Pair    | 0.69598    | 1.9587     | 2.5777     |  38.9 | 73.03
Neigh   | 0          | 0          | 0          |   0.0 |  0.00
Comm    | 0.03163    | 0.43207    | 1.3599     |  59.6 | 16.11
Output  | 0          | 0          | 0          |   0.0 |  0.00
Modify  | 4.9949e-05 | 0.0041127  | 0.0086563  |   3.0 |  0.15
Other   |            | 0.287      |            |       | 10.70

Nlocal:        5552.90 ave        7903 max           0 min
Histogram: 4 2 2 0 2 6 4 0 15 17
Nghost:        6213.54 ave        8769 max         412 min
Histogram: 4 0 4 0 8 0 4 5 7 20
Neighs:       158427.0 ave      230362 max           0 min
Histogram: 4 2 2 0 5 3 4 4 12 16

Total # of neighbors = 8238193
Ave neighs/atom = 28.530440
Neighbor list builds = 0
Dangerous builds = 0
The dot product: 8.24308315753807e-08
Setting atom values ...
  1 settings made for x
  1 settings made for y
  1 settings made for z
Setting up cg style minimization ...
  Unit style    : metal
  Current step  : 1176
Per MPI rank memory allocation (min/avg/max) = 5.465 | 6.344 | 6.728 Mbytes
Step PotEng KinEng TotEng v_fx v_fy v_fz 
    1176   -1152449.4            0   -1152449.4 -0.011645778 -0.015625765 -0.0070569828 
    1322   -1152449.4            0   -1152449.4 -2.6804044e-05 -3.0790333e-05 -4.3097064e-07 
Loop time of 3.1753 on 52 procs for 146 steps with 288751 atoms

99.9% CPU use with 52 MPI tasks x 1 OpenMP threads

Minimization stats:
  Stopping criterion = energy tolerance
  Energy initial, next-to-last, final = 
      -1152449.4055886  -1152449.40677427  -1152449.40677427
  Force two-norm initial, final = 0.14942236 0.0001890552
  Force max component initial, final = 0.1055833 3.8848409e-05
  Final line search alpha, max atom move = 1.0000000 3.8848409e-05
  Iterations, force evaluations = 146 292

MPI task timing breakdown:
Section |  min time  |  avg time  |  max time  |%varavg| %total
---------------------------------------------------------------
Pair    | 0.8256     | 2.3195     | 3.0524     |  42.2 | 73.05
Neigh   | 0          | 0          | 0          |   0.0 |  0.00
Comm    | 0.037091   | 0.51137    | 1.6238     |  64.9 | 16.10
Output  | 0          | 0          | 0          |   0.0 |  0.00
Modify  | 5.3721e-05 | 0.0048844  | 0.010298   |   3.3 |  0.15
Other   |            | 0.3395     |            |       | 10.69

Nlocal:        5552.90 ave        7899 max           0 min
Histogram: 4 2 2 0 2 6 4 0 14 18
Nghost:        6213.54 ave        8769 max         412 min
Histogram: 4 0 4 0 8 0 4 5 7 20
Neighs:       158427.0 ave      230206 max           0 min
Histogram: 4 2 2 0 5 3 4 4 12 16

Total # of neighbors = 8238195
Ave neighs/atom = 28.530447
Neighbor list builds = 0
Dangerous builds = 0
The dot product: 2.45081026294068e-07
Setting atom values ...
  1 settings made for x
  1 settings made for y
  1 settings made for z
Setting up cg style minimization ...
  Unit style    : metal
  Current step  : 1322
Per MPI rank memory allocation (min/avg/max) = 5.465 | 6.344 | 6.728 Mbytes
Step PotEng KinEng TotEng v_fx v_fy v_fz 
    1322   -1152449.4            0   -1152449.4 -0.010510461 -0.012467199 -0.0045492848 
    1450   -1152449.4            0   -1152449.4 6.1624586e-06 3.2428051e-07 -2.0265957e-05 
Loop time of 2.78677 on 52 procs for 128 steps with 288751 atoms

99.9% CPU use with 52 MPI tasks x 1 OpenMP threads

Minimization stats:
  Stopping criterion = energy tolerance
  Energy initial, next-to-last, final = 
     -1152449.39404891  -1152449.39522686  -1152449.39522686
  Force two-norm initial, final = 0.14972018 0.00016983757
  Force max component initial, final = 0.10709527 2.0265957e-05
  Final line search alpha, max atom move = 1.0000000 2.0265957e-05
  Iterations, force evaluations = 128 256

MPI task timing breakdown:
Section |  min time  |  avg time  |  max time  |%varavg| %total
---------------------------------------------------------------
Pair    | 0.7242     | 2.041      | 2.6783     |  39.7 | 73.24
Neigh   | 0          | 0          | 0          |   0.0 |  0.00
Comm    | 0.033671   | 0.44892    | 1.4137     |  60.8 | 16.11
Output  | 0          | 0          | 0          |   0.0 |  0.00
Modify  | 5.8288e-05 | 0.0042862  | 0.0090425  |   3.1 |  0.15
Other   |            | 0.2925     |            |       | 10.50

Nlocal:        5552.90 ave        7897 max           0 min
Histogram: 4 2 2 0 2 6 4 0 14 18
Nghost:        6213.54 ave        8769 max         412 min
Histogram: 4 0 4 0 8 0 4 5 7 20
Neighs:       158427.0 ave      230141 max           0 min
Histogram: 4 2 2 0 5 3 4 4 12 16

Total # of neighbors = 8238196
Ave neighs/atom = 28.530450
Neighbor list builds = 0
Dangerous builds = 0
The dot product: -9.28747921640544e-09
Setting atom values ...
  1 settings made for x
  1 settings made for y
  1 settings made for z
Setting up cg style minimization ...
  Unit style    : metal
  Current step  : 1450
Per MPI rank memory allocation (min/avg/max) = 5.465 | 6.344 | 6.728 Mbytes
Step PotEng KinEng TotEng v_fx v_fy v_fz 
    1450   -1152449.4            0   -1152449.4 -0.0079339079 -0.0086174017 -0.0027712029 
    1575   -1152449.4            0   -1152449.4 -3.3092849e-06 6.5166017e-06 3.4005867e-05 
Loop time of 2.72795 on 52 procs for 125 steps with 288751 atoms

99.9% CPU use with 52 MPI tasks x 1 OpenMP threads

Minimization stats:
  Stopping criterion = energy tolerance
  Energy initial, next-to-last, final = 
     -1152449.38114584   -1152449.3823128   -1152449.3823128
  Force two-norm initial, final = 0.1502049 0.00019612645
  Force max component initial, final = 0.10842892 3.4005867e-05
  Final line search alpha, max atom move = 1.0000000 3.4005867e-05
  Iterations, force evaluations = 125 250

MPI task timing breakdown:
Section |  min time  |  avg time  |  max time  |%varavg| %total
---------------------------------------------------------------
Pair    | 0.70554    | 1.9905     | 2.6212     |  39.2 | 72.97
Neigh   | 0          | 0          | 0          |   0.0 |  0.00
Comm    | 0.032121   | 0.43966    | 1.3968     |  60.0 | 16.12
Output  | 0          | 0          | 0          |   0.0 |  0.00
Modify  | 4.8574e-05 | 0.0041744  | 0.0087879  |   3.0 |  0.15
Other   |            | 0.2936     |            |       | 10.76

Nlocal:        5552.90 ave        7889 max           0 min
Histogram: 4 2 2 0 2 6 4 0 14 18
Nghost:        6213.54 ave        8769 max         412 min
Histogram: 4 0 4 0 8 0 4 5 7 20
Neighs:       158427.0 ave      229891 max           0 min
Histogram: 4 2 2 0 5 3 4 4 11 17

Total # of neighbors = 8238193
Ave neighs/atom = 28.530440
Neighbor list builds = 0
Dangerous builds = 0
The dot product: -3.8880525196826e-08
Setting atom values ...
  1 settings made for x
  1 settings made for y
  1 settings made for z
Setting up cg style minimization ...
  Unit style    : metal
  Current step  : 1575
Per MPI rank memory allocation (min/avg/max) = 5.465 | 6.344 | 6.728 Mbytes
Step PotEng KinEng TotEng v_fx v_fy v_fz 
    1575   -1152449.4            0   -1152449.4 -0.0045063303 -0.0046297275 -0.0015008312 
    1715   -1152449.4            0   -1152449.4 2.7845493e-05 2.323758e-05 -1.0298008e-05 
Loop time of 3.07308 on 52 procs for 140 steps with 288751 atoms

99.9% CPU use with 52 MPI tasks x 1 OpenMP threads

Minimization stats:
  Stopping criterion = linesearch alpha is zero
  Energy initial, next-to-last, final = 
     -1152449.36685559  -1152449.36801256  -1152449.36801256
  Force two-norm initial, final = 0.15090479 0.0001783389
  Force max component initial, final = 0.1098142 3.0846746e-05
  Final line search alpha, max atom move = 0.25 7.7116865e-06
  Iterations, force evaluations = 140 283

MPI task timing breakdown:
Section |  min time  |  avg time  |  max time  |%varavg| %total
---------------------------------------------------------------
Pair    | 0.79868    | 2.2509     | 2.9528     |  41.7 | 73.25
Neigh   | 0          | 0          | 0          |   0.0 |  0.00
Comm    | 0.036787   | 0.49558    | 1.5657     |  63.9 | 16.13
Output  | 0          | 0          | 0          |   0.0 |  0.00
Modify  | 5.2188e-05 | 0.0047288  | 0.0099727  |   3.2 |  0.15
Other   |            | 0.3218     |            |       | 10.47

Nlocal:        5552.90 ave        7883 max           0 min
Histogram: 4 2 2 0 2 6 4 0 14 18
Nghost:        6213.58 ave        8769 max         412 min
Histogram: 4 0 4 0 8 0 4 5 7 20
Neighs:       158427.0 ave      229696 max           0 min
Histogram: 4 2 2 0 5 3 4 4 11 17

Total # of neighbors = 8238192
Ave neighs/atom = 28.530436
Neighbor list builds = 0
Dangerous builds = 0
The dot product: -1.28037785117514e-07
Setting atom values ...
  1 settings made for x
  1 settings made for y
  1 settings made for z
Setting up cg style minimization ...
  Unit style    : metal
  Current step  : 1715
Per MPI rank memory allocation (min/avg/max) = 5.465 | 6.344 | 6.728 Mbytes
Step PotEng KinEng TotEng v_fx v_fy v_fz 
    1715   -1152449.4            0   -1152449.4 -0.00065453034 -0.00077184711 -0.00068637411 
    1809   -1152449.4            0   -1152449.4 1.4219984e-05 -2.3488532e-05 -0.00013756665 
Loop time of 2.06577 on 52 procs for 94 steps with 288751 atoms

99.8% CPU use with 52 MPI tasks x 1 OpenMP threads

Minimization stats:
  Stopping criterion = energy tolerance
  Energy initial, next-to-last, final = 
     -1152449.35116308  -1152449.35230785  -1152449.35230785
  Force two-norm initial, final = 0.1518703 0.00040447289
  Force max component initial, final = 0.11132425 0.00013756665
  Final line search alpha, max atom move = 1.0000000 0.00013756665
  Iterations, force evaluations = 94 188

MPI task timing breakdown:
Section |  min time  |  avg time  |  max time  |%varavg| %total
---------------------------------------------------------------
Pair    | 0.53423    | 1.4989     | 1.9713     |  34.0 | 72.56
Neigh   | 0          | 0          | 0          |   0.0 |  0.00
Comm    | 0.026343   | 0.33285    | 1.0439     |  51.7 | 16.11
Output  | 0          | 0          | 0          |   0.0 |  0.00
Modify  | 3.8367e-05 | 0.0031411  | 0.0066069  |   2.6 |  0.15
Other   |            | 0.2309     |            |       | 11.18

Nlocal:        5552.90 ave        7878 max           0 min
Histogram: 4 2 2 0 2 6 4 0 14 18
Nghost:        6213.58 ave        8769 max         412 min
Histogram: 4 0 4 0 8 0 4 5 7 20
Neighs:       158427.0 ave      229542 max           0 min
Histogram: 4 2 2 0 5 3 4 4 11 17

Total # of neighbors = 8238192
Ave neighs/atom = 28.530436
Neighbor list builds = 0
Dangerous builds = 0
The dot product: 1.36154779599111e-07
Setting atom values ...
  1 settings made for x
  1 settings made for y
  1 settings made for z
Setting up cg style minimization ...
  Unit style    : metal
  Current step  : 1809
Per MPI rank memory allocation (min/avg/max) = 5.465 | 6.344 | 6.728 Mbytes
Step PotEng KinEng TotEng v_fx v_fy v_fz 
    1809   -1152449.3            0   -1152449.3 0.0030770671 0.0027120255 -3.3872576e-06 
    1994   -1152449.3            0   -1152449.3 -5.868163e-06 -4.6854891e-06 1.9062948e-06 
Loop time of 4.01991 on 52 procs for 185 steps with 288751 atoms

99.9% CPU use with 52 MPI tasks x 1 OpenMP threads

Minimization stats:
  Stopping criterion = linesearch alpha is zero
  Energy initial, next-to-last, final = 
     -1152449.33404332  -1152449.33518056  -1152449.33518056
  Force two-norm initial, final = 0.15308191 6.5034744e-05
  Force max component initial, final = 0.11304264 7.4769350e-06
  Final line search alpha, max atom move = 0.5 3.7384675e-06
  Iterations, force evaluations = 185 371

MPI task timing breakdown:
Section |  min time  |  avg time  |  max time  |%varavg| %total
---------------------------------------------------------------
Pair    | 1.048      | 2.9487     | 3.8624     |  47.7 | 73.35
Neigh   | 0          | 0          | 0          |   0.0 |  0.00
Comm    | 0.047486   | 0.6481     | 2.0544     |  73.3 | 16.12
Output  | 0          | 0          | 0          |   0.0 |  0.00
Modify  | 6.4794e-05 | 0.0061949  | 0.013004   |   3.7 |  0.15
Other   |            | 0.4169     |            |       | 10.37

Nlocal:        5552.90 ave        7872 max           0 min
Histogram: 4 2 2 0 2 6 4 0 14 18
Nghost:        6213.58 ave        8769 max         412 min
Histogram: 4 0 4 0 8 0 4 5 7 20
Neighs:       158427.0 ave      229364 max           0 min
Histogram: 4 2 2 0 4 4 4 4 11 17

Total # of neighbors = 8238191
Ave neighs/atom = 28.530433
Neighbor list builds = 0
Dangerous builds = 0
The dot product: 9.52330521142204e-09
Setting atom values ...
  1 settings made for x
  1 settings made for y
  1 settings made for z
Setting up cg style minimization ...
  Unit style    : metal
  Current step  : 1994
Per MPI rank memory allocation (min/avg/max) = 5.465 | 6.344 | 6.728 Mbytes
Step PotEng KinEng TotEng v_fx v_fy v_fz 
    1994   -1152449.3            0   -1152449.3 0.0065604748 0.0059816247 0.0010629588 
    2000   -1152449.3            0   -1152449.3 -0.0014379806 -0.0021282163 -0.0034938483 
    2137   -1152449.3            0   -1152449.3 -2.2210702e-05 -1.6572034e-05 1.108294e-05 
Loop time of 3.11037 on 52 procs for 143 steps with 288751 atoms

99.9% CPU use with 52 MPI tasks x 1 OpenMP threads

Minimization stats:
  Stopping criterion = energy tolerance
  Energy initial, next-to-last, final = 
     -1152449.31547929  -1152449.31661466  -1152449.31661466
  Force two-norm initial, final = 0.15454474 0.00011529251
  Force max component initial, final = 0.1149856 2.8718527e-05
  Final line search alpha, max atom move = 1.0000000 2.8718527e-05
  Iterations, force evaluations = 143 286

MPI task timing breakdown:
Section |  min time  |  avg time  |  max time  |%varavg| %total
---------------------------------------------------------------
Pair    | 0.80634    | 2.2687     | 2.9803     |  41.8 | 72.94
Neigh   | 0          | 0          | 0          |   0.0 |  0.00
Comm    | 0.036602   | 0.50268    | 1.602      |  64.2 | 16.16
Output  | 0.00011292 | 0.00011637 | 0.00025488 |   0.0 |  0.00
Modify  | 6.2666e-05 | 0.0047742  | 0.010043   |   3.2 |  0.15
Other   |            | 0.3341     |            |       | 10.74

Nlocal:        5552.90 ave        7862 max           0 min
Histogram: 4 2 2 0 2 6 4 0 13 19
Nghost:        6213.54 ave        8769 max         412 min
Histogram: 4 0 4 0 8 0 4 5 7 20
Neighs:       158427.0 ave      229030 max           0 min
Histogram: 4 2 2 0 4 4 4 4 10 18

Total # of neighbors = 8238191
Ave neighs/atom = 28.530433
Neighbor list builds = 0
Dangerous builds = 0
The dot product: 9.48666783562118e-10
Setting atom values ...
  1 settings made for x
  1 settings made for y
  1 settings made for z
Setting up cg style minimization ...
  Unit style    : metal
  Current step  : 2137
Per MPI rank memory allocation (min/avg/max) = 5.465 | 6.344 | 6.728 Mbytes
Step PotEng KinEng TotEng v_fx v_fy v_fz 
    2137   -1152449.3            0   -1152449.3 0.0099118618 0.0090312412 0.0016886289 
    2245   -1152449.3            0   -1152449.3 -8.07232e-06 -1.4093783e-05 -2.8672502e-05 
Loop time of 2.35373 on 52 procs for 108 steps with 288751 atoms

99.9% CPU use with 52 MPI tasks x 1 OpenMP threads

Minimization stats:
  Stopping criterion = energy tolerance
  Energy initial, next-to-last, final = 
     -1152449.29545754  -1152449.29660031  -1152449.29660031
  Force two-norm initial, final = 0.15629976 0.00026419919
  Force max component initial, final = 0.11708325 2.8672502e-05
  Final line search alpha, max atom move = 1.0000000 2.8672502e-05
  Iterations, force evaluations = 108 216

MPI task timing breakdown:
Section |  min time  |  avg time  |  max time  |%varavg| %total
---------------------------------------------------------------
Pair    | 0.61059    | 1.7179     | 2.2488     |  36.3 | 72.99
Neigh   | 0          | 0          | 0          |   0.0 |  0.00
Comm    | 0.027767   | 0.37901    | 1.1943     |  55.8 | 16.10
Output  | 0          | 0          | 0          |   0.0 |  0.00
Modify  | 4.6973e-05 | 0.0036212  | 0.0076672  |   2.8 |  0.15
Other   |            | 0.2532     |            |       | 10.76

Nlocal:        5552.90 ave        7859 max           0 min
Histogram: 4 2 2 0 2 6 4 0 13 19
Nghost:        6213.58 ave        8769 max         412 min
Histogram: 4 0 4 0 8 0 4 5 7 20
Neighs:       158427.0 ave      228955 max           0 min
Histogram: 4 2 2 0 4 4 4 4 10 18

Total # of neighbors = 8238191
Ave neighs/atom = 28.530433
Neighbor list builds = 0
Dangerous builds = 0
The dot product: 4.70471689887188e-09
Setting atom values ...
  1 settings made for x
  1 settings made for y
  1 settings made for z
Setting up cg style minimization ...
  Unit style    : metal
  Current step  : 2245
Per MPI rank memory allocation (min/avg/max) = 5.465 | 6.344 | 6.728 Mbytes
Step PotEng KinEng TotEng v_fx v_fy v_fz 
    2245   -1152449.3            0   -1152449.3  0.013163638  0.012028436 0.0021299039 
    2440   -1152449.3            0   -1152449.3 4.5219287e-06 2.324424e-06 -6.6559123e-06 
Loop time of 4.25757 on 52 procs for 195 steps with 288751 atoms

99.9% CPU use with 52 MPI tasks x 1 OpenMP threads

Minimization stats:
  Stopping criterion = linesearch alpha is zero
  Energy initial, next-to-last, final = 
     -1152449.27397273  -1152449.27513292  -1152449.27513292
  Force two-norm initial, final = 0.15844453 4.6173148e-05
  Force max component initial, final = 0.1193828 7.7158569e-06
  Final line search alpha, max atom move = 0.5 3.8579285e-06
  Iterations, force evaluations = 195 393

MPI task timing breakdown:
Section |  min time  |  avg time  |  max time  |%varavg| %total
---------------------------------------------------------------
Pair    | 1.1065     | 3.1144     | 4.0882     |  49.0 | 73.15
Neigh   | 0          | 0          | 0          |   0.0 |  0.00
Comm    | 0.051985   | 0.68904    | 2.1841     |  75.0 | 16.18
Output  | 0          | 0          | 0          |   0.0 |  0.00
Modify  | 7.9352e-05 | 0.0065493  | 0.013787   |   3.8 |  0.15
Other   |            | 0.4476     |            |       | 10.51

Nlocal:        5552.90 ave        7859 max           0 min
Histogram: 4 2 2 0 2 6 4 0 13 19
Nghost:        6213.62 ave        8769 max         412 min
Histogram: 4 0 4 0 8 0 4 5 7 20
Neighs:       158427.0 ave      228953 max           0 min
Histogram: 4 2 2 0 4 4 4 4 10 18

Total # of neighbors = 8238188
Ave neighs/atom = 28.530422
Neighbor list builds = 0
Dangerous builds = 0
The dot product: 1.29946807967617e-08
Setting atom values ...
  1 settings made for x
  1 settings made for y
  1 settings made for z
Setting up cg style minimization ...
  Unit style    : metal
  Current step  : 2440
Per MPI rank memory allocation (min/avg/max) = 5.465 | 6.344 | 6.728 Mbytes
Step PotEng KinEng TotEng v_fx v_fy v_fz 
    2440   -1152449.3            0   -1152449.3  0.016263888  0.015019893 0.0025295787 
    2565   -1152449.3            0   -1152449.3 -1.7312954e-05 -5.5323726e-06 4.017517e-05 
Loop time of 2.71675 on 52 procs for 125 steps with 288751 atoms

99.9% CPU use with 52 MPI tasks x 1 OpenMP threads

Minimization stats:
  Stopping criterion = energy tolerance
  Energy initial, next-to-last, final = 
     -1152449.25102516  -1152449.25221167  -1152449.25221167
  Force two-norm initial, final = 0.16100242 0.00015359437
  Force max component initial, final = 0.12185392 4.0175170e-05
  Final line search alpha, max atom move = 1.0000000 4.0175170e-05
  Iterations, force evaluations = 125 250

MPI task timing breakdown:
Section |  min time  |  avg time  |  max time  |%varavg| %total
---------------------------------------------------------------
Pair    | 0.70659    | 1.9926     | 2.611      |  39.2 | 73.35
Neigh   | 0          | 0          | 0          |   0.0 |  0.00
Comm    | 0.032045   | 0.43877    | 1.3823     |  60.0 | 16.15
Output  | 0          | 0          | 0          |   0.0 |  0.00
Modify  | 4.377e-05  | 0.0041747  | 0.0087957  |   3.0 |  0.15
Other   |            | 0.2812     |            |       | 10.35

Nlocal:        5552.90 ave        7859 max           0 min
Histogram: 4 2 2 0 2 6 4 0 13 19
Nghost:        6213.62 ave        8769 max         412 min
Histogram: 4 0 4 0 8 0 4 5 7 20
Neighs:       158427.0 ave      228953 max           0 min
Histogram: 4 2 2 0 4 4 4 4 10 18

Total # of neighbors = 8238188
Ave neighs/atom = 28.530422
Neighbor list builds = 0
Dangerous builds = 0
The dot product: -7.09901442187679e-08
Setting atom values ...
  1 settings made for x
  1 settings made for y
  1 settings made for z
Setting up cg style minimization ...
  Unit style    : metal
  Current step  : 2565
Per MPI rank memory allocation (min/avg/max) = 5.465 | 6.344 | 6.728 Mbytes
Step PotEng KinEng TotEng v_fx v_fy v_fz 
    2565   -1152449.2            0   -1152449.2  0.019166703  0.017904781 0.0024744995 
    2685   -1152449.2            0   -1152449.2 -2.1856851e-05 -3.1172047e-05 -4.689745e-05 
Loop time of 2.64325 on 52 procs for 120 steps with 288751 atoms

99.9% CPU use with 52 MPI tasks x 1 OpenMP threads

Minimization stats:
  Stopping criterion = energy tolerance
  Energy initial, next-to-last, final = 
     -1152449.22661742  -1152449.22784153  -1152449.22784153
  Force two-norm initial, final = 0.16398907 0.00021596249
  Force max component initial, final = 0.12451404 4.6897450e-05
  Final line search alpha, max atom move = 1.0000000 4.6897450e-05
  Iterations, force evaluations = 120 240

MPI task timing breakdown:
Section |  min time  |  avg time  |  max time  |%varavg| %total
---------------------------------------------------------------
Pair    | 0.67856    | 1.9089     | 2.5397     |  38.3 | 72.22
Neigh   | 0          | 0          | 0          |   0.0 |  0.00
Comm    | 0.031032   | 0.42665    | 1.3348     |  58.0 | 16.14
Output  | 0          | 0          | 0          |   0.0 |  0.00
Modify  | 5.0534e-05 | 0.0040207  | 0.0085028  |   3.0 |  0.15
Other   |            | 0.3036     |            |       | 11.49

Nlocal:        5552.90 ave        7859 max           0 min
Histogram: 4 2 2 0 2 6 4 0 13 19
Nghost:        6213.62 ave        8769 max         412 min
Histogram: 4 0 4 0 8 0 4 5 7 20
Neighs:       158427.0 ave      228952 max           0 min
Histogram: 4 2 2 0 4 4 4 4 10 18

Total # of neighbors = 8238188
Ave neighs/atom = 28.530422
Neighbor list builds = 0
Dangerous builds = 0
The dot product: -1.32154947560737e-07
Setting atom values ...
  1 settings made for x
  1 settings made for y
  1 settings made for z
Setting up cg style minimization ...
  Unit style    : metal
  Current step  : 2685
Per MPI rank memory allocation (min/avg/max) = 5.465 | 6.344 | 6.728 Mbytes
Step PotEng KinEng TotEng v_fx v_fy v_fz 
    2685   -1152449.2            0   -1152449.2  0.021786532  0.020677933 0.0021565734 
    2818   -1152449.2            0   -1152449.2 2.886261e-06 1.2985878e-05 4.2156937e-05 
Loop time of 2.92297 on 52 procs for 133 steps with 288751 atoms

99.9% CPU use with 52 MPI tasks x 1 OpenMP threads

Minimization stats:
  Stopping criterion = linesearch alpha is zero
  Energy initial, next-to-last, final = 
     -1152449.20076248  -1152449.20203419  -1152449.20203419
  Force two-norm initial, final = 0.1674027 0.00019856152
  Force max component initial, final = 0.12732104 4.2156937e-05
  Final line search alpha, max atom move = 0.25 1.0539234e-05
  Iterations, force evaluations = 133 269

MPI task timing breakdown:
Section |  min time  |  avg time  |  max time  |%varavg| %total
---------------------------------------------------------------
Pair    | 0.76003    | 2.1439     | 2.8092     |  40.7 | 73.35
Neigh   | 0          | 0          | 0          |   0.0 |  0.00
Comm    | 0.035804   | 0.47239    | 1.4872     |  62.2 | 16.16
Output  | 0          | 0          | 0          |   0.0 |  0.00
Modify  | 5.5231e-05 | 0.0044842  | 0.0094787  |   3.1 |  0.15
Other   |            | 0.3022     |            |       | 10.34

Nlocal:        5552.90 ave        7859 max           0 min
Histogram: 4 2 2 0 2 6 4 0 13 19
Nghost:        6213.62 ave        8769 max         412 min
Histogram: 4 0 4 0 8 0 4 5 7 20
Neighs:       158427.0 ave      228951 max           0 min
Histogram: 4 2 2 0 4 4 4 4 10 18

Total # of neighbors = 8238183
Ave neighs/atom = 28.530405
Neighbor list builds = 0
Dangerous builds = 0
The dot product: 3.36148866262987e-08
Setting atom values ...
  1 settings made for x
  1 settings made for y
  1 settings made for z
Setting up cg style minimization ...
  Unit style    : metal
  Current step  : 2818
Per MPI rank memory allocation (min/avg/max) = 5.465 | 6.344 | 6.728 Mbytes
Step PotEng KinEng TotEng v_fx v_fy v_fz 
    2818   -1152449.2            0   -1152449.2  0.025225879  0.024374549 0.0014540762 
    2985   -1152449.2            0   -1152449.2 -2.6739527e-05 -2.7713248e-05 -9.1722673e-06 
Loop time of 3.6392 on 52 procs for 167 steps with 288751 atoms

99.9% CPU use with 52 MPI tasks x 1 OpenMP threads

Minimization stats:
  Stopping criterion = energy tolerance
  Energy initial, next-to-last, final = 
     -1152449.17348527   -1152449.1748269   -1152449.1748269
  Force two-norm initial, final = 0.17145181 0.00017364489
  Force max component initial, final = 0.13026981 2.7713248e-05
  Final line search alpha, max atom move = 1.0000000 2.7713248e-05
  Iterations, force evaluations = 167 334

MPI task timing breakdown:
Section |  min time  |  avg time  |  max time  |%varavg| %total
---------------------------------------------------------------
Pair    | 0.94323    | 2.6571     | 3.487      |  45.3 | 73.01
Neigh   | 0          | 0          | 0          |   0.0 |  0.00
Comm    | 0.044695   | 0.58674    | 1.8564     |  69.4 | 16.12
Output  | 0          | 0          | 0          |   0.0 |  0.00
Modify  | 7.3878e-05 | 0.0055707  | 0.011793   |   3.5 |  0.15
Other   |            | 0.3897     |            |       | 10.71

Nlocal:        5552.90 ave        7859 max           0 min
Histogram: 4 2 2 0 2 6 4 0 13 19
Nghost:        6213.62 ave        8769 max         412 min
Histogram: 4 0 4 0 8 0 4 5 7 20
Neighs:       158427.0 ave      228951 max           0 min
Histogram: 4 2 2 0 4 4 4 4 10 18

Total # of neighbors = 8238183
Ave neighs/atom = 28.530405
Neighbor list builds = 0
Dangerous builds = 0
The dot product: -2.63648342660919e-07
Setting atom values ...
  1 settings made for x
  1 settings made for y
  1 settings made for z
Setting up cg style minimization ...
  Unit style    : metal
  Current step  : 2985
Per MPI rank memory allocation (min/avg/max) = 5.465 | 6.344 | 6.728 Mbytes
Step PotEng KinEng TotEng v_fx v_fy v_fz 
    2985   -1152449.1            0   -1152449.1  0.030314492  0.029045724 -0.0036071685 
    3000   -1152449.1            0   -1152449.1 0.00053095745 0.0004841394 -0.0001627237 
    3122   -1152449.1            0   -1152449.1 1.3586478e-05 2.0136273e-05 2.7193307e-05 
Loop time of 2.99861 on 52 procs for 137 steps with 288751 atoms

99.9% CPU use with 52 MPI tasks x 1 OpenMP threads

Minimization stats:
  Stopping criterion = linesearch alpha is zero
  Energy initial, next-to-last, final = 
     -1152449.14482342  -1152449.14628767  -1152449.14628767
  Force two-norm initial, final = 0.17600208 0.00012446499
  Force max component initial, final = 0.133407 2.8309307e-05
  Final line search alpha, max atom move = 0.5 1.4154654e-05
  Iterations, force evaluations = 137 275

MPI task timing breakdown:
Section |  min time  |  avg time  |  max time  |%varavg| %total
---------------------------------------------------------------
Pair    | 0.77833    | 2.1869     | 2.8739     |  41.1 | 72.93
Neigh   | 0          | 0          | 0          |   0.0 |  0.00
Comm    | 0.037451   | 0.48436    | 1.52       |  62.6 | 16.15
Output  | 0.00011591 | 0.00011932 | 0.00026095 |   0.0 |  0.00
Modify  | 5.3023e-05 | 0.0045953  | 0.0096303  |   3.2 |  0.15
Other   |            | 0.3226     |            |       | 10.76

Nlocal:        5552.90 ave        7858 max           0 min
Histogram: 4 2 2 0 2 6 4 0 13 19
Nghost:        6213.62 ave        8769 max         412 min
Histogram: 4 0 4 0 8 0 4 5 7 20
Neighs:       158427.0 ave      228924 max           0 min
Histogram: 4 2 2 0 4 4 4 4 10 18

Total # of neighbors = 8238185
Ave neighs/atom = 28.530412
Neighbor list builds = 0
Dangerous builds = 0
The dot product: 1.81184531592828e-07
Setting atom values ...
  1 settings made for x
  1 settings made for y
  1 settings made for z
Setting up cg style minimization ...
  Unit style    : metal
  Current step  : 3122
Per MPI rank memory allocation (min/avg/max) = 5.465 | 6.344 | 6.728 Mbytes
Step PotEng KinEng TotEng v_fx v_fy v_fz 
    3122   -1152449.1            0   -1152449.1   0.03900333  0.036308195 -0.017088657 
    3224   -1152449.1            0   -1152449.1 1.1068812e-05 1.2984229e-05 6.0759631e-06 
Loop time of 2.21561 on 52 procs for 102 steps with 288751 atoms

99.9% CPU use with 52 MPI tasks x 1 OpenMP threads

Minimization stats:
  Stopping criterion = energy tolerance
  Energy initial, next-to-last, final = 
     -1152449.11471496  -1152449.11645499  -1152449.11645499
  Force two-norm initial, final = 0.183241 0.00032570469
  Force max component initial, final = 0.13703102 4.4263090e-05
  Final line search alpha, max atom move = 1.0000000 4.4263090e-05
  Iterations, force evaluations = 102 204

MPI task timing breakdown:
Section |  min time  |  avg time  |  max time  |%varavg| %total
---------------------------------------------------------------
Pair    | 0.57668    | 1.6213     | 2.1295     |  35.3 | 73.18
Neigh   | 0          | 0          | 0          |   0.0 |  0.00
Comm    | 0.025941   | 0.35801    | 1.1374     |  54.3 | 16.16
Output  | 0          | 0          | 0          |   0.0 |  0.00
Modify  | 4.2527e-05 | 0.003408   | 0.0071362  |   2.7 |  0.15
Other   |            | 0.2329     |            |       | 10.51

Nlocal:        5552.90 ave        7858 max           0 min
Histogram: 4 2 2 0 2 6 4 0 13 19
Nghost:        6213.60 ave        8769 max         412 min
Histogram: 4 0 4 0 8 0 4 5 7 20
Neighs:       158427.0 ave      228922 max           0 min
Histogram: 4 2 2 0 4 4 4 4 10 18

Total # of neighbors = 8238183
Ave neighs/atom = 28.530405
Neighbor list builds = 0
Dangerous builds = 0
The dot product: 2.17597513027124e-07
Setting atom values ...
  1 settings made for x
  1 settings made for y
  1 settings made for z
Setting up cg style minimization ...
  Unit style    : metal
  Current step  : 3224
Per MPI rank memory allocation (min/avg/max) = 5.465 | 6.344 | 6.728 Mbytes
Step PotEng KinEng TotEng v_fx v_fy v_fz 
    3224   -1152449.1            0   -1152449.1   0.04795372  0.046389292 -0.029242265 
    3378   -1152449.1            0   -1152449.1 -8.5596639e-07 -9.9527337e-07 -1.8397177e-07 
Loop time of 3.3556 on 52 procs for 154 steps with 288751 atoms

99.9% CPU use with 52 MPI tasks x 1 OpenMP threads

Minimization stats:
  Stopping criterion = linesearch alpha is zero
  Energy initial, next-to-last, final = 
     -1152449.08327933  -1152449.08534536  -1152449.08534536
  Force two-norm initial, final = 0.19298599 3.2426943e-05
  Force max component initial, final = 0.14131267 1.5129054e-06
  Final line search alpha, max atom move = 0.5 7.5645270e-07
  Iterations, force evaluations = 154 309

MPI task timing breakdown:
Section |  min time  |  avg time  |  max time  |%varavg| %total
---------------------------------------------------------------
Pair    | 0.87265    | 2.4623     | 3.2196     |  43.5 | 73.38
Neigh   | 0          | 0          | 0          |   0.0 |  0.00
Comm    | 0.041355   | 0.54258    | 1.7221     |  67.1 | 16.17
Output  | 0          | 0          | 0          |   0.0 |  0.00
Modify  | 6.432e-05  | 0.0051558  | 0.010943   |   3.4 |  0.15
Other   |            | 0.3456     |            |       | 10.30

Nlocal:        5552.90 ave        7857 max           0 min
Histogram: 4 2 2 0 2 6 4 0 13 19
Nghost:        6213.60 ave        8769 max         412 min
Histogram: 4 0 4 0 8 0 4 5 7 20
Neighs:       158427.0 ave      228883 max           0 min
Histogram: 4 2 2 0 4 4 4 4 10 18

Total # of neighbors = 8238183
Ave neighs/atom = 28.530405
Neighbor list builds = 0
Dangerous builds = 0
The dot product: -2.18493816893104e-08
Setting atom values ...
  1 settings made for x
  1 settings made for y
  1 settings made for z
Setting up cg style minimization ...
  Unit style    : metal
  Current step  : 3378
Per MPI rank memory allocation (min/avg/max) = 5.465 | 6.344 | 6.728 Mbytes
Step PotEng KinEng TotEng v_fx v_fy v_fz 
    3378   -1152449.1            0   -1152449.1  0.053141608  0.055555076 -0.037860705 
    3495   -1152449.1            0   -1152449.1 3.0511618e-05 3.6162625e-05 -2.5771789e-06 
Loop time of 2.54082 on 52 procs for 117 steps with 288751 atoms

99.9% CPU use with 52 MPI tasks x 1 OpenMP threads

Minimization stats:
  Stopping criterion = energy tolerance
  Energy initial, next-to-last, final = 
     -1152449.05062577  -1152449.05295895  -1152449.05295895
  Force two-norm initial, final = 0.20168946 0.00028295005
  Force max component initial, final = 0.14558656 3.6162625e-05
  Final line search alpha, max atom move = 1.0000000 3.6162625e-05
  Iterations, force evaluations = 117 234

MPI task timing breakdown:
Section |  min time  |  avg time  |  max time  |%varavg| %total
---------------------------------------------------------------
Pair    | 0.66095    | 1.8585     | 2.4422     |  37.9 | 73.14
Neigh   | 0          | 0          | 0          |   0.0 |  0.00
Comm    | 0.030137   | 0.41052    | 1.303      |  58.0 | 16.16
Output  | 0          | 0          | 0          |   0.0 |  0.00
Modify  | 4.465e-05  | 0.0039125  | 0.0082403  |   2.9 |  0.15
Other   |            | 0.2679     |            |       | 10.54

Nlocal:        5552.90 ave        7857 max           0 min
Histogram: 4 2 2 0 2 6 4 0 13 19
Nghost:        6213.62 ave        8769 max         412 min
Histogram: 4 0 4 0 8 0 4 5 7 20
Neighs:       158427.0 ave      228883 max           0 min
Histogram: 4 2 2 0 4 4 4 4 10 18

Total # of neighbors = 8238182
Ave neighs/atom = 28.530402
Neighbor list builds = 0
Dangerous builds = 0
The dot product: 9.44281173870605e-07
Setting atom values ...
  1 settings made for x
  1 settings made for y
  1 settings made for z
Setting up cg style minimization ...
  Unit style    : metal
  Current step  : 3495
Per MPI rank memory allocation (min/avg/max) = 5.465 | 6.344 | 6.728 Mbytes
Step PotEng KinEng TotEng v_fx v_fy v_fz 
    3495     -1152449            0     -1152449  0.055126774  0.062101549 -0.050330368 
    3672     -1152449            0     -1152449 3.1952154e-05 4.2026913e-05 7.032277e-07 
Loop time of 3.86943 on 52 procs for 177 steps with 288751 atoms

99.9% CPU use with 52 MPI tasks x 1 OpenMP threads

Minimization stats:
  Stopping criterion = linesearch alpha is zero
  Energy initial, next-to-last, final = 
     -1152449.01681885   -1152449.0194042   -1152449.0194042
  Force two-norm initial, final = 0.20995031 0.00020272567
  Force max component initial, final = 0.14967568 4.2026913e-05
  Final line search alpha, max atom move = 0.25 1.0506728e-05
  Iterations, force evaluations = 177 357

MPI task timing breakdown:
Section |  min time  |  avg time  |  max time  |%varavg| %total
---------------------------------------------------------------
Pair    | 1.0058     | 2.8419     | 3.7188     |  46.9 | 73.44
Neigh   | 0          | 0          | 0          |   0.0 |  0.00
Comm    | 0.046264   | 0.62475    | 1.9789     |  71.9 | 16.15
Output  | 0          | 0          | 0          |   0.0 |  0.00
Modify  | 7.0019e-05 | 0.0059569  | 0.012613   |   3.6 |  0.15
Other   |            | 0.3969     |            |       | 10.26

Nlocal:        5552.90 ave        7857 max           0 min
Histogram: 4 2 2 0 2 6 4 0 13 19
Nghost:        6213.62 ave        8769 max         412 min
Histogram: 4 0 4 0 8 0 4 5 7 20
Neighs:       158426.0 ave      228883 max           0 min
Histogram: 4 2 2 0 4 4 4 4 10 18

Total # of neighbors = 8238178
Ave neighs/atom = 28.530388
Neighbor list builds = 0
Dangerous builds = 0
The dot product: 1.0489594427631e-06
Setting atom values ...
  1 settings made for x
  1 settings made for y
  1 settings made for z
Setting up cg style minimization ...
  Unit style    : metal
  Current step  : 3672
Per MPI rank memory allocation (min/avg/max) = 5.465 | 6.344 | 6.728 Mbytes
Step PotEng KinEng TotEng v_fx v_fy v_fz 
    3672     -1152449            0     -1152449  0.053668801  0.065149208 -0.068635411 
    3863     -1152449            0     -1152449 5.5182957e-06 7.6167954e-06 -1.5737368e-06 
Loop time of 4.15187 on 52 procs for 191 steps with 288751 atoms

99.9% CPU use with 52 MPI tasks x 1 OpenMP threads

Minimization stats:
  Stopping criterion = energy tolerance
  Energy initial, next-to-last, final = 
     -1152448.98210768  -1152448.98488897  -1152448.98488897
  Force two-norm initial, final = 0.2184879 0.00011920482
  Force max component initial, final = 0.15358532 7.6167954e-06
  Final line search alpha, max atom move = 1.0000000 7.6167954e-06
  Iterations, force evaluations = 191 382

MPI task timing breakdown:
Section |  min time  |  avg time  |  max time  |%varavg| %total
---------------------------------------------------------------
Pair    | 1.0792     | 3.0334     | 3.9865     |  48.3 | 73.06
Neigh   | 0          | 0          | 0          |   0.0 |  0.00
Comm    | 0.050606   | 0.6708     | 2.1242     |  73.9 | 16.16
Output  | 0          | 0          | 0          |   0.0 |  0.00
Modify  | 8.1114e-05 | 0.0063626  | 0.013486   |   3.7 |  0.15
Other   |            | 0.4413     |            |       | 10.63

Nlocal:        5552.90 ave        7857 max           0 min
Histogram: 4 2 2 0 2 6 4 0 13 19
Nghost:        6213.50 ave        8769 max         412 min
Histogram: 4 0 4 0 8 0 4 5 7 20
Neighs:       158426.0 ave      228878 max           0 min
Histogram: 4 2 2 0 4 4 4 4 10 18

Total # of neighbors = 8238178
Ave neighs/atom = 28.530388
Neighbor list builds = 0
Dangerous builds = 0
The dot product: 2.04084136177028e-07
Setting atom values ...
  1 settings made for x
  1 settings made for y
  1 settings made for z
Setting up cg style minimization ...
  Unit style    : metal
  Current step  : 3863
Per MPI rank memory allocation (min/avg/max) = 5.465 | 6.344 | 6.728 Mbytes
Step PotEng KinEng TotEng v_fx v_fy v_fz 
    3863   -1152448.9            0   -1152448.9  0.047437128  0.063624636 -0.081750024 
    4000     -1152449            0     -1152449 -0.0033117926  -0.00503007 0.00078158106 
    4222     -1152449            0     -1152449 5.1382993e-06  7.20742e-06 -6.2108843e-06 
Loop time of 7.81494 on 52 procs for 359 steps with 288751 atoms

99.9% CPU use with 52 MPI tasks x 1 OpenMP threads

Minimization stats:
  Stopping criterion = energy tolerance
  Energy initial, next-to-last, final = 
       -1152448.946724  -1152448.98109732  -1152448.98109732
  Force two-norm initial, final = 0.22437923 8.7309510e-05
  Force max component initial, final = 0.15707326 7.2074200e-06
  Final line search alpha, max atom move = 1.0000000 7.2074200e-06
  Iterations, force evaluations = 359 718

MPI task timing breakdown:
Section |  min time  |  avg time  |  max time  |%varavg| %total
---------------------------------------------------------------
Pair    | 2.0467     | 5.7207     | 7.4821     |  66.0 | 73.20
Neigh   | 3.8262e-05 | 0.011431   | 0.016896   |   4.5 |  0.15
Comm    | 0.098309   | 1.2727     | 4.0107     | 101.3 | 16.29
Output  | 0.00011907 | 0.00012368 | 0.00029912 |   0.0 |  0.00
Modify  | 0.00014093 | 0.011949   | 0.025163   |   5.1 |  0.15
Other   |            | 0.798      |            |       | 10.21

Nlocal:        5552.90 ave        7884 max           0 min
Histogram: 4 2 2 0 2 6 4 0 14 18
Nghost:        6213.50 ave        8771 max         412 min
Histogram: 4 0 4 0 8 0 4 5 8 19
Neighs:       158427.0 ave      229713 max           0 min
Histogram: 4 2 2 0 5 3 4 4 11 17

Total # of neighbors = 8238182
Ave neighs/atom = 28.530402
Neighbor list builds = 2
Dangerous builds = 0
The dot product: 6.09582705328637e-07
Setting atom values ...
  1 settings made for x
  1 settings made for y
  1 settings made for z
Setting up cg style minimization ...
  Unit style    : metal
  Current step  : 4222
Per MPI rank memory allocation (min/avg/max) = 5.465 | 6.344 | 6.728 Mbytes
Step PotEng KinEng TotEng v_fx v_fy v_fz 
    4222     -1152449            0     -1152449  0.021541494   0.05175091  -0.14004807 
    4417     -1152449            0     -1152449 1.8724532e-05 3.1154478e-05 8.3346217e-06 
Loop time of 4.2834 on 52 procs for 195 steps with 288751 atoms

99.9% CPU use with 52 MPI tasks x 1 OpenMP threads

Minimization stats:
  Stopping criterion = linesearch alpha is zero
  Energy initial, next-to-last, final = 
      -1152448.9587458  -1152448.96262627  -1152448.96262627
  Force two-norm initial, final = 0.25577856 0.00017069657
  Force max component initial, final = 0.1643956 4.1124258e-05
  Final line search alpha, max atom move = 0.25 1.0281065e-05
  Iterations, force evaluations = 195 393

MPI task timing breakdown:
Section |  min time  |  avg time  |  max time  |%varavg| %total
---------------------------------------------------------------
Pair    | 1.1083     | 3.1244     | 4.1065     |  49.1 | 72.94
Neigh   | 0          | 0          | 0          |   0.0 |  0.00
Comm    | 0.050784   | 0.68966    | 2.1815     |  75.1 | 16.10
Output  | 0          | 0          | 0          |   0.0 |  0.00
Modify  | 7.9499e-05 | 0.0065863  | 0.013887   |   3.8 |  0.15
Other   |            | 0.4628     |            |       | 10.80

Nlocal:        5552.90 ave        7875 max           0 min
Histogram: 4 2 2 0 2 6 4 0 14 18
Nghost:        6213.54 ave        8769 max         412 min
Histogram: 4 0 4 0 8 0 4 5 7 20
Neighs:       158427.0 ave      229445 max           0 min
Histogram: 4 2 2 0 4 4 4 4 11 17

Total # of neighbors = 8238183
Ave neighs/atom = 28.530405
Neighbor list builds = 0
Dangerous builds = 0
The dot product: 1.32598094231339e-07
Setting atom values ...
  1 settings made for x
  1 settings made for y
  1 settings made for z
Setting up cg style minimization ...
  Unit style    : metal
  Current step  : 4417
Per MPI rank memory allocation (min/avg/max) = 5.465 | 6.344 | 6.728 Mbytes
Step PotEng KinEng TotEng v_fx v_fy v_fz 
    4417   -1152448.9            0   -1152448.9 0.0059179781  0.025069432 -0.068535747 
    4584   -1152448.9            0   -1152448.9 8.5298316e-06 1.0725242e-05 2.1219333e-05 
Loop time of 3.65195 on 52 procs for 167 steps with 288751 atoms

99.9% CPU use with 52 MPI tasks x 1 OpenMP threads

Minimization stats:
  Stopping criterion = linesearch alpha is zero
  Energy initial, next-to-last, final = 
     -1152448.94018501  -1152448.94254853  -1152448.94254853
  Force two-norm initial, final = 0.22360497 0.00011512125
  Force max component initial, final = 0.16591063 2.1219333e-05
  Final line search alpha, max atom move = 0.5 1.0609667e-05
  Iterations, force evaluations = 167 335

MPI task timing breakdown:
Section |  min time  |  avg time  |  max time  |%varavg| %total
---------------------------------------------------------------
Pair    | 0.9464     | 2.6664     | 3.5088     |  45.4 | 73.01
Neigh   | 0          | 0          | 0          |   0.0 |  0.00
Comm    | 0.042931   | 0.58919    | 1.8532     |  69.4 | 16.13
Output  | 0          | 0          | 0          |   0.0 |  0.00
Modify  | 6.6072e-05 | 0.0055794  | 0.011704   |   3.5 |  0.15
Other   |            | 0.3908     |            |       | 10.70

Nlocal:        5552.90 ave        7882 max           0 min
Histogram: 4 2 2 0 2 6 4 0 14 18
Nghost:        6213.58 ave        8770 max         412 min
Histogram: 4 0 4 0 8 0 4 5 7 20
Neighs:       158427.0 ave      229629 max           0 min
Histogram: 4 2 2 0 5 3 4 4 11 17

Total # of neighbors = 8238184
Ave neighs/atom = 28.530409
Neighbor list builds = 0
Dangerous builds = 0
The dot product: -2.3020730525138e-07
Setting atom values ...
  1 settings made for x
  1 settings made for y
  1 settings made for z
Setting up cg style minimization ...
  Unit style    : metal
  Current step  : 4584
Per MPI rank memory allocation (min/avg/max) = 5.465 | 6.344 | 6.728 Mbytes
Step PotEng KinEng TotEng v_fx v_fy v_fz 
    4584   -1152448.9            0   -1152448.9 0.0010626064  0.012820971 -0.041431336 
    4774   -1152448.9            0   -1152448.9 -6.8396468e-06 -1.017234e-05 -8.5059099e-06 
Loop time of 4.16022 on 52 procs for 190 steps with 288751 atoms

99.9% CPU use with 52 MPI tasks x 1 OpenMP threads

Minimization stats:
  Stopping criterion = energy tolerance
  Energy initial, next-to-last, final = 
     -1152448.92010112  -1152448.92238894  -1152448.92238894
  Force two-norm initial, final = 0.2208226 4.8840459e-05
  Force max component initial, final = 0.16767894 1.0172340e-05
  Final line search alpha, max atom move = 1.0000000 1.0172340e-05
  Iterations, force evaluations = 190 382

MPI task timing breakdown:
Section |  min time  |  avg time  |  max time  |%varavg| %total
---------------------------------------------------------------
Pair    | 1.0841     | 3.0366     | 3.9897     |  48.1 | 72.99
Neigh   | 0          | 0          | 0          |   0.0 |  0.00
Comm    | 0.048731   | 0.6717     | 2.1296     |  73.9 | 16.15
Output  | 0          | 0          | 0          |   0.0 |  0.00
Modify  | 7.532e-05  | 0.0064021  | 0.013541   |   3.7 |  0.15
Other   |            | 0.4455     |            |       | 10.71

Nlocal:        5552.90 ave        7882 max           0 min
Histogram: 4 2 2 0 2 6 4 0 14 18
Nghost:        6213.58 ave        8770 max         412 min
Histogram: 4 0 4 0 8 0 4 5 7 20
Neighs:       158427.0 ave      229622 max           0 min
Histogram: 4 2 2 0 5 3 4 4 11 17

Total # of neighbors = 8238185
Ave neighs/atom = 28.530412
Neighbor list builds = 0
Dangerous builds = 0
The dot product: 4.71853222433528e-08
Setting atom values ...
  1 settings made for x
  1 settings made for y
  1 settings made for z
Setting up cg style minimization ...
  Unit style    : metal
  Current step  : 4774
Per MPI rank memory allocation (min/avg/max) = 5.465 | 6.344 | 6.728 Mbytes
Step PotEng KinEng TotEng v_fx v_fy v_fz 
    4774   -1152448.9            0   -1152448.9 -0.00054700016 0.0079023845 -0.030289825 
    4895   -1152448.9            0   -1152448.9  4.55973e-06 -2.1086251e-06 3.5542389e-05 
Loop time of 2.64283 on 52 procs for 121 steps with 288751 atoms

99.9% CPU use with 52 MPI tasks x 1 OpenMP threads

Minimization stats:
  Stopping criterion = energy tolerance
  Energy initial, next-to-last, final = 
     -1152448.90013402  -1152448.90212279  -1152448.90212279
  Force two-norm initial, final = 0.22079952 0.00026574051
  Force max component initial, final = 0.16966557 4.6325840e-05
  Final line search alpha, max atom move = 1.0000000 4.6325840e-05
  Iterations, force evaluations = 121 242

MPI task timing breakdown:
Section |  min time  |  avg time  |  max time  |%varavg| %total
---------------------------------------------------------------
Pair    | 0.68375    | 1.9263     | 2.5406     |  38.6 | 72.89
Neigh   | 0          | 0          | 0          |   0.0 |  0.00
Comm    | 0.031535   | 0.42608    | 1.3369     |  59.0 | 16.12
Output  | 0          | 0          | 0          |   0.0 |  0.00
Modify  | 4.7123e-05 | 0.0040446  | 0.0085096  |   3.0 |  0.15
Other   |            | 0.2864     |            |       | 10.84

Nlocal:        5552.90 ave        7884 max           0 min
Histogram: 4 2 2 0 2 6 4 0 14 18
Nghost:        6213.58 ave        8770 max         412 min
Histogram: 4 0 4 0 8 0 4 5 7 20
Neighs:       158427.0 ave      229693 max           0 min
Histogram: 4 2 2 0 5 3 4 4 11 17

Total # of neighbors = 8238182
Ave neighs/atom = 28.530402
Neighbor list builds = 0
Dangerous builds = 0
The dot product: -1.72686900714261e-07
Setting atom values ...
  1 settings made for x
  1 settings made for y
  1 settings made for z
Setting up cg style minimization ...
  Unit style    : metal
  Current step  : 4895
Per MPI rank memory allocation (min/avg/max) = 5.465 | 6.344 | 6.728 Mbytes
Step PotEng KinEng TotEng v_fx v_fy v_fz 
    4895   -1152448.9            0   -1152448.9 -0.00043322029 0.0055105645 -0.020259151 
    5000   -1152448.9            0   -1152448.9 -6.8522122e-06 -1.1947325e-05 -2.0019471e-06 
    5084   -1152448.9            0   -1152448.9 4.7884111e-07 1.5353096e-06 -2.1105587e-06 
Loop time of 4.12382 on 52 procs for 189 steps with 288751 atoms

99.9% CPU use with 52 MPI tasks x 1 OpenMP threads

Minimization stats:
  Stopping criterion = linesearch alpha is zero
  Energy initial, next-to-last, final = 
     -1152448.87880632  -1152448.88061393  -1152448.88061393
  Force two-norm initial, final = 0.21927296 8.8223392e-05
  Force max component initial, final = 0.17170919 1.3457051e-05
  Final line search alpha, max atom move = 0.5 6.7285257e-06
  Iterations, force evaluations = 189 379

MPI task timing breakdown:
Section |  min time  |  avg time  |  max time  |%varavg| %total
---------------------------------------------------------------
Pair    | 1.0706     | 3.0056     | 3.9596     |  48.1 | 72.88
Neigh   | 0          | 0          | 0          |   0.0 |  0.00
Comm    | 0.050025   | 0.66711    | 2.1095     |  73.5 | 16.18
Output  | 0.00019983 | 0.00020525 | 0.00040624 |   0.0 |  0.00
Modify  | 7.817e-05  | 0.0063481  | 0.013325   |   3.7 |  0.15
Other   |            | 0.4445     |            |       | 10.78

Nlocal:        5552.90 ave        7881 max           0 min
Histogram: 4 2 2 0 2 6 4 0 14 18
Nghost:        6213.54 ave        8770 max         412 min
Histogram: 4 0 4 0 8 0 4 5 7 20
Neighs:       158427.0 ave      229600 max           0 min
Histogram: 4 2 2 0 5 3 4 4 11 17

Total # of neighbors = 8238180
Ave neighs/atom = 28.530395
Neighbor list builds = 0
Dangerous builds = 0
The dot product: 4.54981655867055e-09
Setting atom values ...
  1 settings made for x
  1 settings made for y
  1 settings made for z
Setting up cg style minimization ...
  Unit style    : metal
  Current step  : 5084
Per MPI rank memory allocation (min/avg/max) = 5.465 | 6.344 | 6.728 Mbytes
Step PotEng KinEng TotEng v_fx v_fy v_fz 
    5084   -1152448.9            0   -1152448.9 -0.00023586021 0.0038614128  -0.01348367 
    5207   -1152448.9            0   -1152448.9 -1.6935194e-06 -3.770323e-06 2.0861612e-06 
Loop time of 2.68126 on 52 procs for 123 steps with 288751 atoms

99.9% CPU use with 52 MPI tasks x 1 OpenMP threads

Minimization stats:
  Stopping criterion = energy tolerance
  Energy initial, next-to-last, final = 
     -1152448.85529825  -1152448.85721743  -1152448.85721743
  Force two-norm initial, final = 0.2231785 0.0002888861
  Force max component initial, final = 0.17394178 9.3843023e-05
  Final line search alpha, max atom move = 1.0000000 9.3843023e-05
  Iterations, force evaluations = 123 246

MPI task timing breakdown:
Section |  min time  |  avg time  |  max time  |%varavg| %total
---------------------------------------------------------------
Pair    | 0.6971     | 1.9665     | 2.5715     |  38.9 | 73.34
Neigh   | 0          | 0          | 0          |   0.0 |  0.00
Comm    | 0.03286    | 0.43243    | 1.3752     |  59.8 | 16.13
Output  | 0          | 0          | 0          |   0.0 |  0.00
Modify  | 4.7068e-05 | 0.0041133  | 0.0086989  |   3.0 |  0.15
Other   |            | 0.2782     |            |       | 10.38

Nlocal:        5552.90 ave        7879 max           0 min
Histogram: 4 2 2 0 2 6 4 0 14 18
Nghost:        6213.54 ave        8770 max         412 min
Histogram: 4 0 4 0 8 0 4 5 7 20
Neighs:       158427.0 ave      229535 max           0 min
Histogram: 4 2 2 0 5 3 4 4 11 17

Total # of neighbors = 8238179
Ave neighs/atom = 28.530391
Neighbor list builds = 0
Dangerous builds = 0
The dot product: 8.20487071330811e-10
Setting atom values ...
  1 settings made for x
  1 settings made for y
  1 settings made for z
Setting up cg style minimization ...
  Unit style    : metal
  Current step  : 5207
Per MPI rank memory allocation (min/avg/max) = 5.465 | 6.344 | 6.728 Mbytes
Step PotEng KinEng TotEng v_fx v_fy v_fz 
    5207   -1152448.8            0   -1152448.8 -0.00010274972 0.0029404313 -0.0097681664 
    5354   -1152448.8            0   -1152448.8 2.7906866e-05 3.9780969e-05 3.5268098e-05 
Loop time of 3.20734 on 52 procs for 147 steps with 288751 atoms

99.9% CPU use with 52 MPI tasks x 1 OpenMP threads

Minimization stats:
  Stopping criterion = energy tolerance
  Energy initial, next-to-last, final = 
     -1152448.82967063  -1152448.83170172  -1152448.83170172
  Force two-norm initial, final = 0.22773286 0.00029978746
  Force max component initial, final = 0.17609386 8.3530305e-05
  Final line search alpha, max atom move = 1.0000000 8.3530305e-05
  Iterations, force evaluations = 147 294

MPI task timing breakdown:
Section |  min time  |  avg time  |  max time  |%varavg| %total
---------------------------------------------------------------
Pair    | 0.83086    | 2.3343     | 3.0756     |  42.4 | 72.78
Neigh   | 0          | 0          | 0          |   0.0 |  0.00
Comm    | 0.039321   | 0.51851    | 1.6367     |  64.6 | 16.17
Output  | 0          | 0          | 0          |   0.0 |  0.00
Modify  | 6.5906e-05 | 0.0049237  | 0.010334   |   3.3 |  0.15
Other   |            | 0.3496     |            |       | 10.90

Nlocal:        5552.90 ave        7874 max           0 min
Histogram: 4 2 2 0 2 6 4 0 14 18
Nghost:        6213.54 ave        8770 max         412 min
Histogram: 4 0 4 0 8 0 4 5 7 20
Neighs:       158426.0 ave      229387 max           0 min
Histogram: 4 2 2 0 4 4 4 4 11 17

Total # of neighbors = 8238177
Ave neighs/atom = 28.530384
Neighbor list builds = 0
Dangerous builds = 0
The dot product: -4.17242187454842e-08
Setting atom values ...
  1 settings made for x
  1 settings made for y
  1 settings made for z
Setting up cg style minimization ...
  Unit style    : metal
  Current step  : 5354
Per MPI rank memory allocation (min/avg/max) = 5.465 | 6.344 | 6.728 Mbytes
Step PotEng KinEng TotEng v_fx v_fy v_fz 
    5354   -1152448.8            0   -1152448.8 6.3589675e-05 0.0025629609 -0.0076520771 
    5549   -1152448.8            0   -1152448.8 -5.0371905e-06 -8.3873296e-06 -2.5188077e-06 
Loop time of 4.29277 on 52 procs for 195 steps with 288751 atoms

99.9% CPU use with 52 MPI tasks x 1 OpenMP threads

Minimization stats:
  Stopping criterion = linesearch alpha is zero
  Energy initial, next-to-last, final = 
     -1152448.80181064  -1152448.80394152  -1152448.80394152
  Force two-norm initial, final = 0.2323173 9.8633888e-05
  Force max component initial, final = 0.17843422 2.7734605e-05
  Final line search alpha, max atom move = 0.5 1.3867303e-05
  Iterations, force evaluations = 195 393

MPI task timing breakdown:
Section |  min time  |  avg time  |  max time  |%varavg| %total
---------------------------------------------------------------
Pair    | 1.1064     | 3.1306     | 4.114      |  49.4 | 72.93
Neigh   | 0          | 0          | 0          |   0.0 |  0.00
Comm    | 0.050694   | 0.69197    | 2.1834     |  74.9 | 16.12
Output  | 0          | 0          | 0          |   0.0 |  0.00
Modify  | 7.4235e-05 | 0.006545   | 0.013845   |   3.8 |  0.15
Other   |            | 0.4637     |            |       | 10.80

Nlocal:        5552.90 ave        7865 max           0 min
Histogram: 4 2 2 0 2 6 4 0 13 19
Nghost:        6213.54 ave        8770 max         412 min
Histogram: 4 0 4 0 8 0 4 5 7 20
Neighs:       158426.0 ave      229101 max           0 min
Histogram: 4 2 2 0 4 4 4 4 10 18

Total # of neighbors = 8238176
Ave neighs/atom = 28.530381
Neighbor list builds = 0
Dangerous builds = 0
The dot product: 8.08612082569542e-09
Setting atom values ...
  1 settings made for x
  1 settings made for y
  1 settings made for z
Setting up cg style minimization ...
  Unit style    : metal
  Current step  : 5549
Per MPI rank memory allocation (min/avg/max) = 5.465 | 6.344 | 6.728 Mbytes
Step PotEng KinEng TotEng v_fx v_fy v_fz 
    5549   -1152448.8            0   -1152448.8 0.00026125244 0.0025534238 -0.0065302676 
    5707   -1152448.8            0   -1152448.8 1.4405476e-06 4.4326896e-06 -5.6933416e-06 
Loop time of 3.44301 on 52 procs for 158 steps with 288751 atoms

99.9% CPU use with 52 MPI tasks x 1 OpenMP threads

Minimization stats:
  Stopping criterion = energy tolerance
  Energy initial, next-to-last, final = 
      -1152448.7716424  -1152448.77384979  -1152448.77384979
  Force two-norm initial, final = 0.2364017 0.00020755919
  Force max component initial, final = 0.18091827 7.2274490e-05
  Final line search alpha, max atom move = 1.0000000 7.2274490e-05
  Iterations, force evaluations = 158 318

MPI task timing breakdown:
Section |  min time  |  avg time  |  max time  |%varavg| %total
---------------------------------------------------------------
Pair    | 0.89457    | 2.521      | 3.3027     |  44.1 | 73.22
Neigh   | 0          | 0          | 0          |   0.0 |  0.00
Comm    | 0.040399   | 0.5545     | 1.7582     |  67.8 | 16.11
Output  | 0          | 0          | 0          |   0.0 |  0.00
Modify  | 6.2078e-05 | 0.0053159  | 0.011157   |   3.4 |  0.15
Other   |            | 0.3622     |            |       | 10.52

Nlocal:        5552.90 ave        7856 max           0 min
Histogram: 4 2 2 0 2 6 4 0 13 19
Nghost:        6213.54 ave        8770 max         412 min
Histogram: 4 0 4 0 8 0 4 5 7 20
Neighs:       158426.0 ave      228803 max           0 min
Histogram: 4 2 2 0 4 4 4 4 10 18

Total # of neighbors = 8238169
Ave neighs/atom = 28.530357
Neighbor list builds = 0
Dangerous builds = 0
The dot product: -7.12179788226918e-09
Setting atom values ...
  1 settings made for x
  1 settings made for y
  1 settings made for z
Setting up cg style minimization ...
  Unit style    : metal
  Current step  : 5707
Per MPI rank memory allocation (min/avg/max) = 5.465 | 6.344 | 6.728 Mbytes
Step PotEng KinEng TotEng v_fx v_fy v_fz 
    5707   -1152448.7            0   -1152448.7 0.00056381277 0.0028561736 -0.0058028497 
    5847   -1152448.7            0   -1152448.7 -5.2801025e-07 -1.3807057e-06 1.3384982e-06 
Loop time of 3.03714 on 52 procs for 140 steps with 288751 atoms

99.9% CPU use with 52 MPI tasks x 1 OpenMP threads

Minimization stats:
  Stopping criterion = energy tolerance
  Energy initial, next-to-last, final = 
     -1152448.73910982  -1152448.74137056  -1152448.74137056
  Force two-norm initial, final = 0.23965669 0.00024458946
  Force max component initial, final = 0.18336366 7.0131801e-05
  Final line search alpha, max atom move = 1.0000000 7.0131801e-05
  Iterations, force evaluations = 140 280

MPI task timing breakdown:
Section |  min time  |  avg time  |  max time  |%varavg| %total
---------------------------------------------------------------
Pair    | 0.79076    | 2.2269     | 2.9195     |  41.5 | 73.32
Neigh   | 0          | 0          | 0          |   0.0 |  0.00
Comm    | 0.03576    | 0.49074    | 1.5445     |  63.5 | 16.16
Output  | 0          | 0          | 0          |   0.0 |  0.00
Modify  | 5.8191e-05 | 0.0046717  | 0.0098285  |   3.2 |  0.15
Other   |            | 0.3149     |            |       | 10.37

Nlocal:        5552.90 ave        7856 max           0 min
Histogram: 4 2 2 0 2 6 4 0 13 19
Nghost:        6213.46 ave        8770 max         412 min
Histogram: 4 0 4 0 8 0 4 5 7 20
Neighs:       158426.0 ave      228801 max           0 min
Histogram: 4 2 2 0 4 4 4 4 10 18

Total # of neighbors = 8238166
Ave neighs/atom = 28.530346
Neighbor list builds = 0
Dangerous builds = 0
The dot product: 2.12880033399213e-09
Setting atom values ...
  1 settings made for x
  1 settings made for y
  1 settings made for z
Setting up cg style minimization ...
  Unit style    : metal
  Current step  : 5847
Per MPI rank memory allocation (min/avg/max) = 5.465 | 6.344 | 6.728 Mbytes
Step PotEng KinEng TotEng v_fx v_fy v_fz 
    5847   -1152448.7            0   -1152448.7 0.0008650541 0.0033318646 -0.0056379713 
    6000   -1152448.7            0   -1152448.7 -3.8764504e-06 -6.9962474e-06 -5.2795578e-08 
    6028   -1152448.7            0   -1152448.7 4.7409475e-06 8.1032016e-06 1.510974e-06 
Loop time of 3.93948 on 52 procs for 181 steps with 288751 atoms

99.9% CPU use with 52 MPI tasks x 1 OpenMP threads

Minimization stats:
  Stopping criterion = energy tolerance
  Energy initial, next-to-last, final = 
     -1152448.70418267  -1152448.70647524  -1152448.70647524
  Force two-norm initial, final = 0.24217176 0.00023327561
  Force max component initial, final = 0.18578481 7.6739633e-05
  Final line search alpha, max atom move = 1.0000000 7.6739633e-05
  Iterations, force evaluations = 181 362

MPI task timing breakdown:
Section |  min time  |  avg time  |  max time  |%varavg| %total
---------------------------------------------------------------
Pair    | 1.0231     | 2.877      | 3.7809     |  47.0 | 73.03
Neigh   | 0          | 0          | 0          |   0.0 |  0.00
Comm    | 0.046256   | 0.63462    | 2.0174     |  72.1 | 16.11
Output  | 0.00011717 | 0.00012215 | 0.00032631 |   0.0 |  0.00
Modify  | 7.882e-05  | 0.0060341  | 0.012809   |   3.6 |  0.15
Other   |            | 0.4217     |            |       | 10.70

Nlocal:        5552.90 ave        7856 max           0 min
Histogram: 4 2 2 0 2 6 4 0 13 19
Nghost:        6213.42 ave        8771 max         412 min
Histogram: 4 0 4 0 8 0 4 5 7 20
Neighs:       158426.0 ave      228805 max           0 min
Histogram: 4 2 2 0 4 4 4 4 10 18

Total # of neighbors = 8238166
Ave neighs/atom = 28.530346
Neighbor list builds = 0
Dangerous builds = 0
The dot product: -6.01715735396436e-09
Setting atom values ...
  1 settings made for x
  1 settings made for y
  1 settings made for z
Setting up cg style minimization ...
  Unit style    : metal
  Current step  : 6028
Per MPI rank memory allocation (min/avg/max) = 5.465 | 6.344 | 6.728 Mbytes
Step PotEng KinEng TotEng v_fx v_fy v_fz 
    6028   -1152448.7            0   -1152448.7 0.0011764048 0.0039949903 -0.0060212142 
    6193   -1152448.7            0   -1152448.7 -7.2042868e-06 -1.6195552e-05 1.0272217e-05 
Loop time of 3.58555 on 52 procs for 165 steps with 288751 atoms

99.9% CPU use with 52 MPI tasks x 1 OpenMP threads

Minimization stats:
  Stopping criterion = energy tolerance
  Energy initial, next-to-last, final = 
     -1152448.66685316  -1152448.66915812  -1152448.66915812
  Force two-norm initial, final = 0.24401671 0.00021336998
  Force max component initial, final = 0.18807899 7.9954573e-05
  Final line search alpha, max atom move = 1.0000000 7.9954573e-05
  Iterations, force evaluations = 165 330

MPI task timing breakdown:
Section |  min time  |  avg time  |  max time  |%varavg| %total
---------------------------------------------------------------
Pair    | 0.93358    | 2.6274     | 3.4367     |  45.0 | 73.28
Neigh   | 0          | 0          | 0          |   0.0 |  0.00
Comm    | 0.042651   | 0.57821    | 1.8258     |  69.3 | 16.13
Output  | 0          | 0          | 0          |   0.0 |  0.00
Modify  | 6.5976e-05 | 0.0055056  | 0.011585   |   3.5 |  0.15
Other   |            | 0.3744     |            |       | 10.44

Nlocal:        5552.90 ave        7856 max           0 min
Histogram: 4 2 2 0 2 6 4 0 13 19
Nghost:        6213.38 ave        8771 max         412 min
Histogram: 4 0 4 0 8 0 4 5 7 20
Neighs:       158426.0 ave      228806 max           0 min
Histogram: 4 2 2 0 4 4 4 4 10 18

Total # of neighbors = 8238163
Ave neighs/atom = 28.530336
Neighbor list builds = 0
Dangerous builds = 0
The dot product: 1.97708916651358e-08
Setting atom values ...
  1 settings made for x
  1 settings made for y
  1 settings made for z
Setting up cg style minimization ...
  Unit style    : metal
  Current step  : 6193
Per MPI rank memory allocation (min/avg/max) = 5.465 | 6.344 | 6.728 Mbytes
Step PotEng KinEng TotEng v_fx v_fy v_fz 
    6193   -1152448.6            0   -1152448.6 0.0015281634 0.0047790331 -0.0065741438 
    6392   -1152448.6            0   -1152448.6 6.5241164e-07 1.0040294e-06 5.5500762e-07 
Loop time of 4.33579 on 52 procs for 199 steps with 288751 atoms

99.9% CPU use with 52 MPI tasks x 1 OpenMP threads

Minimization stats:
  Stopping criterion = linesearch alpha is zero
  Energy initial, next-to-last, final = 
     -1152448.62712932  -1152448.62943434  -1152448.62943434
  Force two-norm initial, final = 0.2456255 0.00010176936
[...]
Histogram: 4 0 4 0 8 0 4 5 7 20
Neighs:       158426.0 ave      230595 max           0 min
Histogram: 4 2 2 0 5 3 4 4 12 16

Total # of neighbors = 8238174
Ave neighs/atom = 28.530374
Neighbor list builds = 0
Dangerous builds = 0
The dot product: 3.25692937472285e-08
Setting atom values ...
  1 settings made for x
  1 settings made for y
  1 settings made for z
Setting up cg style minimization ...
  Unit style    : metal
  Current step  : 25504
Per MPI rank memory allocation (min/avg/max) = 5.465 | 6.344 | 6.728 Mbytes
Step PotEng KinEng TotEng v_fx v_fy v_fz 
   25504   -1152449.1            0   -1152449.1 0.0067345416 -0.0028376004 0.0096470382 
   25648   -1152449.1            0   -1152449.1 -1.0943767e-05 -4.3080131e-05 -1.5756434e-05 
Loop time of 3.23348 on 52 procs for 144 steps with 288751 atoms

99.9% CPU use with 52 MPI tasks x 1 OpenMP threads

Minimization stats:
  Stopping criterion = linesearch alpha is zero
  Energy initial, next-to-last, final = 
     -1152449.10618799  -1152449.10754782  -1152449.10754782
  Force two-norm initial, final = 0.16201191 0.00024938395
  Force max component initial, final = 0.076778532 4.3080131e-05
  Final line search alpha, max atom move = 0.125 5.3850163e-06
  Iterations, force evaluations = 144 293

MPI task timing breakdown:
Section |  min time  |  avg time  |  max time  |%varavg| %total
---------------------------------------------------------------
Pair    | 0.82327    | 2.3329     | 3.1106     |  42.7 | 72.15
Neigh   | 0          | 0          | 0          |   0.0 |  0.00
Comm    | 0.03892    | 0.51941    | 1.6256     |  64.2 | 16.06
Output  | 0          | 0          | 0          |   0.0 |  0.00
Modify  | 4.6882e-05 | 0.0049252  | 0.010743   |   3.3 |  0.15
Other   |            | 0.3763     |            |       | 11.64

Nlocal:        5552.90 ave        7911 max           0 min
Histogram: 4 2 2 0 2 6 4 0 15 17
Nghost:        6213.65 ave        8772 max         412 min
Histogram: 4 0 4 0 8 0 4 5 7 20
Neighs:       158426.0 ave      230595 max           0 min
Histogram: 4 2 2 0 5 3 4 4 12 16

Total # of neighbors = 8238172
Ave neighs/atom = 28.530367
Neighbor list builds = 0
Dangerous builds = 0
The dot product: 5.12402193994022e-08
Setting atom values ...
  1 settings made for x
  1 settings made for y
  1 settings made for z
Setting up cg style minimization ...
  Unit style    : metal
  Current step  : 25648
Per MPI rank memory allocation (min/avg/max) = 5.465 | 6.344 | 6.728 Mbytes
Step PotEng KinEng TotEng v_fx v_fy v_fz 
   25648   -1152449.1            0   -1152449.1 0.0058097065 -0.002167662  0.008331714 
   25823   -1152449.1            0   -1152449.1 -3.92078e-06 -1.340652e-05 -5.6333872e-06 
Loop time of 3.88166 on 52 procs for 175 steps with 288751 atoms

99.8% CPU use with 52 MPI tasks x 1 OpenMP threads

Minimization stats:
  Stopping criterion = linesearch alpha is zero
  Energy initial, next-to-last, final = 
     -1152449.08636235  -1152449.08776056  -1152449.08776056
  Force two-norm initial, final = 0.16179668 0.00012564652
  Force max component initial, final = 0.077186378 1.3406520e-05
  Final line search alpha, max atom move = 0.5 6.7032599e-06
  Iterations, force evaluations = 175 351

MPI task timing breakdown:
Section |  min time  |  avg time  |  max time  |%varavg| %total
---------------------------------------------------------------
Pair    | 0.98768    | 2.7935     | 3.7246     |  46.3 | 71.97
Neigh   | 0          | 0          | 0          |   0.0 |  0.00
Comm    | 0.043679   | 0.62122    | 1.9357     |  70.6 | 16.00
Output  | 0          | 0          | 0          |   0.0 |  0.00
Modify  | 6.5912e-05 | 0.0057991  | 0.012305   |   3.6 |  0.15
Other   |            | 0.4612     |            |       | 11.88

Nlocal:        5552.90 ave        7912 max           0 min
Histogram: 4 2 2 0 2 6 4 0 15 17
Nghost:        6213.65 ave        8772 max         412 min
Histogram: 4 0 4 0 8 0 4 5 7 20
Neighs:       158426.0 ave      230620 max           0 min
Histogram: 4 2 2 0 5 3 4 4 12 16

Total # of neighbors = 8238172
Ave neighs/atom = 28.530367
Neighbor list builds = 0
Dangerous builds = 0
The dot product: 1.76343505531226e-08
Setting atom values ...
  1 settings made for x
  1 settings made for y
  1 settings made for z
Setting up cg style minimization ...
  Unit style    : metal
  Current step  : 25823
Per MPI rank memory allocation (min/avg/max) = 5.465 | 6.344 | 6.728 Mbytes
Step PotEng KinEng TotEng v_fx v_fy v_fz 
   25823   -1152449.1            0   -1152449.1 0.0050594596 -0.0015682767 0.0072634675 
   25996   -1152449.1            0   -1152449.1 3.6396456e-06 -4.8842605e-06 5.2264561e-06 
Loop time of 3.89357 on 52 procs for 173 steps with 288751 atoms

99.9% CPU use with 52 MPI tasks x 1 OpenMP threads

Minimization stats:
  Stopping criterion = linesearch alpha is zero
  Energy initial, next-to-last, final = 
     -1152449.06553024  -1152449.06691487  -1152449.06691487
  Force two-norm initial, final = 0.16181189 0.00016358293
  Force max component initial, final = 0.077516048 3.5544896e-05
  Final line search alpha, max atom move = 0.25 8.8862239e-06
  Iterations, force evaluations = 173 351

MPI task timing breakdown:
Section |  min time  |  avg time  |  max time  |%varavg| %total
---------------------------------------------------------------
Pair    | 0.98655    | 2.795      | 3.7242     |  46.5 | 71.79
Neigh   | 0          | 0          | 0          |   0.0 |  0.00
Comm    | 0.048346   | 0.62473    | 1.9432     |  70.1 | 16.05
Output  | 0          | 0          | 0          |   0.0 |  0.00
Modify  | 5.8065e-05 | 0.0058412  | 0.012351   |   3.6 |  0.15
Other   |            | 0.468      |            |       | 12.02

Nlocal:        5552.90 ave        7913 max           0 min
Histogram: 4 2 2 0 2 6 4 3 12 17
Nghost:        6213.73 ave        8772 max         412 min
Histogram: 4 0 4 0 8 0 4 5 7 20
Neighs:       158426.0 ave      230641 max           0 min
Histogram: 4 2 2 0 5 3 4 4 12 16

Total # of neighbors = 8238171
Ave neighs/atom = 28.530364
Neighbor list builds = 0
Dangerous builds = 0
The dot product: 1.50639739546762e-08
Setting atom values ...
  1 settings made for x
  1 settings made for y
  1 settings made for z
Setting up cg style minimization ...
  Unit style    : metal
  Current step  : 25996
Per MPI rank memory allocation (min/avg/max) = 5.465 | 6.344 | 6.728 Mbytes
Step PotEng KinEng TotEng v_fx v_fy v_fz 
   25996     -1152449            0     -1152449 0.0042841871 -0.0011414416 0.0061558066 
   26000     -1152449            0     -1152449 0.0014287231 0.00044073678 0.0020518327 
   26170     -1152449            0     -1152449 -2.5976579e-05 -3.2931792e-05 -3.7273834e-05 
Loop time of 3.87286 on 52 procs for 174 steps with 288751 atoms

99.9% CPU use with 52 MPI tasks x 1 OpenMP threads

Minimization stats:
  Stopping criterion = linesearch alpha is zero
  Energy initial, next-to-last, final = 
     -1152449.04353025  -1152449.04488237  -1152449.04488237
  Force two-norm initial, final = 0.16192167 0.00017103231
  Force max component initial, final = 0.077776251 3.9500082e-05
  Final line search alpha, max atom move = 0.25 9.8750204e-06
  Iterations, force evaluations = 174 351

MPI task timing breakdown:
Section |  min time  |  avg time  |  max time  |%varavg| %total
---------------------------------------------------------------
Pair    | 0.97791    | 2.7902     | 3.7257     |  46.6 | 72.04
Neigh   | 0          | 0          | 0          |   0.0 |  0.00
Comm    | 0.043603   | 0.62026    | 1.9406     |  70.6 | 16.02
Output  | 0.000111   | 0.00011483 | 0.00027256 |   0.0 |  0.00
Modify  | 5.7207e-05 | 0.0057974  | 0.012326   |   3.6 |  0.15
Other   |            | 0.4565     |            |       | 11.79

Nlocal:        5552.90 ave        7914 max           0 min
Histogram: 4 2 2 0 2 6 4 3 12 17
Nghost:        6213.73 ave        8772 max         412 min
Histogram: 4 0 4 0 8 0 4 5 7 20
Neighs:       158426.0 ave      230671 max           0 min
Histogram: 4 2 2 0 5 3 4 4 12 16

Total # of neighbors = 8238170
Ave neighs/atom = 28.530360
Neighbor list builds = 0
Dangerous builds = 0
The dot product: 8.98458801688797e-09
Setting atom values ...
  1 settings made for x
  1 settings made for y
  1 settings made for z
Setting up cg style minimization ...
  Unit style    : metal
  Current step  : 26170
Per MPI rank memory allocation (min/avg/max) = 5.465 | 6.344 | 6.728 Mbytes
Step PotEng KinEng TotEng v_fx v_fy v_fz 
   26170     -1152449            0     -1152449 0.0034211944 -0.0010619348 0.0049196214 
   26338     -1152449            0     -1152449 1.1696673e-05 -1.8435925e-05 1.6850303e-05 
Loop time of 3.72655 on 52 procs for 168 steps with 288751 atoms

99.9% CPU use with 52 MPI tasks x 1 OpenMP threads

Minimization stats:
  Stopping criterion = energy tolerance
  Energy initial, next-to-last, final = 
     -1152449.02022415  -1152449.02155597  -1152449.02155597
  Force two-norm initial, final = 0.16217568 0.00021497939
  Force max component initial, final = 0.078043997 4.5178690e-05
  Final line search alpha, max atom move = 1.0000000 4.5178690e-05
  Iterations, force evaluations = 168 336

MPI task timing breakdown:
Section |  min time  |  avg time  |  max time  |%varavg| %total
---------------------------------------------------------------
Pair    | 0.9444     | 2.6753     | 3.5632     |  45.7 | 71.79
Neigh   | 0          | 0          | 0          |   0.0 |  0.00
Comm    | 0.044387   | 0.5981     | 1.8586     |  68.4 | 16.05
Output  | 0          | 0          | 0          |   0.0 |  0.00
Modify  | 5.3682e-05 | 0.00564    | 0.012177   |   3.6 |  0.15
Other   |            | 0.4475     |            |       | 12.01

Nlocal:        5552.90 ave        7914 max           0 min
Histogram: 4 2 2 0 2 6 4 3 12 17
Nghost:        6213.73 ave        8772 max         412 min
Histogram: 4 0 4 0 8 0 4 5 7 20
Neighs:       158426.0 ave      230671 max           0 min
Histogram: 4 2 2 0 5 3 4 4 12 16

Total # of neighbors = 8238171
Ave neighs/atom = 28.530364
Neighbor list builds = 0
Dangerous builds = 0
The dot product: 3.82639736333932e-08
Setting atom values ...
  1 settings made for x
  1 settings made for y
  1 settings made for z
Setting up cg style minimization ...
  Unit style    : metal
  Current step  : 26338
Per MPI rank memory allocation (min/avg/max) = 5.465 | 6.344 | 6.728 Mbytes
Step PotEng KinEng TotEng v_fx v_fy v_fz 
   26338     -1152449            0     -1152449 0.0025682027 -0.0012463582 0.0036964784 
   26521     -1152449            0     -1152449 9.8189914e-06 3.590405e-05 1.4018973e-05 
Loop time of 4.04845 on 52 procs for 183 steps with 288751 atoms

99.9% CPU use with 52 MPI tasks x 1 OpenMP threads

Minimization stats:
  Stopping criterion = linesearch alpha is zero
  Energy initial, next-to-last, final = 
     -1152448.99552309  -1152448.99683686  -1152448.99683686
  Force two-norm initial, final = 0.16262511 0.00012719176
  Force max component initial, final = 0.078234262 3.5904050e-05
  Final line search alpha, max atom move = 0.5 1.7952025e-05
  Iterations, force evaluations = 183 367

MPI task timing breakdown:
Section |  min time  |  avg time  |  max time  |%varavg| %total
---------------------------------------------------------------
Pair    | 1.0294     | 2.9212     | 3.8948     |  47.7 | 72.16
Neigh   | 0          | 0          | 0          |   0.0 |  0.00
Comm    | 0.046988   | 0.64844    | 2.024      |  71.9 | 16.02
Output  | 0          | 0          | 0          |   0.0 |  0.00
Modify  | 5.9709e-05 | 0.0061431  | 0.013292   |   3.7 |  0.15
Other   |            | 0.4727     |            |       | 11.67

Nlocal:        5552.90 ave        7915 max           0 min
Histogram: 4 2 2 0 2 6 4 3 12 17
Nghost:        6213.77 ave        8772 max         412 min
Histogram: 4 0 4 0 8 0 4 5 7 20
Neighs:       158426.0 ave      230703 max           0 min
Histogram: 4 2 2 0 5 3 4 4 12 16

Total # of neighbors = 8238173
Ave neighs/atom = 28.530370
Neighbor list builds = 0
Dangerous builds = 0
The dot product: -4.0524962327338e-08
Setting atom values ...
  1 settings made for x
  1 settings made for y
  1 settings made for z
Setting up cg style minimization ...
  Unit style    : metal
  Current step  : 26521
Per MPI rank memory allocation (min/avg/max) = 5.465 | 6.344 | 6.728 Mbytes
Step PotEng KinEng TotEng v_fx v_fy v_fz 
   26521     -1152449            0     -1152449 0.0016427856 -0.0016022175  0.002368443 
   26698     -1152449            0     -1152449 -1.8574677e-07 -1.2105231e-06 -2.6292747e-07 
Loop time of 3.93695 on 52 procs for 177 steps with 288751 atoms

99.9% CPU use with 52 MPI tasks x 1 OpenMP threads

Minimization stats:
  Stopping criterion = linesearch alpha is zero
  Energy initial, next-to-last, final = 
     -1152448.96932608  -1152448.97062569  -1152448.97062569
  Force two-norm initial, final = 0.16330307 0.00017226507
  Force max component initial, final = 0.07848396 3.6824007e-05
  Final line search alpha, max atom move = 0.25 9.2060016e-06
  Iterations, force evaluations = 177 357

MPI task timing breakdown:
Section |  min time  |  avg time  |  max time  |%varavg| %total
---------------------------------------------------------------
Pair    | 1.004      | 2.8424     | 3.7869     |  47.2 | 72.20
Neigh   | 0          | 0          | 0          |   0.0 |  0.00
Comm    | 0.046821   | 0.63099    | 1.9653     |  70.9 | 16.03
Output  | 0          | 0          | 0          |   0.0 |  0.00
Modify  | 6.3581e-05 | 0.0059751  | 0.012915   |   3.7 |  0.15
Other   |            | 0.4576     |            |       | 11.62

Nlocal:        5552.90 ave        7915 max           0 min
Histogram: 4 2 2 0 2 6 4 3 12 17
Nghost:        6213.77 ave        8772 max         412 min
Histogram: 4 0 4 0 8 0 4 5 7 20
Neighs:       158426.0 ave      230707 max           0 min
Histogram: 4 2 2 0 5 3 4 4 12 16

Total # of neighbors = 8238171
Ave neighs/atom = 28.530364
Neighbor list builds = 0
Dangerous builds = 0
The dot product: 1.54756138757396e-09
Setting atom values ...
  1 settings made for x
  1 settings made for y
  1 settings made for z
Setting up cg style minimization ...
  Unit style    : metal
  Current step  : 26698
Per MPI rank memory allocation (min/avg/max) = 5.465 | 6.344 | 6.728 Mbytes
Step PotEng KinEng TotEng v_fx v_fy v_fz 
   26698   -1152448.9            0   -1152448.9 0.00076946605 -0.0021148361 0.0011156511 
   26846   -1152448.9            0   -1152448.9 -5.5556021e-05 -0.00011040664 -7.9447962e-05 
Loop time of 3.26676 on 52 procs for 148 steps with 288751 atoms

99.9% CPU use with 52 MPI tasks x 1 OpenMP threads

Minimization stats:
  Stopping criterion = energy tolerance
  Energy initial, next-to-last, final = 
     -1152448.94154321  -1152448.94283681  -1152448.94283681
  Force two-norm initial, final = 0.16415321 0.00039657786
  Force max component initial, final = 0.078606634 0.00011040664
  Final line search alpha, max atom move = 1.0000000 0.00011040664
  Iterations, force evaluations = 148 296

MPI task timing breakdown:
Section |  min time  |  avg time  |  max time  |%varavg| %total
---------------------------------------------------------------
Pair    | 0.83497    | 2.3573     | 3.1414     |  42.9 | 72.16
Neigh   | 0          | 0          | 0          |   0.0 |  0.00
Comm    | 0.038622   | 0.52228    | 1.6274     |  64.5 | 15.99
Output  | 0          | 0          | 0          |   0.0 |  0.00
Modify  | 4.931e-05  | 0.0050066  | 0.010807   |   3.3 |  0.15
Other   |            | 0.3821     |            |       | 11.70

Nlocal:        5552.90 ave        7915 max           0 min
Histogram: 4 2 2 0 2 6 4 3 12 17
Nghost:        6213.67 ave        8771 max         412 min
Histogram: 4 0 4 0 8 0 4 5 7 20
Neighs:       158426.0 ave      230699 max           0 min
Histogram: 4 2 2 0 5 3 4 4 12 16

Total # of neighbors = 8238172
Ave neighs/atom = 28.530367
Neighbor list builds = 0
Dangerous builds = 0
The dot product: 1.58087416600672e-07
Setting atom values ...
  1 settings made for x
  1 settings made for y
  1 settings made for z
Setting up cg style minimization ...
  Unit style    : metal
  Current step  : 26846
Per MPI rank memory allocation (min/avg/max) = 5.465 | 6.344 | 6.728 Mbytes
Step PotEng KinEng TotEng v_fx v_fy v_fz 
   26846   -1152448.9            0   -1152448.9 9.2517108e-06 -0.0025666018 2.5853147e-05 
   27000   -1152448.9            0   -1152448.9 3.5842842e-06 -1.837974e-06 5.1640991e-06 
   27019   -1152448.9            0   -1152448.9 1.3769966e-05 2.2123514e-06 1.9793906e-05 
Loop time of 3.81707 on 52 procs for 173 steps with 288751 atoms

99.9% CPU use with 52 MPI tasks x 1 OpenMP threads

Minimization stats:
  Stopping criterion = energy tolerance
  Energy initial, next-to-last, final = 
     -1152448.91210379  -1152448.91339824  -1152448.91339824
  Force two-norm initial, final = 0.16526786 0.00021151688
  Force max component initial, final = 0.078807436 4.9253874e-05
  Final line search alpha, max atom move = 1.0000000 4.9253874e-05
  Iterations, force evaluations = 173 346

MPI task timing breakdown:
Section |  min time  |  avg time  |  max time  |%varavg| %total
---------------------------------------------------------------
Pair    | 0.97036    | 2.756      | 3.6712     |  46.3 | 72.20
Neigh   | 0          | 0          | 0          |   0.0 |  0.00
Comm    | 0.045189   | 0.61276    | 1.9157     |  69.8 | 16.05
Output  | 0.00011644 | 0.00012179 | 0.00034306 |   0.0 |  0.00
Modify  | 6.0133e-05 | 0.0058051  | 0.012448   |   3.6 |  0.15
Other   |            | 0.4423     |            |       | 11.59

Nlocal:        5552.90 ave        7916 max           0 min
Histogram: 4 2 2 0 2 6 4 3 12 17
Nghost:        6213.56 ave        8771 max         412 min
Histogram: 4 0 4 0 8 0 4 5 7 20
Neighs:       158426.0 ave      230715 max           0 min
Histogram: 4 2 2 0 5 3 4 4 12 16

Total # of neighbors = 8238170
Ave neighs/atom = 28.530360
Neighbor list builds = 0
Dangerous builds = 0
The dot product: -1.14514643942472e-08
Setting atom values ...
  1 settings made for x
  1 settings made for y
  1 settings made for z
Setting up cg style minimization ...
  Unit style    : metal
  Current step  : 27019
Per MPI rank memory allocation (min/avg/max) = 5.465 | 6.344 | 6.728 Mbytes
Step PotEng KinEng TotEng v_fx v_fy v_fz 
   27019   -1152448.9            0   -1152448.9 -0.00040550628 -0.0024759612 -0.00056925209 
   27205   -1152448.9            0   -1152448.9 -1.040815e-05 2.0492602e-05 -1.5080697e-05 
Loop time of 4.11924 on 52 procs for 186 steps with 288751 atoms

99.9% CPU use with 52 MPI tasks x 1 OpenMP threads

Minimization stats:
  Stopping criterion = linesearch alpha is zero
  Energy initial, next-to-last, final = 
     -1152448.88095096  -1152448.88224746  -1152448.88224746
  Force two-norm initial, final = 0.16643461 0.00013531387
  Force max component initial, final = 0.078949589 2.5228849e-05
  Final line search alpha, max atom move = 0.5 1.2614425e-05
  Iterations, force evaluations = 186 373

MPI task timing breakdown:
Section |  min time  |  avg time  |  max time  |%varavg| %total
---------------------------------------------------------------
Pair    | 1.0373     | 2.9609     | 3.9577     |  47.9 | 71.88
Neigh   | 0          | 0          | 0          |   0.0 |  0.00
Comm    | 0.048537   | 0.66145    | 2.0569     |  72.6 | 16.06
Output  | 0          | 0          | 0          |   0.0 |  0.00
Modify  | 5.9177e-05 | 0.0061553  | 0.013091   |   3.7 |  0.15
Other   |            | 0.4907     |            |       | 11.91

Nlocal:        5552.90 ave        7916 max           0 min
Histogram: 4 2 2 0 2 6 4 3 12 17
Nghost:        6213.48 ave        8771 max         412 min
Histogram: 4 0 4 0 8 0 4 5 7 20
Neighs:       158426.0 ave      230716 max           0 min
Histogram: 4 2 2 0 5 3 4 4 12 16

Total # of neighbors = 8238169
Ave neighs/atom = 28.530357
Neighbor list builds = 0
Dangerous builds = 0
The dot product: -1.86429512860148e-08
