LAMMPS (29 Oct 2020)
OMP_NUM_THREADS environment is not set. Defaulting to 1 thread. (../comm.cpp:94)
  using 1 OpenMP thread(s) per MPI task
OMP_NUM_THREADS environment is not set. Defaulting to 1 thread. (../comm.cpp:94)
  using 1 OpenMP thread(s) per MPI task
Reading data file ...
  orthogonal box = (-122.39241 -121.13707 -37.090501) to (122.39241 121.13707 37.090501)
  13 by 4 by 1 MPI processor grid
  reading atoms ...
  288751 atoms
  read_data CPU = 0.512 seconds
199981 atoms in group inner
88770 atoms in group outer
1 atoms in group carbon
Neighbor list info ...
  update every 1 steps, delay 0 steps, check yes
  max neighbors/atom: 2000, page size: 100000
  master list distance cutoff = 5.6
  ghost atom cutoff = 5.6
  binsize = 2.8, bins = 88 87 27
  1 neighbor lists, perpetual/occasional/extra = 1 0 0
  (1) pair eam/alloy, perpetual
      attributes: half, newton on
      pair build: half/bin/atomonly/newton
      stencil: half/bin/3d/newton
      bin: standard
Setting up cg style minimization ...
  Unit style    : metal
  Current step  : 0
Per MPI rank memory allocation (min/avg/max) = 5.465 | 6.344 | 6.728 Mbytes
Step v_fx v_fy v_fz PotEng KinEng TotEng 
       0  0.063029421    0.1251613 -0.0077351498   -1152444.6            0   -1152444.6 
     244 -2.1479104e-05 -4.5053133e-06 2.1350481e-05     -1152449            0     -1152449 
Loop time of 5.36962 on 52 procs for 244 steps with 288751 atoms

99.8% CPU use with 52 MPI tasks x 1 OpenMP threads

Minimization stats:
  Stopping criterion = energy tolerance
  Energy initial, next-to-last, final = 
     -1152444.63021083  -1152448.97218896  -1152448.97218896
  Force two-norm initial, final = 23.793895 0.00011653322
  Force max component initial, final = 13.994709 2.6704323e-05
  Final line search alpha, max atom move = 1.0000000 2.6704323e-05
  Iterations, force evaluations = 244 485

MPI task timing breakdown:
Section |  min time  |  avg time  |  max time  |%varavg| %total
---------------------------------------------------------------
Pair    | 1.4489     | 3.8811     | 5.0523     |  53.1 | 72.28
Neigh   | 0.00019394 | 0.054685   | 0.08016    |   9.9 |  1.02
Comm    | 0.073841   | 0.85952    | 2.7288     |  83.1 | 16.01
Output  | 0          | 0          | 0          |   0.0 |  0.00
Modify  | 7.9295e-05 | 0.0053416  | 0.013538   |   4.5 |  0.10
Other   |            | 0.5689     |            |       | 10.60

Nlocal:        5552.90 ave        7900 max           0 min
Histogram: 4 2 2 0 2 6 4 0 14 18
Nghost:        6213.65 ave        8768 max         412 min
Histogram: 4 0 4 0 8 0 4 5 7 20
Neighs:       158427.0 ave      230153 max           0 min
Histogram: 4 2 2 0 5 3 4 4 12 16

Total # of neighbors = 8238206
Ave neighs/atom = 28.530485
Neighbor list builds = 9
Dangerous builds = 0
Setting atom values ...
  1 settings made for x
  1 settings made for y
  1 settings made for z
Setting up cg style minimization ...
  Unit style    : metal
  Current step  : 244
Per MPI rank memory allocation (min/avg/max) = 5.465 | 6.344 | 6.728 Mbytes
Step PotEng KinEng TotEng v_fx v_fy v_fz 
     244     -1152449            0     -1152449 -0.0092456402 -0.008349495 0.00035965767 
     560     -1152449            0     -1152449 -4.5900231e-05 -9.7447404e-06 6.1982149e-05 
Loop time of 6.87811 on 52 procs for 316 steps with 288751 atoms

99.9% CPU use with 52 MPI tasks x 1 OpenMP threads

Minimization stats:
  Stopping criterion = energy tolerance
  Energy initial, next-to-last, final = 
     -1152448.96783098  -1152448.97090996  -1152448.97090996
  Force two-norm initial, final = 0.22569148 0.00025887682
  Force max component initial, final = 0.10758115 9.9709955e-05
  Final line search alpha, max atom move = 1.0000000 9.9709955e-05
  Iterations, force evaluations = 316 632

MPI task timing breakdown:
Section |  min time  |  avg time  |  max time  |%varavg| %total
---------------------------------------------------------------
Pair    | 1.7847     | 5.0182     | 6.597      |  62.1 | 72.96
Neigh   | 0          | 0          | 0          |   0.0 |  0.00
Comm    | 0.086679   | 1.1113     | 3.5361     |  95.3 | 16.16
Output  | 0          | 0          | 0          |   0.0 |  0.00
Modify  | 0.00013803 | 0.010576   | 0.022504   |   4.8 |  0.15
Other   |            | 0.7381     |            |       | 10.73

Nlocal:        5552.90 ave        7900 max           0 min
Histogram: 4 2 2 0 2 6 4 0 14 18
Nghost:        6213.69 ave        8768 max         412 min
Histogram: 4 0 4 0 8 0 4 5 7 20
Neighs:       158427.0 ave      230169 max           0 min
Histogram: 4 2 2 0 5 3 4 4 12 16

Total # of neighbors = 8238204
Ave neighs/atom = 28.530478
Neighbor list builds = 0
Dangerous builds = 0
Setting atom values ...
  1 settings made for x
  1 settings made for y
  1 settings made for z
Setting up cg style minimization ...
  Unit style    : metal
  Current step  : 560
Per MPI rank memory allocation (min/avg/max) = 5.465 | 6.344 | 6.728 Mbytes
Step PotEng KinEng TotEng v_fx v_fy v_fz 
     560     -1152449            0     -1152449 0.0070020414  0.022020156  0.011413837 
     745     -1152449            0     -1152449 3.9748752e-05 2.4851122e-06 -3.1568245e-05 
Loop time of 4.07547 on 52 procs for 185 steps with 288751 atoms

99.9% CPU use with 52 MPI tasks x 1 OpenMP threads

Minimization stats:
  Stopping criterion = linesearch alpha is zero
  Energy initial, next-to-last, final = 
     -1152448.96716094  -1152448.96905762  -1152448.96905762
  Force two-norm initial, final = 0.15829803 0.00023019606
  Force max component initial, final = 0.080480702 3.9748752e-05
  Final line search alpha, max atom move = 0.125 4.9685940e-06
  Iterations, force evaluations = 185 377

MPI task timing breakdown:
Section |  min time  |  avg time  |  max time  |%varavg| %total
---------------------------------------------------------------
Pair    | 1.0651     | 2.9892     | 3.9047     |  47.9 | 73.35
Neigh   | 0          | 0          | 0          |   0.0 |  0.00
Comm    | 0.050231   | 0.65682    | 2.1063     |  73.9 | 16.12
Output  | 0          | 0          | 0          |   0.0 |  0.00
Modify  | 8.3131e-05 | 0.0063016  | 0.01335    |   3.7 |  0.15
Other   |            | 0.4231     |            |       | 10.38

Nlocal:        5552.90 ave        7900 max           0 min
Histogram: 4 2 2 0 2 6 4 0 14 18
Nghost:        6213.69 ave        8768 max         412 min
Histogram: 4 0 4 0 8 0 4 5 7 20
Neighs:       158427.0 ave      230155 max           0 min
Histogram: 4 2 2 0 5 3 4 4 12 16

Total # of neighbors = 8238200
Ave neighs/atom = 28.530464
Neighbor list builds = 0
Dangerous builds = 0
The dot product: -5.73981560509188e-07
Setting atom values ...
  1 settings made for x
  1 settings made for y
  1 settings made for z
Setting up cg style minimization ...
  Unit style    : metal
  Current step  : 745
Per MPI rank memory allocation (min/avg/max) = 5.465 | 6.344 | 6.728 Mbytes
Step PotEng KinEng TotEng v_fx v_fy v_fz 
     745     -1152449            0     -1152449  0.018784334  0.043268511 0.0059579601 
     911     -1152449            0     -1152449 -3.7574988e-05 1.6529055e-06 1.9343448e-05 
Loop time of 3.63439 on 52 procs for 166 steps with 288751 atoms

99.9% CPU use with 52 MPI tasks x 1 OpenMP threads

Minimization stats:
  Stopping criterion = linesearch alpha is zero
  Energy initial, next-to-last, final = 
     -1152448.96445161  -1152448.96699878  -1152448.96699878
  Force two-norm initial, final = 0.1683982 0.00017038413
  Force max component initial, final = 0.092700336 3.7574988e-05
  Final line search alpha, max atom move = 0.25 9.3937471e-06
  Iterations, force evaluations = 166 335

MPI task timing breakdown:
Section |  min time  |  avg time  |  max time  |%varavg| %total
---------------------------------------------------------------
Pair    | 0.94691    | 2.6689     | 3.4921     |  45.3 | 73.44
Neigh   | 0          | 0          | 0          |   0.0 |  0.00
Comm    | 0.044488   | 0.58622    | 1.8982     |  70.3 | 16.13
Output  | 0          | 0          | 0          |   0.0 |  0.00
Modify  | 7.5015e-05 | 0.0055957  | 0.011763   |   3.5 |  0.15
Other   |            | 0.3736     |            |       | 10.28

Nlocal:        5552.90 ave        7900 max           0 min
Histogram: 4 2 2 0 2 6 4 0 14 18
Nghost:        6213.65 ave        8768 max         412 min
Histogram: 4 0 4 0 8 0 4 5 7 20
Neighs:       158427.0 ave      230156 max           0 min
Histogram: 4 2 2 0 5 3 4 4 12 16

Total # of neighbors = 8238204
Ave neighs/atom = 28.530478
Neighbor list builds = 0
Dangerous builds = 0
The dot product: 1.289439432405e-06
Setting atom values ...
  1 settings made for x
  1 settings made for y
  1 settings made for z
Setting up cg style minimization ...
  Unit style    : metal
  Current step  : 911
Per MPI rank memory allocation (min/avg/max) = 5.465 | 6.344 | 6.728 Mbytes
Step PotEng KinEng TotEng v_fx v_fy v_fz 
     911     -1152449            0     -1152449  0.022663991  0.047770266 0.0025204522 
    1000     -1152449            0     -1152449 0.00044956737 -9.5977451e-06 -3.7983259e-05 
    1068     -1152449            0     -1152449 2.4562192e-05 -4.9434073e-07 -2.0724615e-06 
Loop time of 3.40464 on 52 procs for 157 steps with 288751 atoms

99.9% CPU use with 52 MPI tasks x 1 OpenMP threads

Minimization stats:
  Stopping criterion = energy tolerance
  Energy initial, next-to-last, final = 
     -1152448.96250261  -1152448.96547377  -1152448.96547377
  Force two-norm initial, final = 0.18930198 0.00010367244
  Force max component initial, final = 0.086082487 2.4562192e-05
  Final line search alpha, max atom move = 1.0000000 2.4562192e-05
  Iterations, force evaluations = 157 314

MPI task timing breakdown:
Section |  min time  |  avg time  |  max time  |%varavg| %total
---------------------------------------------------------------
Pair    | 0.88761    | 2.4908     | 3.2593     |  43.7 | 73.16
Neigh   | 0          | 0          | 0          |   0.0 |  0.00
Comm    | 0.042798   | 0.54921    | 1.7503     |  67.4 | 16.13
Output  | 0.00017183 | 0.00017636 | 0.00033092 |   0.0 |  0.01
Modify  | 6.8998e-05 | 0.0052617  | 0.011135   |   3.4 |  0.15
Other   |            | 0.3592     |            |       | 10.55

Nlocal:        5552.90 ave        7902 max           0 min
Histogram: 4 2 2 0 2 6 4 0 15 17
Nghost:        6213.69 ave        8769 max         412 min
Histogram: 4 0 4 0 8 0 4 5 7 20
Neighs:       158427.0 ave      230263 max           0 min
Histogram: 4 2 2 0 5 3 4 4 12 16

Total # of neighbors = 8238211
Ave neighs/atom = 28.530502
Neighbor list builds = 0
Dangerous builds = 0
The dot product: -5.46161486438989e-07
Setting atom values ...
  1 settings made for x
  1 settings made for y
  1 settings made for z
Setting up cg style minimization ...
  Unit style    : metal
  Current step  : 1068
Per MPI rank memory allocation (min/avg/max) = 5.465 | 6.344 | 6.728 Mbytes
Step PotEng KinEng TotEng v_fx v_fy v_fz 
    1068     -1152449            0     -1152449   0.04233404  0.037753615  0.005644052 
    1216     -1152449            0     -1152449 6.5473385e-05 4.3783748e-06 8.6686948e-06 
Loop time of 3.21998 on 52 procs for 148 steps with 288751 atoms

99.9% CPU use with 52 MPI tasks x 1 OpenMP threads

Minimization stats:
  Stopping criterion = energy tolerance
  Energy initial, next-to-last, final = 
      -1152448.9608922  -1152448.96415345  -1152448.96415345
  Force two-norm initial, final = 0.20454183 0.00035881345
  Force max component initial, final = 0.097751495 7.9202654e-05
  Final line search alpha, max atom move = 1.0000000 7.9202654e-05
  Iterations, force evaluations = 148 296

MPI task timing breakdown:
Section |  min time  |  avg time  |  max time  |%varavg| %total
---------------------------------------------------------------
Pair    | 0.83409    | 2.3501     | 3.0761     |  42.6 | 72.99
Neigh   | 0          | 0          | 0          |   0.0 |  0.00
Comm    | 0.040157   | 0.51841    | 1.6567     |  65.5 | 16.10
Output  | 0          | 0          | 0          |   0.0 |  0.00
Modify  | 6.5322e-05 | 0.0049397  | 0.010519   |   3.3 |  0.15
Other   |            | 0.3465     |            |       | 10.76

Nlocal:        5552.90 ave        7902 max           0 min
Histogram: 4 2 2 0 2 6 4 0 15 17
Nghost:        6213.69 ave        8769 max         412 min
Histogram: 4 0 4 0 8 0 4 5 7 20
Neighs:       158427.0 ave      230261 max           0 min
Histogram: 4 2 2 0 5 3 4 4 12 16

Total # of neighbors = 8238213
Ave neighs/atom = 28.530509
Neighbor list builds = 0
Dangerous builds = 0
The dot product: -8.99153114096264e-07
Setting atom values ...
  1 settings made for x
  1 settings made for y
  1 settings made for z
Setting up cg style minimization ...
  Unit style    : metal
  Current step  : 1216
Per MPI rank memory allocation (min/avg/max) = 5.465 | 6.344 | 6.728 Mbytes
Step PotEng KinEng TotEng v_fx v_fy v_fz 
    1216     -1152449            0     -1152449  0.052863649  0.031848725  0.012429115 
    1370     -1152449            0     -1152449 1.8726249e-05 1.5525939e-07 4.633802e-06 
Loop time of 3.32901 on 52 procs for 154 steps with 288751 atoms

99.9% CPU use with 52 MPI tasks x 1 OpenMP threads

Minimization stats:
  Stopping criterion = energy tolerance
  Energy initial, next-to-last, final = 
     -1152448.95999072  -1152448.96251772  -1152448.96251772
  Force two-norm initial, final = 0.21470498 0.00015729834
  Force max component initial, final = 0.10936669 6.1532232e-05
  Final line search alpha, max atom move = 1.0000000 6.1532232e-05
  Iterations, force evaluations = 154 308

MPI task timing breakdown:
Section |  min time  |  avg time  |  max time  |%varavg| %total
---------------------------------------------------------------
Pair    | 0.86988    | 2.4422     | 3.1972     |  43.3 | 73.36
Neigh   | 0          | 0          | 0          |   0.0 |  0.00
Comm    | 0.040617   | 0.53566    | 1.7172     |  67.1 | 16.09
Output  | 0          | 0          | 0          |   0.0 |  0.00
Modify  | 6.9024e-05 | 0.0051451  | 0.010893   |   3.3 |  0.15
Other   |            | 0.346      |            |       | 10.39

Nlocal:        5552.90 ave        7904 max           0 min
Histogram: 4 2 2 0 2 6 4 0 15 17
Nghost:        6213.62 ave        8769 max         412 min
Histogram: 4 0 4 0 8 0 4 5 7 20
Neighs:       158427.0 ave      230322 max           0 min
Histogram: 4 2 2 0 5 3 4 4 12 16

Total # of neighbors = 8238213
Ave neighs/atom = 28.530509
Neighbor list builds = 0
Dangerous builds = 0
The dot product: 2.43885150555013e-08
Setting atom values ...
  1 settings made for x
  1 settings made for y
  1 settings made for z
Setting up cg style minimization ...
  Unit style    : metal
  Current step  : 1370
Per MPI rank memory allocation (min/avg/max) = 5.465 | 6.344 | 6.728 Mbytes
Step PotEng KinEng TotEng v_fx v_fy v_fz 
    1370     -1152449            0     -1152449  0.063529273  0.033435563  0.013991633 
    1567     -1152449            0     -1152449 -1.7327117e-05 -1.5703525e-06 -4.0773815e-06 
Loop time of 4.28291 on 52 procs for 197 steps with 288751 atoms

99.9% CPU use with 52 MPI tasks x 1 OpenMP threads

Minimization stats:
  Stopping criterion = energy tolerance
  Energy initial, next-to-last, final = 
      -1152448.9577426  -1152448.96021648  -1152448.96021648
  Force two-norm initial, final = 0.21709787 0.00010450738
  Force max component initial, final = 0.10937251 3.9477104e-05
  Final line search alpha, max atom move = 1.0000000 3.9477104e-05
  Iterations, force evaluations = 197 394

MPI task timing breakdown:
Section |  min time  |  avg time  |  max time  |%varavg| %total
---------------------------------------------------------------
Pair    | 1.1144     | 3.1334     | 4.1127     |  49.1 | 73.16
Neigh   | 0          | 0          | 0          |   0.0 |  0.00
Comm    | 0.052344   | 0.69278    | 2.2117     |  75.7 | 16.18
Output  | 0          | 0          | 0          |   0.0 |  0.00
Modify  | 8.3941e-05 | 0.0065874  | 0.013945   |   3.8 |  0.15
Other   |            | 0.4502     |            |       | 10.51

Nlocal:        5552.90 ave        7905 max           0 min
Histogram: 4 2 2 0 2 6 4 0 15 17
Nghost:        6213.62 ave        8769 max         412 min
Histogram: 4 0 4 0 8 0 4 5 7 20
Neighs:       158427.0 ave      230363 max           0 min
Histogram: 4 2 2 0 5 3 4 4 12 16

Total # of neighbors = 8238210
Ave neighs/atom = 28.530499
Neighbor list builds = 0
Dangerous builds = 0
The dot product: -8.96424987577541e-08
Setting atom values ...
  1 settings made for x
  1 settings made for y
  1 settings made for z
Setting up cg style minimization ...
  Unit style    : metal
  Current step  : 1567
Per MPI rank memory allocation (min/avg/max) = 5.465 | 6.344 | 6.728 Mbytes
Step PotEng KinEng TotEng v_fx v_fy v_fz 
    1567     -1152449            0     -1152449  0.070204086  0.035513925  0.012863268 
    1760     -1152449            0     -1152449 3.6652947e-05 4.2227616e-06 7.402684e-06 
Loop time of 4.20409 on 52 procs for 193 steps with 288751 atoms

99.9% CPU use with 52 MPI tasks x 1 OpenMP threads

Minimization stats:
  Stopping criterion = linesearch alpha is zero
  Energy initial, next-to-last, final = 
     -1152448.95490735  -1152448.95750797  -1152448.95750797
  Force two-norm initial, final = 0.21690819 0.0001609275
  Force max component initial, final = 0.10705786 5.6564156e-05
  Final line search alpha, max atom move = 0.25 1.4141039e-05
  Iterations, force evaluations = 193 389

MPI task timing breakdown:
Section |  min time  |  avg time  |  max time  |%varavg| %total
---------------------------------------------------------------
Pair    | 1.0996     | 3.0856     | 4.0376     |  48.6 | 73.39
Neigh   | 0          | 0          | 0          |   0.0 |  0.00
Comm    | 0.049776   | 0.67588    | 2.1751     |  75.3 | 16.08
Output  | 0          | 0          | 0          |   0.0 |  0.00
Modify  | 8.6454e-05 | 0.0064862  | 0.013631   |   3.7 |  0.15
Other   |            | 0.4361     |            |       | 10.37

Nlocal:        5552.90 ave        7906 max           0 min
Histogram: 4 2 2 0 2 6 4 0 15 17
Nghost:        6213.62 ave        8769 max         412 min
Histogram: 4 0 4 0 8 0 4 5 7 20
Neighs:       158427.0 ave      230407 max           0 min
Histogram: 4 2 2 0 5 3 4 4 12 16

Total # of neighbors = 8238205
Ave neighs/atom = 28.530481
Neighbor list builds = 0
Dangerous builds = 0
The dot product: 1.74420548158438e-07
Setting atom values ...
  1 settings made for x
  1 settings made for y
  1 settings made for z
Setting up cg style minimization ...
  Unit style    : metal
  Current step  : 1760
Per MPI rank memory allocation (min/avg/max) = 5.465 | 6.344 | 6.728 Mbytes
Step PotEng KinEng TotEng v_fx v_fy v_fz 
    1760     -1152449            0     -1152449   0.07338154  0.037272895  0.011134194 
    1948     -1152449            0     -1152449 -2.8526193e-05 -3.9646325e-06 -4.9706052e-06 
Loop time of 4.13049 on 52 procs for 188 steps with 288751 atoms

99.9% CPU use with 52 MPI tasks x 1 OpenMP threads

Minimization stats:
  Stopping criterion = linesearch alpha is zero
  Energy initial, next-to-last, final = 
     -1152448.95184447  -1152448.95412862  -1152448.95412862
  Force two-norm initial, final = 0.21612876 0.0001303288
  Force max component initial, final = 0.10497188 3.7012987e-05
  Final line search alpha, max atom move = 0.5 1.8506493e-05
  Iterations, force evaluations = 188 377

MPI task timing breakdown:
Section |  min time  |  avg time  |  max time  |%varavg| %total
---------------------------------------------------------------
Pair    | 1.0652     | 3.0055     | 3.9547     |  48.2 | 72.76
Neigh   | 0          | 0          | 0          |   0.0 |  0.00
Comm    | 0.052552   | 0.6669     | 2.1317     |  73.9 | 16.15
Output  | 0          | 0          | 0          |   0.0 |  0.00
Modify  | 8.6376e-05 | 0.0063262  | 0.013323   |   3.7 |  0.15
Other   |            | 0.4518     |            |       | 10.94

Nlocal:        5552.90 ave        7906 max           0 min
Histogram: 4 2 2 0 2 6 4 0 15 17
Nghost:        6213.62 ave        8769 max         412 min
Histogram: 4 0 4 0 8 0 4 5 7 20
Neighs:       158427.0 ave      230401 max           0 min
Histogram: 4 2 2 0 5 3 4 4 12 16

Total # of neighbors = 8238204
Ave neighs/atom = 28.530478
Neighbor list builds = 0
Dangerous builds = 0
The dot product: -1.98537098405347e-07
Setting atom values ...
  1 settings made for x
  1 settings made for y
  1 settings made for z
Setting up cg style minimization ...
  Unit style    : metal
  Current step  : 1948
Per MPI rank memory allocation (min/avg/max) = 5.465 | 6.344 | 6.728 Mbytes
Step PotEng KinEng TotEng v_fx v_fy v_fz 
    1948   -1152448.9            0   -1152448.9  0.078364668  0.039150931 0.0088373934 
    2000   -1152448.9            0   -1152448.9 -4.0536428e-05 -2.6902076e-06 -5.8854637e-06 
    2162   -1152448.9            0   -1152448.9 -1.2722043e-05 -1.2523943e-06 -1.8165714e-06 
Loop time of 4.6347 on 52 procs for 214 steps with 288751 atoms

99.9% CPU use with 52 MPI tasks x 1 OpenMP threads

Minimization stats:
  Stopping criterion = energy tolerance
  Energy initial, next-to-last, final = 
     -1152448.94772955  -1152448.94996042  -1152448.94996042
  Force two-norm initial, final = 0.2150343 6.9520073e-05
  Force max component initial, final = 0.10170175 2.4134975e-05
  Final line search alpha, max atom move = 1.0000000 2.4134975e-05
  Iterations, force evaluations = 214 428

MPI task timing breakdown:
Section |  min time  |  avg time  |  max time  |%varavg| %total
---------------------------------------------------------------
Pair    | 1.2044     | 3.3998     | 4.4525     |  51.2 | 73.36
Neigh   | 0          | 0          | 0          |   0.0 |  0.00
Comm    | 0.055901   | 0.7469     | 2.4104     |  79.0 | 16.12
Output  | 0.0001215  | 0.0001256  | 0.00028231 |   0.0 |  0.00
Modify  | 8.2345e-05 | 0.007143   | 0.015028   |   3.9 |  0.15
Other   |            | 0.4807     |            |       | 10.37

Nlocal:        5552.90 ave        7906 max           0 min
Histogram: 4 2 2 0 2 6 4 0 15 17
Nghost:        6213.62 ave        8769 max         412 min
Histogram: 4 0 4 0 8 0 4 5 7 20
Neighs:       158427.0 ave      230433 max           0 min
Histogram: 4 2 2 0 5 3 4 4 12 16

Total # of neighbors = 8238201
Ave neighs/atom = 28.530467
Neighbor list builds = 0
Dangerous builds = 0
The dot product: -1.04155185233052e-07
Setting atom values ...
  1 settings made for x
  1 settings made for y
  1 settings made for z
Setting up cg style minimization ...
  Unit style    : metal
  Current step  : 2162
Per MPI rank memory allocation (min/avg/max) = 5.465 | 6.344 | 6.728 Mbytes
Step PotEng KinEng TotEng v_fx v_fy v_fz 
    2162   -1152448.9            0   -1152448.9   0.08240258  0.040208554 0.0059227633 
    2296   -1152448.9            0   -1152448.9 0.00011066565 1.5756074e-05 1.1303346e-05 
Loop time of 2.93933 on 52 procs for 134 steps with 288751 atoms

99.9% CPU use with 52 MPI tasks x 1 OpenMP threads

Minimization stats:
  Stopping criterion = energy tolerance
  Energy initial, next-to-last, final = 
     -1152448.94286654  -1152448.94505525  -1152448.94505525
  Force two-norm initial, final = 0.21332908 0.00037401453
  Force max component initial, final = 0.097598788 0.00011066565
  Final line search alpha, max atom move = 1.0000000 0.00011066565
  Iterations, force evaluations = 134 268

MPI task timing breakdown:
Section |  min time  |  avg time  |  max time  |%varavg| %total
---------------------------------------------------------------
Pair    | 0.75916    | 2.1382     | 2.8004     |  40.5 | 72.74
Neigh   | 0          | 0          | 0          |   0.0 |  0.00
Comm    | 0.036074   | 0.47357    | 1.5063     |  62.1 | 16.11
Output  | 0          | 0          | 0          |   0.0 |  0.00
Modify  | 6.1942e-05 | 0.0044931  | 0.0093981  |   3.1 |  0.15
Other   |            | 0.3231     |            |       | 10.99

Nlocal:        5552.90 ave        7907 max           0 min
Histogram: 4 2 2 0 2 6 4 0 15 17
Nghost:        6213.65 ave        8769 max         412 min
Histogram: 4 0 4 0 8 0 4 5 7 20
Neighs:       158427.0 ave      230499 max           0 min
Histogram: 4 2 2 0 5 3 4 4 12 16

Total # of neighbors = 8238208
Ave neighs/atom = 28.530492
Neighbor list builds = 0
Dangerous builds = 0
The dot product: 9.48122671651738e-07
Setting atom values ...
  1 settings made for x
  1 settings made for y
  1 settings made for z
Setting up cg style minimization ...
  Unit style    : metal
  Current step  : 2296
Per MPI rank memory allocation (min/avg/max) = 5.465 | 6.344 | 6.728 Mbytes
Step PotEng KinEng TotEng v_fx v_fy v_fz 
    2296   -1152448.9            0   -1152448.9  0.084632581   0.04104047 0.0027561463 
    2486   -1152448.9            0   -1152448.9 9.9792581e-06 1.7154046e-06 6.3779963e-07 
Loop time of 4.12946 on 52 procs for 190 steps with 288751 atoms

99.9% CPU use with 52 MPI tasks x 1 OpenMP threads

Minimization stats:
  Stopping criterion = linesearch alpha is zero
  Energy initial, next-to-last, final = 
     -1152448.93728121  -1152448.93935419  -1152448.93935419
  Force two-norm initial, final = 0.21125111 7.7426379e-05
  Force max component initial, final = 0.093378679 1.4534138e-05
  Final line search alpha, max atom move = 0.5 7.2670690e-06
  Iterations, force evaluations = 190 381

MPI task timing breakdown:
Section |  min time  |  avg time  |  max time  |%varavg| %total
---------------------------------------------------------------
Pair    | 1.0758     | 3.0228     | 3.961      |  48.2 | 73.20
Neigh   | 0          | 0          | 0          |   0.0 |  0.00
Comm    | 0.050022   | 0.66544    | 2.1264     |  74.4 | 16.11
Output  | 0          | 0          | 0          |   0.0 |  0.00
Modify  | 8.4802e-05 | 0.0063632  | 0.013457   |   3.7 |  0.15
Other   |            | 0.4349     |            |       | 10.53

Nlocal:        5552.90 ave        7908 max           0 min
Histogram: 4 2 2 0 2 6 4 0 15 17
Nghost:        6213.65 ave        8769 max         412 min
Histogram: 4 0 4 0 8 0 4 5 7 20
Neighs:       158427.0 ave      230519 max           0 min
Histogram: 4 2 2 0 5 3 4 4 12 16

Total # of neighbors = 8238202
Ave neighs/atom = 28.530471
Neighbor list builds = 0
Dangerous builds = 0
The dot product: 7.57423296520105e-08
Setting atom values ...
  1 settings made for x
  1 settings made for y
  1 settings made for z
Setting up cg style minimization ...
  Unit style    : metal
  Current step  : 2486
Per MPI rank memory allocation (min/avg/max) = 5.465 | 6.344 | 6.728 Mbytes
Step PotEng KinEng TotEng v_fx v_fy v_fz 
    2486   -1152448.9            0   -1152448.9   0.08425059  0.041988572 -0.00018684048 
    2636   -1152448.9            0   -1152448.9 8.1337479e-05 1.1651154e-05 3.1165534e-06 
Loop time of 3.31017 on 52 procs for 150 steps with 288751 atoms

99.9% CPU use with 52 MPI tasks x 1 OpenMP threads

Minimization stats:
  Stopping criterion = linesearch alpha is zero
  Energy initial, next-to-last, final = 
     -1152448.93082696  -1152448.93280806  -1152448.93280806
  Force two-norm initial, final = 0.20877304 0.00024941104
  Force max component initial, final = 0.089555961 8.8068939e-05
  Final line search alpha, max atom move = 0.125 1.1008617e-05
  Iterations, force evaluations = 150 305

MPI task timing breakdown:
Section |  min time  |  avg time  |  max time  |%varavg| %total
---------------------------------------------------------------
Pair    | 0.86144    | 2.4236     | 3.18       |  43.2 | 73.22
Neigh   | 0          | 0          | 0          |   0.0 |  0.00
Comm    | 0.040318   | 0.53331    | 1.7137     |  66.8 | 16.11
Output  | 0          | 0          | 0          |   0.0 |  0.00
Modify  | 6.667e-05  | 0.0050992  | 0.010767   |   3.3 |  0.15
Other   |            | 0.3481     |            |       | 10.52

Nlocal:        5552.90 ave        7909 max           0 min
Histogram: 4 2 2 0 2 6 4 0 15 17
Nghost:        6213.65 ave        8769 max         412 min
Histogram: 4 0 4 0 8 0 4 5 7 20
Neighs:       158427.0 ave      230544 max           0 min
Histogram: 4 2 2 0 5 3 4 4 12 16

Total # of neighbors = 8238200
Ave neighs/atom = 28.530464
Neighbor list builds = 0
Dangerous builds = 0
The dot product: 5.48411180997797e-07
Setting atom values ...
  1 settings made for x
  1 settings made for y
  1 settings made for z
Setting up cg style minimization ...
  Unit style    : metal
  Current step  : 2636
Per MPI rank memory allocation (min/avg/max) = 5.465 | 6.344 | 6.728 Mbytes
Step PotEng KinEng TotEng v_fx v_fy v_fz 
    2636   -1152448.9            0   -1152448.9  0.083512761  0.036188822 -0.0019193051 
    2810   -1152448.9            0   -1152448.9 -1.0091181e-06 -1.5797656e-06 1.7065552e-07 
Loop time of 3.784 on 52 procs for 174 steps with 288751 atoms

99.9% CPU use with 52 MPI tasks x 1 OpenMP threads

Minimization stats:
  Stopping criterion = energy tolerance
  Energy initial, next-to-last, final = 
     -1152448.92337074  -1152448.92526377  -1152448.92526377
  Force two-norm initial, final = 0.20515486 0.00010419891
  Force max component initial, final = 0.086258801 1.0738891e-05
  Final line search alpha, max atom move = 1.0000000 1.0738891e-05
  Iterations, force evaluations = 174 350

MPI task timing breakdown:
Section |  min time  |  avg time  |  max time  |%varavg| %total
---------------------------------------------------------------
Pair    | 0.98672    | 2.7724     | 3.6321     |  46.2 | 73.27
Neigh   | 0          | 0          | 0          |   0.0 |  0.00
Comm    | 0.044962   | 0.60849    | 1.9501     |  71.3 | 16.08
Output  | 0          | 0          | 0          |   0.0 |  0.00
Modify  | 8.0434e-05 | 0.0058463  | 0.012437   |   3.6 |  0.15
Other   |            | 0.3973     |            |       | 10.50

Nlocal:        5552.90 ave        7909 max           0 min
Histogram: 4 2 2 0 2 6 4 0 15 17
Nghost:        6213.65 ave        8769 max         412 min
Histogram: 4 0 4 0 8 0 4 5 7 20
Neighs:       158427.0 ave      230549 max           0 min
Histogram: 4 2 2 0 5 3 4 4 12 16

Total # of neighbors = 8238199
Ave neighs/atom = 28.530461
Neighbor list builds = 0
Dangerous builds = 0
The dot product: -9.87735674894106e-09
Setting atom values ...
  1 settings made for x
  1 settings made for y
  1 settings made for z
Setting up cg style minimization ...
  Unit style    : metal
  Current step  : 2810
Per MPI rank memory allocation (min/avg/max) = 5.465 | 6.344 | 6.728 Mbytes
Step PotEng KinEng TotEng v_fx v_fy v_fz 
    2810   -1152448.9            0   -1152448.9  0.082756867  0.026215153 -0.0023831925 
    2959   -1152448.9            0   -1152448.9 -4.4060161e-06 -9.2049012e-07 6.1159976e-08 
Loop time of 3.34085 on 52 procs for 149 steps with 288751 atoms

99.8% CPU use with 52 MPI tasks x 1 OpenMP threads

Minimization stats:
  Stopping criterion = linesearch alpha is zero
  Energy initial, next-to-last, final = 
     -1152448.91460398  -1152448.91647461  -1152448.91647461
  Force two-norm initial, final = 0.20204688 0.00024384455
  Force max component initial, final = 0.083864072 1.1842654e-05
  Final line search alpha, max atom move = 0.125 1.4803318e-06
  Iterations, force evaluations = 149 303

MPI task timing breakdown:
Section |  min time  |  avg time  |  max time  |%varavg| %total
---------------------------------------------------------------
Pair    | 0.85752    | 2.4119     | 3.1706     |  43.1 | 72.19
Neigh   | 0          | 0          | 0          |   0.0 |  0.00
Comm    | 0.043575   | 0.53942    | 1.7009     |  65.3 | 16.15
Output  | 0          | 0          | 0          |   0.0 |  0.00
Modify  | 7.1394e-05 | 0.0050603  | 0.010659   |   3.3 |  0.15
Other   |            | 0.3845     |            |       | 11.51

Nlocal:        5552.90 ave        7909 max           0 min
Histogram: 4 2 2 0 2 6 4 0 15 17
Nghost:        6213.65 ave        8769 max         412 min
Histogram: 4 0 4 0 8 0 4 5 7 20
Neighs:       158427.0 ave      230550 max           0 min
Histogram: 4 2 2 0 5 3 4 4 12 16

Total # of neighbors = 8238198
Ave neighs/atom = 28.530457
Neighbor list builds = 0
Dangerous builds = 0
The dot product: -2.19250462772048e-08
Setting atom values ...
  1 settings made for x
  1 settings made for y
  1 settings made for z
Setting up cg style minimization ...
  Unit style    : metal
  Current step  : 2959
Per MPI rank memory allocation (min/avg/max) = 5.465 | 6.344 | 6.728 Mbytes
Step PotEng KinEng TotEng v_fx v_fy v_fz 
    2959   -1152448.9            0   -1152448.9  0.082398694   0.02051653 -0.0028835707 
    3000   -1152448.9            0   -1152448.9 -0.00058588505 -7.65542e-05 1.0708844e-05 
    3135   -1152448.9            0   -1152448.9 -3.1297689e-05 -4.9465733e-06 6.9315082e-07 
Loop time of 3.82239 on 52 procs for 176 steps with 288751 atoms

99.9% CPU use with 52 MPI tasks x 1 OpenMP threads

Minimization stats:
  Stopping criterion = energy tolerance
  Energy initial, next-to-last, final = 
     -1152448.90446776  -1152448.90633156  -1152448.90633156
  Force two-norm initial, final = 0.20048283 0.00010655002
  Force max component initial, final = 0.08250401 3.1297689e-05
  Final line search alpha, max atom move = 1.0000000 3.1297689e-05
  Iterations, force evaluations = 176 352

MPI task timing breakdown:
Section |  min time  |  avg time  |  max time  |%varavg| %total
---------------------------------------------------------------
Pair    | 0.99342    | 2.7909     | 3.6666     |  46.3 | 73.02
Neigh   | 0          | 0          | 0          |   0.0 |  0.00
Comm    | 0.046855   | 0.61401    | 1.9594     |  71.3 | 16.06
Output  | 0.00012484 | 0.00012924 | 0.00027747 |   0.0 |  0.00
Modify  | 7.9601e-05 | 0.0058809  | 0.012423   |   3.6 |  0.15
Other   |            | 0.4114     |            |       | 10.76

Nlocal:        5552.90 ave        7909 max           0 min
Histogram: 4 2 2 0 2 6 4 0 15 17
Nghost:        6213.65 ave        8769 max         412 min
Histogram: 4 0 4 0 8 0 4 5 7 20
Neighs:       158427.0 ave      230551 max           0 min
Histogram: 4 2 2 0 5 3 4 4 12 16

Total # of neighbors = 8238198
Ave neighs/atom = 28.530457
Neighbor list builds = 0
Dangerous builds = 0
The dot product: -1.30663216336536e-07
Setting atom values ...
  1 settings made for x
  1 settings made for y
  1 settings made for z
Setting up cg style minimization ...
  Unit style    : metal
  Current step  : 3135
Per MPI rank memory allocation (min/avg/max) = 5.465 | 6.344 | 6.728 Mbytes
Step PotEng KinEng TotEng v_fx v_fy v_fz 
    3135   -1152448.9            0   -1152448.9   0.08190588  0.017057319 -0.0033956021 
    3293   -1152448.9            0   -1152448.9 -1.667783e-05 -5.0259693e-06 9.1090917e-07 
Loop time of 3.46453 on 52 procs for 158 steps with 288751 atoms

99.9% CPU use with 52 MPI tasks x 1 OpenMP threads

Minimization stats:
  Stopping criterion = energy tolerance
  Energy initial, next-to-last, final = 
     -1152448.89296978  -1152448.89484066  -1152448.89484066
  Force two-norm initial, final = 0.1994598 0.00021878517
  Force max component initial, final = 0.084158614 7.9714275e-05
  Final line search alpha, max atom move = 1.0000000 7.9714275e-05
  Iterations, force evaluations = 158 316

MPI task timing breakdown:
Section |  min time  |  avg time  |  max time  |%varavg| %total
---------------------------------------------------------------
Pair    | 0.8913     | 2.5173     | 3.3166     |  44.2 | 72.66
Neigh   | 0          | 0          | 0          |   0.0 |  0.00
Comm    | 0.044772   | 0.55926    | 1.7844     |  67.5 | 16.14
Output  | 0          | 0          | 0          |   0.0 |  0.00
Modify  | 6.9386e-05 | 0.0052733  | 0.011053   |   3.4 |  0.15
Other   |            | 0.3827     |            |       | 11.05

Nlocal:        5552.90 ave        7910 max           0 min
Histogram: 4 2 2 0 2 6 4 0 15 17
Nghost:        6213.60 ave        8769 max         412 min
Histogram: 4 0 4 0 8 0 4 5 7 20
Neighs:       158427.0 ave      230584 max           0 min
Histogram: 4 2 2 0 5 3 4 4 12 16

Total # of neighbors = 8238200
Ave neighs/atom = 28.530464
Neighbor list builds = 0
Dangerous builds = 0
The dot product: -4.94764159688677e-08
Setting atom values ...
  1 settings made for x
  1 settings made for y
  1 settings made for z
Setting up cg style minimization ...
  Unit style    : metal
  Current step  : 3293
Per MPI rank memory allocation (min/avg/max) = 5.465 | 6.344 | 6.728 Mbytes
Step PotEng KinEng TotEng v_fx v_fy v_fz 
    3293   -1152448.9            0   -1152448.9  0.080489265  0.014534338 -0.0036918773 
    3481   -1152448.9            0   -1152448.9 1.2001182e-05 2.0133538e-06 -5.288878e-07 
Loop time of 4.09093 on 52 procs for 188 steps with 288751 atoms

99.9% CPU use with 52 MPI tasks x 1 OpenMP threads

Minimization stats:
  Stopping criterion = energy tolerance
  Energy initial, next-to-last, final = 
     -1152448.88015927  -1152448.88212762  -1152448.88212762
  Force two-norm initial, final = 0.19859279 0.00017891195
  Force max component initial, final = 0.085614277 3.2150182e-05
  Final line search alpha, max atom move = 1.0000000 3.2150182e-05
  Iterations, force evaluations = 188 378

MPI task timing breakdown:
Section |  min time  |  avg time  |  max time  |%varavg| %total
---------------------------------------------------------------
Pair    | 1.0655     | 2.9961     | 3.9296     |  47.9 | 73.24
Neigh   | 0          | 0          | 0          |   0.0 |  0.00
Comm    | 0.048078   | 0.65901    | 2.1093     |  73.9 | 16.11
Output  | 0          | 0          | 0          |   0.0 |  0.00
Modify  | 6.6667e-05 | 0.0063016  | 0.013324   |   3.7 |  0.15
Other   |            | 0.4295     |            |       | 10.50

Nlocal:        5552.90 ave        7910 max           0 min
Histogram: 4 2 2 0 2 6 4 0 15 17
Nghost:        6213.67 ave        8770 max         412 min
Histogram: 4 0 4 0 8 0 4 5 7 20
Neighs:       158427.0 ave      230579 max           0 min
Histogram: 4 2 2 0 5 3 4 4 12 16

Total # of neighbors = 8238198
Ave neighs/atom = 28.530457
Neighbor list builds = 0
Dangerous builds = 0
The dot product: -3.60642507389652e-08
Setting atom values ...
  1 settings made for x
  1 settings made for y
  1 settings made for z
Setting up cg style minimization ...
  Unit style    : metal
  Current step  : 3481
Per MPI rank memory allocation (min/avg/max) = 5.465 | 6.344 | 6.728 Mbytes
Step PotEng KinEng TotEng v_fx v_fy v_fz 
    3481   -1152448.9            0   -1152448.9  0.071330649  0.013413593 -0.0027828853 
    3630   -1152448.9            0   -1152448.9 2.857552e-05 5.2884877e-06 -1.1030151e-06 
Loop time of 3.24364 on 52 procs for 149 steps with 288751 atoms

99.9% CPU use with 52 MPI tasks x 1 OpenMP threads

Minimization stats:
  Stopping criterion = energy tolerance
  Energy initial, next-to-last, final = 
      -1152448.8664993  -1152448.86918397  -1152448.86918397
  Force two-norm initial, final = 0.19616066 0.00012029656
  Force max component initial, final = 0.085412901 2.8575520e-05
  Final line search alpha, max atom move = 1.0000000 2.8575520e-05
  Iterations, force evaluations = 149 298

MPI task timing breakdown:
Section |  min time  |  avg time  |  max time  |%varavg| %total
---------------------------------------------------------------
Pair    | 0.84273    | 2.3735     | 3.116      |  42.8 | 73.17
Neigh   | 0          | 0          | 0          |   0.0 |  0.00
Comm    | 0.039276   | 0.52259    | 1.6849     |  66.1 | 16.11
Output  | 0          | 0          | 0          |   0.0 |  0.00
Modify  | 6.9502e-05 | 0.0049989  | 0.010615   |   3.3 |  0.15
Other   |            | 0.3426     |            |       | 10.56

Nlocal:        5552.90 ave        7912 max           0 min
Histogram: 4 2 2 0 2 6 4 0 15 17
Nghost:        6213.69 ave        8770 max         412 min
Histogram: 4 0 4 0 8 0 4 5 7 20
Neighs:       158427.0 ave      230638 max           0 min
Histogram: 4 2 2 0 5 3 4 4 12 16

Total # of neighbors = 8238193
Ave neighs/atom = 28.530440
Neighbor list builds = 0
Dangerous builds = 0
The dot product: -5.36023999663332e-07
Setting atom values ...
  1 settings made for x
  1 settings made for y
  1 settings made for z
Setting up cg style minimization ...
  Unit style    : metal
  Current step  : 3630
Per MPI rank memory allocation (min/avg/max) = 5.465 | 6.344 | 6.728 Mbytes
Step PotEng KinEng TotEng v_fx v_fy v_fz 
    3630   -1152448.9            0   -1152448.9  0.048447109  0.013259859 -0.00019311785 
    3808   -1152448.9            0   -1152448.9 3.8161502e-05 2.8428377e-06 8.8361352e-07 
Loop time of 3.87193 on 52 procs for 178 steps with 288751 atoms

99.9% CPU use with 52 MPI tasks x 1 OpenMP threads

Minimization stats:
  Stopping criterion = energy tolerance
  Energy initial, next-to-last, final = 
     -1152448.85327565  -1152448.85545649  -1152448.85545649
  Force two-norm initial, final = 0.19322606 0.00021517535
  Force max component initial, final = 0.086332894 5.0966423e-05
  Final line search alpha, max atom move = 1.0000000 5.0966423e-05
  Iterations, force evaluations = 178 356

MPI task timing breakdown:
Section |  min time  |  avg time  |  max time  |%varavg| %total
---------------------------------------------------------------
Pair    | 1.004      | 2.8285     | 3.7168     |  46.7 | 73.05
Neigh   | 0          | 0          | 0          |   0.0 |  0.00
Comm    | 0.047234   | 0.62522    | 1.9931     |  71.8 | 16.15
Output  | 0          | 0          | 0          |   0.0 |  0.00
Modify  | 7.718e-05  | 0.0059816  | 0.01255    |   3.6 |  0.15
Other   |            | 0.4123     |            |       | 10.65

Nlocal:        5552.90 ave        7912 max           0 min
Histogram: 4 2 2 0 2 6 4 0 15 17
Nghost:        6213.69 ave        8770 max         412 min
Histogram: 4 0 4 0 8 0 4 5 7 20
Neighs:       158427.0 ave      230624 max           0 min
Histogram: 4 2 2 0 5 3 4 4 12 16

Total # of neighbors = 8238194
Ave neighs/atom = 28.530443
Neighbor list builds = 0
Dangerous builds = 0
The dot product: -4.88925286337431e-07
Setting atom values ...
  1 settings made for x
  1 settings made for y
  1 settings made for z
Setting up cg style minimization ...
  Unit style    : metal
  Current step  : 3808
Per MPI rank memory allocation (min/avg/max) = 5.465 | 6.344 | 6.728 Mbytes
Step PotEng KinEng TotEng v_fx v_fy v_fz 
    3808   -1152448.8            0   -1152448.8  0.057698141  0.011490566 0.0021389006 
    3990   -1152448.8            0   -1152448.8 3.592206e-05 5.6187532e-06 1.5347064e-06 
Loop time of 3.95789 on 52 procs for 182 steps with 288751 atoms

99.9% CPU use with 52 MPI tasks x 1 OpenMP threads

Minimization stats:
  Stopping criterion = energy tolerance
  Energy initial, next-to-last, final = 
     -1152448.83822804  -1152448.84030959  -1152448.84030959
  Force two-norm initial, final = 0.19819357 0.00016832631
  Force max component initial, final = 0.090914677 4.6411965e-05
  Final line search alpha, max atom move = 1.0000000 4.6411965e-05
  Iterations, force evaluations = 182 364

MPI task timing breakdown:
Section |  min time  |  avg time  |  max time  |%varavg| %total
---------------------------------------------------------------
Pair    | 1.0264     | 2.8864     | 3.8018     |  47.2 | 72.93
Neigh   | 0          | 0          | 0          |   0.0 |  0.00
Comm    | 0.048182   | 0.63817    | 2.0299     |  72.6 | 16.12
Output  | 0          | 0          | 0          |   0.0 |  0.00
Modify  | 8.1448e-05 | 0.0060897  | 0.013208   |   3.6 |  0.15
Other   |            | 0.4273     |            |       | 10.80

Nlocal:        5552.90 ave        7913 max           0 min
Histogram: 4 2 2 0 2 6 4 1 14 17
Nghost:        6213.73 ave        8770 max         412 min
Histogram: 4 0 4 0 8 0 4 5 7 20
Neighs:       158427.0 ave      230644 max           0 min
Histogram: 4 2 2 0 5 3 4 4 12 16

Total # of neighbors = 8238191
Ave neighs/atom = 28.530433
Neighbor list builds = 0
Dangerous builds = 0
The dot product: -4.15047746371542e-07
Setting atom values ...
  1 settings made for x
  1 settings made for y
  1 settings made for z
Setting up cg style minimization ...
  Unit style    : metal
  Current step  : 3990
Per MPI rank memory allocation (min/avg/max) = 5.465 | 6.344 | 6.728 Mbytes
Step PotEng KinEng TotEng v_fx v_fy v_fz 
    3990   -1152448.8            0   -1152448.8  0.060049734 0.0084861262 0.0042536589 
    4000   -1152448.8            0   -1152448.8 0.0059081589 0.0010951035 0.00038571479 
    4187   -1152448.8            0   -1152448.8 7.6084716e-06 -2.7923682e-07 7.0967128e-07 
Loop time of 4.27667 on 52 procs for 197 steps with 288751 atoms

99.9% CPU use with 52 MPI tasks x 1 OpenMP threads

Minimization stats:
  Stopping criterion = linesearch alpha is zero
  Energy initial, next-to-last, final = 
     -1152448.82178544  -1152448.82389717  -1152448.82389717
  Force two-norm initial, final = 0.20086764 9.9966588e-05
  Force max component initial, final = 0.095555527 2.5688514e-05
  Final line search alpha, max atom move = 0.5 1.2844257e-05
  Iterations, force evaluations = 197 395

MPI task timing breakdown:
Section |  min time  |  avg time  |  max time  |%varavg| %total
---------------------------------------------------------------
Pair    | 1.1135     | 3.1339     | 4.1062     |  49.1 | 73.28
Neigh   | 0          | 0          | 0          |   0.0 |  0.00
Comm    | 0.051742   | 0.68692    | 2.2124     |  75.8 | 16.06
Output  | 0.00011827 | 0.00012206 | 0.00026177 |   0.0 |  0.00
Modify  | 8.7778e-05 | 0.0065954  | 0.013933   |   3.8 |  0.15
Other   |            | 0.4491     |            |       | 10.50

Nlocal:        5552.90 ave        7915 max           0 min
Histogram: 4 2 2 0 2 6 4 1 14 17
Nghost:        6213.73 ave        8770 max         412 min
Histogram: 4 0 4 0 8 0 4 5 7 20
Neighs:       158427.0 ave      230702 max           0 min
Histogram: 4 2 2 0 5 3 4 4 12 16

Total # of neighbors = 8238191
Ave neighs/atom = 28.530433
Neighbor list builds = 0
Dangerous builds = 0
The dot product: -5.88815432954693e-08
Setting atom values ...
  1 settings made for x
  1 settings made for y
  1 settings made for z
Setting up cg style minimization ...
  Unit style    : metal
  Current step  : 4187
Per MPI rank memory allocation (min/avg/max) = 5.465 | 6.344 | 6.728 Mbytes
Step PotEng KinEng TotEng v_fx v_fy v_fz 
    4187   -1152448.8            0   -1152448.8  0.066293474 0.0081961788 0.0060155582 
    4339   -1152448.8            0   -1152448.8 3.2181032e-05 3.9329793e-06 2.9256663e-06 
Loop time of 3.30917 on 52 procs for 152 steps with 288751 atoms

99.9% CPU use with 52 MPI tasks x 1 OpenMP threads

Minimization stats:
  Stopping criterion = energy tolerance
  Energy initial, next-to-last, final = 
     -1152448.80403889  -1152448.80604548  -1152448.80604548
  Force two-norm initial, final = 0.20420088 0.00027231788
  Force max component initial, final = 0.098723719 9.9992499e-05
  Final line search alpha, max atom move = 1.0000000 9.9992499e-05
  Iterations, force evaluations = 152 304

MPI task timing breakdown:
Section |  min time  |  avg time  |  max time  |%varavg| %total
---------------------------------------------------------------
Pair    | 0.86022    | 2.4177     | 3.1793     |  43.2 | 73.06
Neigh   | 0          | 0          | 0          |   0.0 |  0.00
Comm    | 0.039956   | 0.53514    | 1.7176     |  66.6 | 16.17
Output  | 0          | 0          | 0          |   0.0 |  0.00
Modify  | 6.5956e-05 | 0.0050743  | 0.0107     |   3.3 |  0.15
Other   |            | 0.3512     |            |       | 10.61

Nlocal:        5552.90 ave        7917 max           0 min
Histogram: 4 2 2 0 2 6 4 1 14 17
Nghost:        6213.65 ave        8770 max         412 min
Histogram: 4 0 4 0 8 0 4 5 7 20
Neighs:       158427.0 ave      230782 max           0 min
Histogram: 4 2 2 0 5 3 4 4 12 16

Total # of neighbors = 8238191
Ave neighs/atom = 28.530433
Neighbor list builds = 0
Dangerous builds = 0
The dot product: -1.37229767458625e-07
Setting atom values ...
  1 settings made for x
  1 settings made for y
  1 settings made for z
Setting up cg style minimization ...
  Unit style    : metal
  Current step  : 4339
Per MPI rank memory allocation (min/avg/max) = 5.465 | 6.344 | 6.728 Mbytes
Step PotEng KinEng TotEng v_fx v_fy v_fz 
    4339   -1152448.8            0   -1152448.8  0.073757395 0.0086168432 0.0074073982 
    4497   -1152448.8            0   -1152448.8 3.2719033e-05   2.2509e-06 3.4693107e-06 
Loop time of 3.42216 on 52 procs for 158 steps with 288751 atoms

99.9% CPU use with 52 MPI tasks x 1 OpenMP threads

Minimization stats:
  Stopping criterion = energy tolerance
  Energy initial, next-to-last, final = 
     -1152448.78480372  -1152448.78675169  -1152448.78675169
  Force two-norm initial, final = 0.20737237 0.00017410863
  Force max component initial, final = 0.10040185 4.6105015e-05
  Final line search alpha, max atom move = 1.0000000 4.6105015e-05
  Iterations, force evaluations = 158 316

MPI task timing breakdown:
Section |  min time  |  avg time  |  max time  |%varavg| %total
---------------------------------------------------------------
Pair    | 0.88957    | 2.5047     | 3.2868     |  43.9 | 73.19
Neigh   | 0          | 0          | 0          |   0.0 |  0.00
Comm    | 0.04036    | 0.54989    | 1.7609     |  67.7 | 16.07
Output  | 0          | 0          | 0          |   0.0 |  0.00
Modify  | 7.1095e-05 | 0.0052673  | 0.011105   |   3.4 |  0.15
Other   |            | 0.3623     |            |       | 10.59

Nlocal:        5552.90 ave        7917 max           0 min
Histogram: 4 2 2 0 2 6 4 1 14 17
Nghost:        6213.65 ave        8769 max         412 min
Histogram: 4 0 4 0 8 0 4 5 7 20
Neighs:       158427.0 ave      230782 max           0 min
Histogram: 4 2 2 0 5 3 4 4 12 16

Total # of neighbors = 8238191
Ave neighs/atom = 28.530433
Neighbor list builds = 0
Dangerous builds = 0
The dot product: -1.80186281627278e-08
Setting atom values ...
  1 settings made for x
  1 settings made for y
  1 settings made for z
Setting up cg style minimization ...
  Unit style    : metal
  Current step  : 4497
Per MPI rank memory allocation (min/avg/max) = 5.465 | 6.344 | 6.728 Mbytes
Step PotEng KinEng TotEng v_fx v_fy v_fz 
    4497   -1152448.8            0   -1152448.8  0.080741003 0.0085983806 0.0083057297 
    4677   -1152448.8            0   -1152448.8 -3.2833478e-06 -2.3744717e-07 -3.5045376e-07 
Loop time of 3.93949 on 52 procs for 180 steps with 288751 atoms

99.9% CPU use with 52 MPI tasks x 1 OpenMP threads

Minimization stats:
  Stopping criterion = linesearch alpha is zero
  Energy initial, next-to-last, final = 
     -1152448.76405634  -1152448.76593649  -1152448.76593649
  Force two-norm initial, final = 0.20973931 6.5265291e-05
  Force max component initial, final = 0.10054376 1.2423849e-05
  Final line search alpha, max atom move = 0.5 6.2119244e-06
  Iterations, force evaluations = 180 361

MPI task timing breakdown:
Section |  min time  |  avg time  |  max time  |%varavg| %total
---------------------------------------------------------------
Pair    | 1.0155     | 2.8716     | 3.78       |  47.2 | 72.89
Neigh   | 0          | 0          | 0          |   0.0 |  0.00
Comm    | 0.047947   | 0.63538    | 2.0358     |  72.3 | 16.13
Output  | 0          | 0          | 0          |   0.0 |  0.00
Modify  | 8.2998e-05 | 0.0060174  | 0.012732   |   3.6 |  0.15
Other   |            | 0.4265     |            |       | 10.83

Nlocal:        5552.90 ave        7917 max           0 min
Histogram: 4 2 2 0 2 6 4 1 14 17
Nghost:        6213.58 ave        8768 max         412 min
Histogram: 4 0 4 0 8 0 4 5 7 20
Neighs:       158427.0 ave      230774 max           0 min
Histogram: 4 2 2 0 5 3 4 4 12 16

Total # of neighbors = 8238188
Ave neighs/atom = 28.530422
Neighbor list builds = 0
Dangerous builds = 0
The dot product: -8.36882090076543e-09
Setting atom values ...
  1 settings made for x
  1 settings made for y
  1 settings made for z
Setting up cg style minimization ...
  Unit style    : metal
  Current step  : 4677
Per MPI rank memory allocation (min/avg/max) = 5.465 | 6.344 | 6.728 Mbytes
Step PotEng KinEng TotEng v_fx v_fy v_fz 
    4677   -1152448.7            0   -1152448.7  0.086539219 0.0082485938 0.0085946591 
    4854   -1152448.7            0   -1152448.7 -1.3811711e-05 -2.4642356e-06 -1.2459851e-06 
Loop time of 3.85583 on 52 procs for 177 steps with 288751 atoms

99.9% CPU use with 52 MPI tasks x 1 OpenMP threads

Minimization stats:
  Stopping criterion = linesearch alpha is zero
  Energy initial, next-to-last, final = 
     -1152448.74173916  -1152448.74359473  -1152448.74359473
  Force two-norm initial, final = 0.21114243 6.6169750e-05
  Force max component initial, final = 0.099494365 1.3811711e-05
  Final line search alpha, max atom move = 0.5 6.9058556e-06
  Iterations, force evaluations = 177 355

MPI task timing breakdown:
Section |  min time  |  avg time  |  max time  |%varavg| %total
---------------------------------------------------------------
Pair    | 1.002      | 2.8146     | 3.6997     |  46.5 | 73.00
Neigh   | 0          | 0          | 0          |   0.0 |  0.00
Comm    | 0.045791   | 0.62133    | 1.9826     |  71.4 | 16.11
Output  | 0          | 0          | 0          |   0.0 |  0.00
Modify  | 8.3163e-05 | 0.0059236  | 0.01248    |   3.6 |  0.15
Other   |            | 0.4139     |            |       | 10.74

Nlocal:        5552.90 ave        7917 max           0 min
Histogram: 4 2 2 0 2 6 4 1 14 17
Nghost:        6213.62 ave        8768 max         412 min
Histogram: 4 0 4 0 8 0 4 5 7 20
Neighs:       158427.0 ave      230766 max           0 min
Histogram: 4 2 2 0 5 3 4 4 12 16

Total # of neighbors = 8238186
Ave neighs/atom = 28.530415
Neighbor list builds = 0
Dangerous builds = 0
The dot product: -5.91750706918333e-08
Setting atom values ...
  1 settings made for x
  1 settings made for y
  1 settings made for z
Setting up cg style minimization ...
  Unit style    : metal
  Current step  : 4854
Per MPI rank memory allocation (min/avg/max) = 5.465 | 6.344 | 6.728 Mbytes
Step PotEng KinEng TotEng v_fx v_fy v_fz 
    4854   -1152448.7            0   -1152448.7  0.089944896 0.0083704425 0.0082133863 
    5000   -1152448.7            0   -1152448.7 9.1832772e-05 1.4774259e-05 7.7267611e-06 
    5035   -1152448.7            0   -1152448.7 -2.1517438e-05 -3.0809156e-06 -1.8507656e-06 
Loop time of 3.99237 on 52 procs for 181 steps with 288751 atoms

99.9% CPU use with 52 MPI tasks x 1 OpenMP threads

Minimization stats:
  Stopping criterion = linesearch alpha is zero
  Energy initial, next-to-last, final = 
     -1152448.71790546  -1152448.71973719  -1152448.71973719
  Force two-norm initial, final = 0.21131417 5.8709816e-05
  Force max component initial, final = 0.097737648 2.2152107e-05
  Final line search alpha, max atom move = 0.5 1.1076054e-05
  Iterations, force evaluations = 181 363

MPI task timing breakdown:
Section |  min time  |  avg time  |  max time  |%varavg| %total
---------------------------------------------------------------
Pair    | 1.0242     | 2.8947     | 3.8149     |  47.3 | 72.51
Neigh   | 0          | 0          | 0          |   0.0 |  0.00
Comm    | 0.048797   | 0.64368    | 2.0502     |  72.3 | 16.12
Output  | 0.00020848 | 0.00021337 | 0.00036643 |   0.0 |  0.01
Modify  | 7.9452e-05 | 0.0060745  | 0.01282    |   3.6 |  0.15
Other   |            | 0.4477     |            |       | 11.21

Nlocal:        5552.90 ave        7917 max           0 min
Histogram: 4 2 2 0 2 6 4 1 14 17
Nghost:        6213.58 ave        8768 max         412 min
Histogram: 4 0 4 0 8 0 4 5 7 20
Neighs:       158427.0 ave      230768 max           0 min
Histogram: 4 2 2 0 5 3 4 4 12 16

Total # of neighbors = 8238186
Ave neighs/atom = 28.530415
Neighbor list builds = 0
Dangerous builds = 0
The dot product: -1.19996928525212e-07
Setting atom values ...
  1 settings made for x
  1 settings made for y
  1 settings made for z
Setting up cg style minimization ...
  Unit style    : metal
  Current step  : 5035
Per MPI rank memory allocation (min/avg/max) = 5.465 | 6.344 | 6.728 Mbytes
Step PotEng KinEng TotEng v_fx v_fy v_fz 
    5035   -1152448.7            0   -1152448.7  0.091615312 0.0092477671 0.0073646251 
    5189   -1152448.7            0   -1152448.7 2.3745251e-05 3.6666782e-06 1.7790865e-06 
Loop time of 3.36209 on 52 procs for 154 steps with 288751 atoms

99.9% CPU use with 52 MPI tasks x 1 OpenMP threads

Minimization stats:
  Stopping criterion = energy tolerance
  Energy initial, next-to-last, final = 
     -1152448.69258049  -1152448.69438115  -1152448.69438115
  Force two-norm initial, final = 0.21060344 0.00017612604
  Force max component initial, final = 0.095465206 7.1024165e-05
  Final line search alpha, max atom move = 1.0000000 7.1024165e-05
  Iterations, force evaluations = 154 308

MPI task timing breakdown:
Section |  min time  |  avg time  |  max time  |%varavg| %total
---------------------------------------------------------------
Pair    | 0.86999    | 2.4493     | 3.2253     |  43.4 | 72.85
Neigh   | 0          | 0          | 0          |   0.0 |  0.00
Comm    | 0.04046    | 0.54239    | 1.7238     |  66.6 | 16.13
Output  | 0          | 0          | 0          |   0.0 |  0.00
Modify  | 6.5371e-05 | 0.0051564  | 0.010993   |   3.3 |  0.15
Other   |            | 0.3652     |            |       | 10.86

Nlocal:        5552.90 ave        7917 max           0 min
Histogram: 4 2 2 0 2 6 4 1 14 17
Nghost:        6213.52 ave        8768 max         412 min
Histogram: 4 0 4 0 8 0 4 5 7 20
Neighs:       158427.0 ave      230772 max           0 min
Histogram: 4 2 2 0 5 3 4 4 12 16

Total # of neighbors = 8238188
Ave neighs/atom = 28.530422
Neighbor list builds = 0
Dangerous builds = 0
The dot product: 1.51271578825058e-07
Setting atom values ...
  1 settings made for x
  1 settings made for y
  1 settings made for z
Setting up cg style minimization ...
  Unit style    : metal
  Current step  : 5189
Per MPI rank memory allocation (min/avg/max) = 5.465 | 6.344 | 6.728 Mbytes
Step PotEng KinEng TotEng v_fx v_fy v_fz 
    5189   -1152448.7            0   -1152448.7   0.09201782  0.011074024 0.0061960355 
    5338   -1152448.7            0   -1152448.7 1.2180199e-06 -3.9781942e-06 4.8938173e-07 
Loop time of 3.29079 on 52 procs for 149 steps with 288751 atoms

99.9% CPU use with 52 MPI tasks x 1 OpenMP threads

Minimization stats:
  Stopping criterion = linesearch alpha is zero
  Energy initial, next-to-last, final = 
     -1152448.66578703  -1152448.66755047  -1152448.66755047
  Force two-norm initial, final = 0.20936813 0.00021014885
  Force max component initial, final = 0.092931722 1.1039468e-05
  Final line search alpha, max atom move = 0.25 2.7598671e-06
  Iterations, force evaluations = 149 301

MPI task timing breakdown:
Section |  min time  |  avg time  |  max time  |%varavg| %total
---------------------------------------------------------------
Pair    | 0.84907    | 2.3945     | 3.1521     |  43.0 | 72.76
Neigh   | 0          | 0          | 0          |   0.0 |  0.00
Comm    | 0.043231   | 0.53144    | 1.6905     |  65.9 | 16.15
Output  | 0          | 0          | 0          |   0.0 |  0.00
Modify  | 6.4405e-05 | 0.0050315  | 0.010739   |   3.3 |  0.15
Other   |            | 0.3598     |            |       | 10.93

Nlocal:        5552.90 ave        7917 max           0 min
Histogram: 4 2 2 0 2 6 4 1 14 17
Nghost:        6213.52 ave        8768 max         412 min
Histogram: 4 0 4 0 8 0 4 5 7 20
Neighs:       158427.0 ave      230771 max           0 min
Histogram: 4 2 2 0 5 3 4 4 12 16

Total # of neighbors = 8238186
Ave neighs/atom = 28.530415
Neighbor list builds = 0
Dangerous builds = 0
The dot product: 1.56192960144303e-08
Setting atom values ...
  1 settings made for x
  1 settings made for y
  1 settings made for z
Setting up cg style minimization ...
  Unit style    : metal
  Current step  : 5338
Per MPI rank memory allocation (min/avg/max) = 5.465 | 6.344 | 6.728 Mbytes
Step PotEng KinEng TotEng v_fx v_fy v_fz 
    5338   -1152448.6            0   -1152448.6  0.091178766  0.014011948 0.0047866587 
    5498   -1152448.6            0   -1152448.6 2.3010198e-05 2.8759256e-06 1.2712959e-06 
Loop time of 3.47798 on 52 procs for 160 steps with 288751 atoms

99.9% CPU use with 52 MPI tasks x 1 OpenMP threads

Minimization stats:
  Stopping criterion = linesearch alpha is zero
  Energy initial, next-to-last, final = 
     -1152448.63755459  -1152448.63927511  -1152448.63927511
  Force two-norm initial, final = 0.20765257 0.00014275903
  Force max component initial, final = 0.091178766 3.3894971e-05
  Final line search alpha, max atom move = 0.5 1.6947485e-05
  Iterations, force evaluations = 160 321

MPI task timing breakdown:
Section |  min time  |  avg time  |  max time  |%varavg| %total
---------------------------------------------------------------
Pair    | 0.90526    | 2.5468     | 3.3417     |  44.3 | 73.23
Neigh   | 0          | 0          | 0          |   0.0 |  0.00
Comm    | 0.041473   | 0.5588     | 1.7905     |  68.3 | 16.07
Output  | 0          | 0          | 0          |   0.0 |  0.00
Modify  | 6.9922e-05 | 0.0053545  | 0.011287   |   3.4 |  0.15
Other   |            | 0.3671     |            |       | 10.55

Nlocal:        5552.90 ave        7917 max           0 min
Histogram: 4 2 2 0 2 6 4 1 14 17
Nghost:        6213.52 ave        8768 max         412 min
Histogram: 4 0 4 0 8 0 4 5 7 20
Neighs:       158427.0 ave      230758 max           0 min
Histogram: 4 2 2 0 5 3 4 4 12 16

Total # of neighbors = 8238188
Ave neighs/atom = 28.530422
Neighbor list builds = 0
Dangerous builds = 0
The dot product: 1.71275162934943e-07
Setting atom values ...
  1 settings made for x
  1 settings made for y
  1 settings made for z
Setting up cg style minimization ...
  Unit style    : metal
  Current step  : 5498
Per MPI rank memory allocation (min/avg/max) = 5.465 | 6.344 | 6.728 Mbytes
Step PotEng KinEng TotEng v_fx v_fy v_fz 
    5498   -1152448.6            0   -1152448.6  0.089234395  0.018402665 0.0031820111 
    5653   -1152448.6            0   -1152448.6 -6.6732094e-05 -8.2255867e-06 -2.8999548e-06 
Loop time of 3.42478 on 52 procs for 155 steps with 288751 atoms

99.9% CPU use with 52 MPI tasks x 1 OpenMP threads

Minimization stats:
  Stopping criterion = linesearch alpha is zero
  Energy initial, next-to-last, final = 
     -1152448.60791768  -1152448.60959426  -1152448.60959426
  Force two-norm initial, final = 0.20579332 0.0001870222
  Force max component initial, final = 0.089234395 8.4947127e-05
  Final line search alpha, max atom move = 0.25 2.1236782e-05
  Iterations, force evaluations = 155 313

MPI task timing breakdown:
Section |  min time  |  avg time  |  max time  |%varavg| %total
---------------------------------------------------------------
Pair    | 0.88117    | 2.4874     | 3.285      |  43.9 | 72.63
Neigh   | 0          | 0          | 0          |   0.0 |  0.00
Comm    | 0.041282   | 0.55427    | 1.7538     |  67.0 | 16.18
Output  | 0          | 0          | 0          |   0.0 |  0.00
Modify  | 6.8147e-05 | 0.0052122  | 0.011087   |   3.4 |  0.15
Other   |            | 0.3779     |            |       | 11.03

Nlocal:        5552.90 ave        7917 max           0 min
Histogram: 4 2 2 0 2 6 4 1 14 17
Nghost:        6213.52 ave        8768 max         412 min
Histogram: 4 0 4 0 8 0 4 5 7 20
Neighs:       158427.0 ave      230759 max           0 min
Histogram: 4 2 2 0 5 3 4 4 12 16

Total # of neighbors = 8238188
Ave neighs/atom = 28.530422
Neighbor list builds = 0
Dangerous builds = 0
The dot product: -5.2372803005513e-07
Setting atom values ...
  1 settings made for x
  1 settings made for y
  1 settings made for z
Setting up cg style minimization ...
  Unit style    : metal
  Current step  : 5653
Per MPI rank memory allocation (min/avg/max) = 5.465 | 6.344 | 6.728 Mbytes
Step PotEng KinEng TotEng v_fx v_fy v_fz 
    5653   -1152448.6            0   -1152448.6  0.086138894  0.023536249  0.001482516 
    5860   -1152448.6            0   -1152448.6 1.9043484e-05 1.9083222e-06 6.3622439e-07 
Loop time of 4.47686 on 52 procs for 207 steps with 288751 atoms

99.9% CPU use with 52 MPI tasks x 1 OpenMP threads

Minimization stats:
  Stopping criterion = energy tolerance
  Energy initial, next-to-last, final = 
     -1152448.57693351   -1152448.5785671   -1152448.5785671
  Force two-norm initial, final = 0.20367664 5.0791160e-05
  Force max component initial, final = 0.086506996 1.9043484e-05
  Final line search alpha, max atom move = 1.0000000 1.9043484e-05
  Iterations, force evaluations = 207 414

MPI task timing breakdown:
Section |  min time  |  avg time  |  max time  |%varavg| %total
---------------------------------------------------------------
Pair    | 1.1668     | 3.278      | 4.3005     |  50.3 | 73.22
Neigh   | 0          | 0          | 0          |   0.0 |  0.00
Comm    | 0.052843   | 0.72056    | 2.3074     |  77.4 | 16.10
Output  | 0          | 0          | 0          |   0.0 |  0.00
Modify  | 8.7222e-05 | 0.0068879  | 0.014646   |   3.9 |  0.15
Other   |            | 0.4714     |            |       | 10.53

Nlocal:        5552.90 ave        7917 max           0 min
Histogram: 4 2 2 0 2 6 4 1 14 17
Nghost:        6213.56 ave        8768 max         412 min
Histogram: 4 0 4 0 8 0 4 5 7 20
Neighs:       158427.0 ave      230760 max           0 min
Histogram: 4 2 2 0 5 3 4 4 12 16

Total # of neighbors = 8238187
Ave neighs/atom = 28.530419
Neighbor list builds = 0
Dangerous builds = 0
The dot product: 1.57789848986501e-07
Setting atom values ...
  1 settings made for x
  1 settings made for y
  1 settings made for z
Setting up cg style minimization ...
  Unit style    : metal
  Current step  : 5860
Per MPI rank memory allocation (min/avg/max) = 5.465 | 6.344 | 6.728 Mbytes
Step PotEng KinEng TotEng v_fx v_fy v_fz 
    5860   -1152448.5            0   -1152448.5  0.082132989  0.031721344 -0.0005335482 
    6000   -1152448.6            0   -1152448.6 -0.0077992495 -0.0013499078 -0.0001086406 
    6164   -1152448.6            0   -1152448.6 5.0789931e-06 8.4465471e-07 7.4047662e-08 
Loop time of 6.65239 on 52 procs for 304 steps with 288751 atoms

99.9% CPU use with 52 MPI tasks x 1 OpenMP threads

Minimization stats:
  Stopping criterion = linesearch alpha is zero
  Energy initial, next-to-last, final = 
     -1152448.54474577  -1152448.61730923  -1152448.61730923
  Force two-norm initial, final = 0.20200644 4.8418259e-05
  Force max component initial, final = 0.088336475 7.6651401e-06
  Final line search alpha, max atom move = 0.5 3.8325700e-06
  Iterations, force evaluations = 304 610

MPI task timing breakdown:
Section |  min time  |  avg time  |  max time  |%varavg| %total
---------------------------------------------------------------
Pair    | 1.7347     | 4.8542     | 6.3722     |  61.0 | 72.97
Neigh   | 3.7893e-05 | 0.011458   | 0.016827   |   4.5 |  0.17
Comm    | 0.081225   | 1.0737     | 3.4496     |  94.2 | 16.14
Output  | 0.00012547 | 0.00013001 | 0.00029118 |   0.0 |  0.00
Modify  | 0.00013562 | 0.010169   | 0.021428   |   4.7 |  0.15
Other   |            | 0.7028     |            |       | 10.56

Nlocal:        5552.90 ave        7908 max           0 min
Histogram: 4 2 2 0 2 6 4 0 15 17
Nghost:        6213.54 ave        8768 max         412 min
Histogram: 4 0 4 0 8 0 4 5 7 20
Neighs:       158427.0 ave      230436 max           0 min
Histogram: 4 2 2 0 5 3 4 4 12 16

Total # of neighbors = 8238194
Ave neighs/atom = 28.530443
Neighbor list builds = 2
Dangerous builds = 0
The dot product: 4.69241911254138e-07
Setting atom values ...
  1 settings made for x
  1 settings made for y
  1 settings made for z
Setting up cg style minimization ...
  Unit style    : metal
  Current step  : 6164
Per MPI rank memory allocation (min/avg/max) = 5.465 | 6.344 | 6.728 Mbytes
Step PotEng KinEng TotEng v_fx v_fy v_fz 
    6164   -1152448.6            0   -1152448.6   0.07683107    0.1461237 -0.087977834 
    6381   -1152448.6            0   -1152448.6 4.6710794e-05 2.1613375e-05 -1.4044045e-05 
Loop time of 4.70148 on 52 procs for 217 steps with 288751 atoms

99.9% CPU use with 52 MPI tasks x 1 OpenMP threads

Minimization stats:
  Stopping criterion = linesearch alpha is zero
  Energy initial, next-to-last, final = 
     -1152448.61057647  -1152448.61362431  -1152448.61362431
  Force two-norm initial, final = 0.23166072 0.0001187369
  Force max component initial, final = 0.1461237 4.6710794e-05
  Final line search alpha, max atom move = 0.5 2.3355397e-05
  Iterations, force evaluations = 217 435

MPI task timing breakdown:
Section |  min time  |  avg time  |  max time  |%varavg| %total
---------------------------------------------------------------
Pair    | 1.2243     | 3.4418     | 4.5055     |  51.4 | 73.21
Neigh   | 0          | 0          | 0          |   0.0 |  0.00
Comm    | 0.05543    | 0.75736    | 2.4255     |  79.2 | 16.11
Output  | 0          | 0          | 0          |   0.0 |  0.00
Modify  | 9.4383e-05 | 0.0072559  | 0.015427   |   4.0 |  0.15
Other   |            | 0.4951     |            |       | 10.53

Nlocal:        5552.90 ave        7907 max           0 min
Histogram: 4 2 2 0 2 6 4 0 15 17
Nghost:        6213.62 ave        8769 max         412 min
Histogram: 4 0 4 0 8 0 4 5 7 20
Neighs:       158427.0 ave      230448 max           0 min
Histogram: 4 2 2 0 5 3 4 4 12 16

Total # of neighbors = 8238185
Ave neighs/atom = 28.530412
Neighbor list builds = 0
Dangerous builds = 0
The dot product: 9.057212142149e-07
Setting atom values ...
  1 settings made for x
  1 settings made for y
  1 settings made for z
Setting up cg style minimization ...
  Unit style    : metal
  Current step  : 6381
Per MPI rank memory allocation (min/avg/max) = 5.465 | 6.344 | 6.728 Mbytes
Step PotEng KinEng TotEng v_fx v_fy v_fz 
    6381   -1152448.6            0   -1152448.6  0.065669466  0.035125088 -0.024717607 
    6649     -1152449            0     -1152449 7.3435793e-07 1.0217972e-05 -6.5613031e-06 
Loop time of 5.8795 on 52 procs for 268 steps with 288751 atoms

99.9% CPU use with 52 MPI tasks x 1 OpenMP threads

Minimization stats:
  Stopping criterion = energy tolerance
  Energy initial, next-to-last, final = 
     -1152448.60682021  -1152448.99153946  -1152448.99153946
  Force two-norm initial, final = 0.15781622 0.00028679229
  Force max component initial, final = 0.074498429 7.2995298e-05
  Final line search alpha, max atom move = 1.0000000 7.2995298e-05
  Iterations, force evaluations = 268 538

MPI task timing breakdown:
Section |  min time  |  avg time  |  max time  |%varavg| %total
---------------------------------------------------------------
Pair    | 1.5594     | 4.2835     | 5.5921     |  56.7 | 72.86
Neigh   | 0.0001159  | 0.034325   | 0.050831   |   7.8 |  0.58
Comm    | 0.074076   | 0.94088    | 3.0249     |  88.6 | 16.00
Output  | 0          | 0          | 0          |   0.0 |  0.00
Modify  | 0.00011341 | 0.0089784  | 0.01901    |   4.4 |  0.15
Other   |            | 0.6118     |            |       | 10.41

Nlocal:        5552.90 ave        7901 max           0 min
Histogram: 4 2 2 0 2 6 4 0 15 17
Nghost:        6213.62 ave        8769 max         412 min
Histogram: 4 0 4 0 8 0 4 5 7 20
Neighs:       158427.0 ave      230261 max           0 min
Histogram: 4 2 2 0 5 3 4 4 12 16

Total # of neighbors = 8238216
Ave neighs/atom = 28.530519
Neighbor list builds = 6
Dangerous builds = 0
The dot product: 4.58065400703703e-06
Setting atom values ...
  1 settings made for x
  1 settings made for y
  1 settings made for z
Setting up cg style minimization ...
  Unit style    : metal
  Current step  : 6649
Per MPI rank memory allocation (min/avg/max) = 5.465 | 6.344 | 6.728 Mbytes
Step PotEng KinEng TotEng v_fx v_fy v_fz 
    6649     -1152449            0     -1152449  -0.61704558 -0.058543677   0.76341367 
    6965   -1152449.2            0   -1152449.2 -1.65866e-06 7.0204817e-06 -8.7893587e-06 
Loop time of 6.86677 on 52 procs for 316 steps with 288751 atoms

99.9% CPU use with 52 MPI tasks x 1 OpenMP threads

Minimization stats:
  Stopping criterion = linesearch alpha is zero
  Energy initial, next-to-last, final = 
     -1152449.01579583  -1152449.17339937  -1152449.17339937
  Force two-norm initial, final = 0.99531773 3.9001883e-05
  Force max component initial, final = 0.76341367 1.0886384e-05
  Final line search alpha, max atom move = 0.5 5.4431918e-06
  Iterations, force evaluations = 316 633

MPI task timing breakdown:
Section |  min time  |  avg time  |  max time  |%varavg| %total
---------------------------------------------------------------
Pair    | 1.7968     | 5.0144     | 6.5774     |  61.8 | 73.02
Neigh   | 3.8365e-05 | 0.011451   | 0.016891   |   4.5 |  0.17
Comm    | 0.083985   | 1.1058     | 3.5215     |  95.4 | 16.10
Output  | 0          | 0          | 0          |   0.0 |  0.00
Modify  | 0.00013075 | 0.010545   | 0.022242   |   4.8 |  0.15
Other   |            | 0.7246     |            |       | 10.55

Nlocal:        5552.90 ave        7869 max           0 min
Histogram: 4 2 2 0 2 6 4 0 14 18
Nghost:        6213.69 ave        8770 max         412 min
Histogram: 4 0 4 0 8 0 4 5 7 20
Neighs:       158427.0 ave      229209 max           0 min
Histogram: 4 2 2 0 4 4 4 4 10 18

Total # of neighbors = 8238204
Ave neighs/atom = 28.530478
Neighbor list builds = 2
Dangerous builds = 0
The dot product: -1.48687942411387e-06
Setting atom values ...
  1 settings made for x
  1 settings made for y
  1 settings made for z
Setting up cg style minimization ...
  Unit style    : metal
  Current step  : 6965
Per MPI rank memory allocation (min/avg/max) = 5.465 | 6.344 | 6.728 Mbytes
Step PotEng KinEng TotEng v_fx v_fy v_fz 
    6965   -1152449.2            0   -1152449.2   0.38110842  0.076141897  -0.23937733 
    7000   -1152449.2            0   -1152449.2 0.00066935559 -0.0027773376 0.0026428781 
    7186   -1152449.2            0   -1152449.2 2.0189886e-05 -2.3025718e-05 1.5793136e-05 
Loop time of 4.79077 on 52 procs for 221 steps with 288751 atoms

99.9% CPU use with 52 MPI tasks x 1 OpenMP threads

Minimization stats:
  Stopping criterion = energy tolerance
  Energy initial, next-to-last, final = 
     -1152449.19774891  -1152449.22536207  -1152449.22536207
  Force two-norm initial, final = 0.48666087 0.00018651647
  Force max component initial, final = 0.38110842 3.4503498e-05
  Final line search alpha, max atom move = 1.0000000 3.4503498e-05
  Iterations, force evaluations = 221 442

MPI task timing breakdown:
Section |  min time  |  avg time  |  max time  |%varavg| %total
---------------------------------------------------------------
Pair    | 1.2554     | 3.5112     | 4.5933     |  51.8 | 73.29
Neigh   | 1.9721e-05 | 0.005748   | 0.0084278  |   3.2 |  0.12
Comm    | 0.058706   | 0.77347    | 2.4747     |  80.3 | 16.15
Output  | 0.00013308 | 0.00013761 | 0.00029127 |   0.0 |  0.00
Modify  | 8.9296e-05 | 0.0073662  | 0.015592   |   4.0 |  0.15
Other   |            | 0.4929     |            |       | 10.29

Nlocal:        5552.90 ave        7864 max           0 min
Histogram: 4 2 2 0 2 6 4 0 13 19
Nghost:        6213.69 ave        8771 max         412 min
Histogram: 4 0 4 0 8 0 4 5 7 20
Neighs:       158427.0 ave      229031 max           0 min
Histogram: 4 2 2 0 4 4 4 4 10 18

Total # of neighbors = 8238197
Ave neighs/atom = 28.530454
Neighbor list builds = 1
Dangerous builds = 0
The dot product: 1.00533093491228e-06
Setting atom values ...
  1 settings made for x
  1 settings made for y
  1 settings made for z
Setting up cg style minimization ...
  Unit style    : metal
  Current step  : 7186
Per MPI rank memory allocation (min/avg/max) = 5.465 | 6.344 | 6.728 Mbytes
Step PotEng KinEng TotEng v_fx v_fy v_fz 
    7186   -1152449.2            0   -1152449.2 -0.090910368 0.0012565057  0.054853544 
    7387   -1152449.3            0   -1152449.3 1.4058826e-05 -4.5816094e-05 4.4591267e-05 
Loop time of 4.35736 on 52 procs for 201 steps with 288751 atoms

99.9% CPU use with 52 MPI tasks x 1 OpenMP threads

Minimization stats:
  Stopping criterion = energy tolerance
  Energy initial, next-to-last, final = 
     -1152449.24711651  -1152449.25193504  -1152449.25193504
  Force two-norm initial, final = 0.19085098 0.00020402918
  Force max component initial, final = 0.090910368 5.1229439e-05
  Final line search alpha, max atom move = 1.0000000 5.1229439e-05
  Iterations, force evaluations = 201 402

MPI task timing breakdown:
Section |  min time  |  avg time  |  max time  |%varavg| %total
---------------------------------------------------------------
Pair    | 1.1339     | 3.1918     | 4.177      |  49.6 | 73.25
Neigh   | 0          | 0          | 0          |   0.0 |  0.00
Comm    | 0.059329   | 0.70118    | 2.2565     |  76.2 | 16.09
Output  | 0          | 0          | 0          |   0.0 |  0.00
Modify  | 9.3422e-05 | 0.0067236  | 0.014286   |   3.8 |  0.15
Other   |            | 0.4577     |            |       | 10.50

Nlocal:        5552.90 ave        7866 max           0 min
Histogram: 4 2 2 0 2 6 4 0 13 19
Nghost:        6213.69 ave        8771 max         412 min
Histogram: 4 0 4 0 8 0 4 5 7 20
Neighs:       158427.0 ave      229089 max           0 min
Histogram: 4 2 2 0 4 4 4 4 10 18

Total # of neighbors = 8238205
Ave neighs/atom = 28.530481
Neighbor list builds = 0
Dangerous builds = 0
The dot product: 4.35647496413703e-07
Setting atom values ...
  1 settings made for x
  1 settings made for y
  1 settings made for z
Setting up cg style minimization ...
  Unit style    : metal
  Current step  : 7387
Per MPI rank memory allocation (min/avg/max) = 5.465 | 6.344 | 6.728 Mbytes
Step PotEng KinEng TotEng v_fx v_fy v_fz 
    7387   -1152449.3            0   -1152449.3  0.067778405 0.0062057049 -0.043793081 
    7505   -1152449.3            0   -1152449.3 -2.4999742e-05 9.5023212e-07 1.2504592e-05 
Loop time of 2.56585 on 52 procs for 118 steps with 288751 atoms

99.9% CPU use with 52 MPI tasks x 1 OpenMP threads

Minimization stats:
  Stopping criterion = energy tolerance
  Energy initial, next-to-last, final = 
     -1152449.27280038  -1152449.27444681  -1152449.27444681
  Force two-norm initial, final = 0.18040243 0.00033101097
  Force max component initial, final = 0.089193535 7.3849677e-05
  Final line search alpha, max atom move = 1.0000000 7.3849677e-05
  Iterations, force evaluations = 118 236

MPI task timing breakdown:
Section |  min time  |  avg time  |  max time  |%varavg| %total
---------------------------------------------------------------
Pair    | 0.66708    | 1.8792     | 2.4593     |  38.1 | 73.24
Neigh   | 0          | 0          | 0          |   0.0 |  0.00
Comm    | 0.031693   | 0.41665    | 1.3312     |  58.6 | 16.24
Output  | 0          | 0          | 0          |   0.0 |  0.00
Modify  | 5.4372e-05 | 0.0039485  | 0.008288   |   2.9 |  0.15
Other   |            | 0.2661     |            |       | 10.37

Nlocal:        5552.90 ave        7865 max           0 min
Histogram: 4 2 2 0 2 6 4 0 13 19
Nghost:        6213.69 ave        8771 max         412 min
Histogram: 4 0 4 0 8 0 4 5 7 20
Neighs:       158427.0 ave      229062 max           0 min
Histogram: 4 2 2 0 4 4 4 4 10 18

Total # of neighbors = 8238203
Ave neighs/atom = 28.530474
Neighbor list builds = 0
Dangerous builds = 0
The dot product: -3.18616100486394e-07
Setting atom values ...
  1 settings made for x
  1 settings made for y
  1 settings made for z
Setting up cg style minimization ...
  Unit style    : metal
  Current step  : 7505
Per MPI rank memory allocation (min/avg/max) = 5.465 | 6.344 | 6.728 Mbytes
Step PotEng KinEng TotEng v_fx v_fy v_fz 
    7505   -1152449.3            0   -1152449.3  0.017131906 0.0072715918  -0.01785853 
    7662   -1152449.3            0   -1152449.3 1.4462762e-05 -1.4346129e-06 -6.4917211e-06 
Loop time of 3.38446 on 52 procs for 157 steps with 288751 atoms

99.9% CPU use with 52 MPI tasks x 1 OpenMP threads

Minimization stats:
  Stopping criterion = energy tolerance
  Energy initial, next-to-last, final = 
[...]
Nghost:        6213.58 ave        8769 max         412 min
Histogram: 4 0 4 0 8 0 4 5 7 20
Neighs:       158427.0 ave      229977 max           0 min
Histogram: 4 2 2 0 5 3 4 4 12 16

Total # of neighbors = 8238190
Ave neighs/atom = 28.530429
Neighbor list builds = 0
Dangerous builds = 0
The dot product: -4.78225846727775e-08
Setting atom values ...
  1 settings made for x
  1 settings made for y
  1 settings made for z
Setting up cg style minimization ...
  Unit style    : metal
  Current step  : 16597
Per MPI rank memory allocation (min/avg/max) = 5.465 | 6.344 | 6.728 Mbytes
Step PotEng KinEng TotEng v_fx v_fy v_fz 
   16597   -1152449.3            0   -1152449.3 -0.042413374   0.02523247 0.0019303369 
   16800   -1152449.3            0   -1152449.3 9.2452065e-06 -8.2234386e-06 3.4787658e-06 
Loop time of 4.36701 on 52 procs for 203 steps with 288751 atoms

99.9% CPU use with 52 MPI tasks x 1 OpenMP threads

Minimization stats:
  Stopping criterion = linesearch alpha is zero
  Energy initial, next-to-last, final = 
     -1152449.33224357   -1152449.3332724   -1152449.3332724
  Force two-norm initial, final = 0.14053194 6.8604790e-05
  Force max component initial, final = 0.058471327 9.6484197e-06
  Final line search alpha, max atom move = 0.5 4.8242099e-06
  Iterations, force evaluations = 203 407

MPI task timing breakdown:
Section |  min time  |  avg time  |  max time  |%varavg| %total
---------------------------------------------------------------
Pair    | 1.1452     | 3.1982     | 4.1966     |  49.3 | 73.23
Neigh   | 0          | 0          | 0          |   0.0 |  0.00
Comm    | 0.053688   | 0.69699    | 2.2169     |  76.2 | 15.96
Output  | 0          | 0          | 0          |   0.0 |  0.00
Modify  | 7.9554e-05 | 0.0067444  | 0.014217   |   3.8 |  0.15
Other   |            | 0.4651     |            |       | 10.65

Nlocal:        5552.90 ave        7900 max           0 min
Histogram: 4 2 2 0 2 6 4 0 14 18
Nghost:        6213.58 ave        8769 max         412 min
Histogram: 4 0 4 0 8 0 4 5 7 20
Neighs:       158427.0 ave      230223 max           0 min
Histogram: 4 2 2 0 5 3 4 4 12 16

Total # of neighbors = 8238191
Ave neighs/atom = 28.530433
Neighbor list builds = 0
Dangerous builds = 0
The dot product: -3.37373016354584e-08
Setting atom values ...
  1 settings made for x
  1 settings made for y
  1 settings made for z
Setting up cg style minimization ...
  Unit style    : metal
  Current step  : 16800
Per MPI rank memory allocation (min/avg/max) = 5.465 | 6.344 | 6.728 Mbytes
Step PotEng KinEng TotEng v_fx v_fy v_fz 
   16800   -1152449.3            0   -1152449.3 -0.043132522  0.025962041 0.0014029505 
   16999   -1152449.3            0   -1152449.3 -1.1246931e-05 -4.244382e-06 1.614707e-05 
Loop time of 4.29956 on 52 procs for 199 steps with 288751 atoms

99.9% CPU use with 52 MPI tasks x 1 OpenMP threads

Minimization stats:
  Stopping criterion = linesearch alpha is zero
  Energy initial, next-to-last, final = 
     -1152449.33884069  -1152449.33988423  -1152449.33988423
  Force two-norm initial, final = 0.14145007 7.9412124e-05
  Force max component initial, final = 0.060167435 1.6147070e-05
  Final line search alpha, max atom move = 0.5 8.0735351e-06
  Iterations, force evaluations = 199 399

MPI task timing breakdown:
Section |  min time  |  avg time  |  max time  |%varavg| %total
---------------------------------------------------------------
Pair    | 1.1246     | 3.1406     | 4.1329     |  48.9 | 73.04
Neigh   | 0          | 0          | 0          |   0.0 |  0.00
Comm    | 0.050126   | 0.68663    | 2.1833     |  75.2 | 15.97
Output  | 0          | 0          | 0          |   0.0 |  0.00
Modify  | 7.1541e-05 | 0.006624   | 0.013911   |   3.8 |  0.15
Other   |            | 0.4657     |            |       | 10.83

Nlocal:        5552.90 ave        7904 max           0 min
Histogram: 4 2 2 0 2 6 4 0 15 17
Nghost:        6213.58 ave        8769 max         412 min
Histogram: 4 0 4 0 8 0 4 5 7 20
Neighs:       158427.0 ave      230317 max           0 min
Histogram: 4 2 2 0 5 3 4 4 12 16

Total # of neighbors = 8238192
Ave neighs/atom = 28.530436
Neighbor list builds = 0
Dangerous builds = 0
The dot product: 2.79511607197987e-08
Setting atom values ...
  1 settings made for x
  1 settings made for y
  1 settings made for z
Setting up cg style minimization ...
  Unit style    : metal
  Current step  : 16999
Per MPI rank memory allocation (min/avg/max) = 5.465 | 6.344 | 6.728 Mbytes
Step PotEng KinEng TotEng v_fx v_fy v_fz 
   16999   -1152449.3            0   -1152449.3 -0.042991481  0.026500707 0.0003715905 
   17000   -1152449.3            0   -1152449.3  0.017004695 -0.0087281528 -0.002661554 
   17191   -1152449.3            0   -1152449.3 1.5589196e-05 -9.4322249e-07 -1.2559988e-05 
Loop time of 4.14427 on 52 procs for 192 steps with 288751 atoms

99.9% CPU use with 52 MPI tasks x 1 OpenMP threads

Minimization stats:
  Stopping criterion = linesearch alpha is zero
  Energy initial, next-to-last, final = 
     -1152449.34395815  -1152449.34501403  -1152449.34501403
  Force two-norm initial, final = 0.14199791 9.3336483e-05
  Force max component initial, final = 0.061813311 1.5589196e-05
  Final line search alpha, max atom move = 0.5 7.7945979e-06
  Iterations, force evaluations = 192 385

MPI task timing breakdown:
Section |  min time  |  avg time  |  max time  |%varavg| %total
---------------------------------------------------------------
Pair    | 1.081      | 3.0254     | 3.9738     |  48.0 | 73.00
Neigh   | 0          | 0          | 0          |   0.0 |  0.00
Comm    | 0.049914   | 0.66072    | 2.0972     |  74.1 | 15.94
Output  | 0.00011309 | 0.00011667 | 0.00023831 |   0.0 |  0.00
Modify  | 7.9388e-05 | 0.0063885  | 0.013414   |   3.7 |  0.15
Other   |            | 0.4517     |            |       | 10.90

Nlocal:        5552.90 ave        7908 max           0 min
Histogram: 4 2 2 0 2 6 4 0 15 17
Nghost:        6213.54 ave        8769 max         412 min
Histogram: 4 0 4 0 8 0 4 5 7 20
Neighs:       158427.0 ave      230457 max           0 min
Histogram: 4 2 2 0 5 3 4 4 12 16

Total # of neighbors = 8238191
Ave neighs/atom = 28.530433
Neighbor list builds = 0
Dangerous builds = 0
The dot product: -4.69027409966246e-08
Setting atom values ...
  1 settings made for x
  1 settings made for y
  1 settings made for z
Setting up cg style minimization ...
  Unit style    : metal
  Current step  : 17191
Per MPI rank memory allocation (min/avg/max) = 5.465 | 6.344 | 6.728 Mbytes
Step PotEng KinEng TotEng v_fx v_fy v_fz 
   17191   -1152449.3            0   -1152449.3   -0.0420664  0.026862172 -0.0011055488 
   17325   -1152449.3            0   -1152449.3 8.0100999e-06 -6.107458e-07 -6.25176e-06 
Loop time of 2.88352 on 52 procs for 134 steps with 288751 atoms

99.9% CPU use with 52 MPI tasks x 1 OpenMP threads

Minimization stats:
  Stopping criterion = energy tolerance
  Energy initial, next-to-last, final = 
     -1152449.34760122  -1152449.34866768  -1152449.34866768
  Force two-norm initial, final = 0.14226584 0.00038231309
  Force max component initial, final = 0.063415759 6.3643844e-05
  Final line search alpha, max atom move = 1.0000000 6.3643844e-05
  Iterations, force evaluations = 134 268

MPI task timing breakdown:
Section |  min time  |  avg time  |  max time  |%varavg| %total
---------------------------------------------------------------
Pair    | 0.75619    | 2.1091     | 2.7705     |  40.0 | 73.14
Neigh   | 0          | 0          | 0          |   0.0 |  0.00
Comm    | 0.033802   | 0.46       | 1.4609     |  61.8 | 15.95
Output  | 0          | 0          | 0          |   0.0 |  0.00
Modify  | 4.965e-05  | 0.0044527  | 0.0093645  |   3.1 |  0.15
Other   |            | 0.3099     |            |       | 10.75

Nlocal:        5552.90 ave        7910 max           0 min
Histogram: 4 2 2 0 2 6 4 0 15 17
Nghost:        6213.54 ave        8769 max         412 min
Histogram: 4 0 4 0 8 0 4 5 7 20
Neighs:       158427.0 ave      230534 max           0 min
Histogram: 4 2 2 0 5 3 4 4 12 16

Total # of neighbors = 8238188
Ave neighs/atom = 28.530422
Neighbor list builds = 0
Dangerous builds = 0
The dot product: -2.3745661052443e-08
Setting atom values ...
  1 settings made for x
  1 settings made for y
  1 settings made for z
Setting up cg style minimization ...
  Unit style    : metal
  Current step  : 17325
Per MPI rank memory allocation (min/avg/max) = 5.465 | 6.344 | 6.728 Mbytes
Step PotEng KinEng TotEng v_fx v_fy v_fz 
   17325   -1152449.3            0   -1152449.3 -0.040710088  0.027100778 -0.0027842891 
   17517   -1152449.4            0   -1152449.4 5.0294231e-06 -2.5336519e-06 -8.2537954e-07 
Loop time of 4.13822 on 52 procs for 192 steps with 288751 atoms

99.9% CPU use with 52 MPI tasks x 1 OpenMP threads

Minimization stats:
  Stopping criterion = energy tolerance
  Energy initial, next-to-last, final = 
     -1152449.34977434  -1152449.35085117  -1152449.35085117
  Force two-norm initial, final = 0.14238009 8.9308925e-05
  Force max component initial, final = 0.064936531 8.0216720e-06
  Final line search alpha, max atom move = 1.0000000 8.0216720e-06
  Iterations, force evaluations = 192 384

MPI task timing breakdown:
Section |  min time  |  avg time  |  max time  |%varavg| %total
---------------------------------------------------------------
Pair    | 1.0843     | 3.0202     | 3.9687     |  47.9 | 72.98
Neigh   | 0          | 0          | 0          |   0.0 |  0.00
Comm    | 0.051961   | 0.66047    | 2.0934     |  73.8 | 15.96
Output  | 0          | 0          | 0          |   0.0 |  0.00
Modify  | 7.955e-05  | 0.0063557  | 0.013412   |   3.7 |  0.15
Other   |            | 0.4511     |            |       | 10.90

Nlocal:        5552.90 ave        7913 max           0 min
Histogram: 4 2 2 0 2 6 4 1 14 17
Nghost:        6213.54 ave        8769 max         412 min
Histogram: 4 0 4 0 8 0 4 5 7 20
Neighs:       158427.0 ave      230642 max           0 min
Histogram: 4 2 2 0 5 3 4 4 12 16

Total # of neighbors = 8238188
Ave neighs/atom = 28.530422
Neighbor list builds = 0
Dangerous builds = 0
The dot product: -1.72492290013728e-08
Setting atom values ...
  1 settings made for x
  1 settings made for y
  1 settings made for z
Setting up cg style minimization ...
  Unit style    : metal
  Current step  : 17517
Per MPI rank memory allocation (min/avg/max) = 5.465 | 6.344 | 6.728 Mbytes
Step PotEng KinEng TotEng v_fx v_fy v_fz 
   17517   -1152449.4            0   -1152449.4 -0.039323185  0.027293179 -0.0044139351 
   17696   -1152449.4            0   -1152449.4 6.9831334e-06 -1.5760214e-06 -3.9155483e-06 
Loop time of 3.86749 on 52 procs for 179 steps with 288751 atoms

99.9% CPU use with 52 MPI tasks x 1 OpenMP threads

Minimization stats:
  Stopping criterion = linesearch alpha is zero
  Energy initial, next-to-last, final = 
     -1152449.35049104  -1152449.35157343  -1152449.35157343
  Force two-norm initial, final = 0.14245399 0.00013216843
  Force max component initial, final = 0.066463495 1.0855215e-05
  Final line search alpha, max atom move = 0.5 5.4276077e-06
  Iterations, force evaluations = 179 359

MPI task timing breakdown:
Section |  min time  |  avg time  |  max time  |%varavg| %total
---------------------------------------------------------------
Pair    | 1.0125     | 2.8236     | 3.713      |  46.3 | 73.01
Neigh   | 0          | 0          | 0          |   0.0 |  0.00
Comm    | 0.045177   | 0.61741    | 1.9575     |  71.3 | 15.96
Output  | 0          | 0          | 0          |   0.0 |  0.00
Modify  | 6.9069e-05 | 0.0059484  | 0.01254    |   3.6 |  0.15
Other   |            | 0.4205     |            |       | 10.87

Nlocal:        5552.90 ave        7916 max           0 min
Histogram: 4 2 2 0 2 6 4 1 14 17
Nghost:        6213.54 ave        8769 max         412 min
Histogram: 4 0 4 0 8 0 4 5 7 20
Neighs:       158427.0 ave      230769 max           0 min
Histogram: 4 2 2 0 5 3 4 4 12 16

Total # of neighbors = 8238190
Ave neighs/atom = 28.530429
Neighbor list builds = 0
Dangerous builds = 0
The dot product: -2.06895007799277e-08
Setting atom values ...
  1 settings made for x
  1 settings made for y
  1 settings made for z
Setting up cg style minimization ...
  Unit style    : metal
  Current step  : 17696
Per MPI rank memory allocation (min/avg/max) = 5.465 | 6.344 | 6.728 Mbytes
Step PotEng KinEng TotEng v_fx v_fy v_fz 
   17696   -1152449.3            0   -1152449.3 -0.038563821  0.027570991 -0.0056033796 
   17889   -1152449.4            0   -1152449.4 4.4975879e-06 6.7882326e-06 -1.373109e-05 
Loop time of 4.1631 on 52 procs for 193 steps with 288751 atoms

99.9% CPU use with 52 MPI tasks x 1 OpenMP threads

Minimization stats:
  Stopping criterion = linesearch alpha is zero
  Energy initial, next-to-last, final = 
     -1152449.34977894  -1152449.35086527  -1152449.35086527
  Force two-norm initial, final = 0.14250809 9.2038440e-05
  Force max component initial, final = 0.067921621 1.8925976e-05
  Final line search alpha, max atom move = 0.5 9.4629878e-06
  Iterations, force evaluations = 193 387

MPI task timing breakdown:
Section |  min time  |  avg time  |  max time  |%varavg| %total
---------------------------------------------------------------
Pair    | 1.0936     | 3.0446     | 4.0015     |  48.1 | 73.13
Neigh   | 0          | 0          | 0          |   0.0 |  0.00
Comm    | 0.048656   | 0.66365    | 2.1078     |  74.2 | 15.94
Output  | 0          | 0          | 0          |   0.0 |  0.00
Modify  | 7.8347e-05 | 0.006407   | 0.013547   |   3.7 |  0.15
Other   |            | 0.4484     |            |       | 10.77

Nlocal:        5552.90 ave        7917 max           0 min
Histogram: 4 2 2 0 2 6 4 1 14 17
Nghost:        6213.54 ave        8769 max         412 min
Histogram: 4 0 4 0 8 0 4 5 7 20
Neighs:       158427.0 ave      230814 max           0 min
Histogram: 4 2 2 0 5 3 4 4 12 16

Total # of neighbors = 8238196
Ave neighs/atom = 28.530450
Neighbor list builds = 0
Dangerous builds = 0
The dot product: -2.16754930872792e-09
Setting atom values ...
  1 settings made for x
  1 settings made for y
  1 settings made for z
Setting up cg style minimization ...
  Unit style    : metal
  Current step  : 17889
Per MPI rank memory allocation (min/avg/max) = 5.465 | 6.344 | 6.728 Mbytes
Step PotEng KinEng TotEng v_fx v_fy v_fz 
   17889   -1152449.3            0   -1152449.3 -0.039234624  0.028075982 -0.0058580846 
   18000   -1152449.3            0   -1152449.3 -7.2268753e-05 -1.024878e-05 7.8382866e-05 
   18074   -1152449.3            0   -1152449.3 4.6113266e-06 -4.5396216e-06 2.4727245e-06 
Loop time of 4.01611 on 52 procs for 185 steps with 288751 atoms

99.9% CPU use with 52 MPI tasks x 1 OpenMP threads

Minimization stats:
  Stopping criterion = energy tolerance
  Energy initial, next-to-last, final = 
     -1152449.34771688  -1152449.34880899  -1152449.34880899
  Force two-norm initial, final = 0.14276212 9.6768482e-05
  Force max component initial, final = 0.069329276 9.6325506e-06
  Final line search alpha, max atom move = 1.0000000 9.6325506e-06
  Iterations, force evaluations = 185 370

MPI task timing breakdown:
Section |  min time  |  avg time  |  max time  |%varavg| %total
---------------------------------------------------------------
Pair    | 1.0433     | 2.9098     | 3.8255     |  47.0 | 72.45
Neigh   | 0          | 0          | 0          |   0.0 |  0.00
Comm    | 0.047574   | 0.63678    | 2.0164     |  72.4 | 15.86
Output  | 0.00011888 | 0.00012355 | 0.00032289 |   0.0 |  0.00
Modify  | 6.812e-05  | 0.0061345  | 0.012962   |   3.7 |  0.15
Other   |            | 0.4633     |            |       | 11.54

Nlocal:        5552.90 ave        7917 max           0 min
Histogram: 4 2 2 0 2 6 4 1 14 17
Nghost:        6213.54 ave        8769 max         412 min
Histogram: 4 0 4 0 8 0 4 5 7 20
Neighs:       158427.0 ave      230821 max           0 min
Histogram: 4 2 2 0 5 3 4 4 12 16

Total # of neighbors = 8238193
Ave neighs/atom = 28.530440
Neighbor list builds = 0
Dangerous builds = 0
The dot product: -2.04328439790935e-08
Setting atom values ...
  1 settings made for x
  1 settings made for y
  1 settings made for z
Setting up cg style minimization ...
  Unit style    : metal
  Current step  : 18074
Per MPI rank memory allocation (min/avg/max) = 5.465 | 6.344 | 6.728 Mbytes
Step PotEng KinEng TotEng v_fx v_fy v_fz 
   18074   -1152449.3            0   -1152449.3 -0.042337297  0.028943112 -0.0045140305 
   18243   -1152449.3            0   -1152449.3 -1.6376738e-06 -1.7463869e-05 2.6592647e-05 
Loop time of 3.64029 on 52 procs for 169 steps with 288751 atoms

99.9% CPU use with 52 MPI tasks x 1 OpenMP threads

Minimization stats:
  Stopping criterion = energy tolerance
  Energy initial, next-to-last, final = 
     -1152449.34448399  -1152449.34561391  -1152449.34561391
  Force two-norm initial, final = 0.14405185 0.00015074016
  Force max component initial, final = 0.070649964 3.1315172e-05
  Final line search alpha, max atom move = 1.0000000 3.1315172e-05
  Iterations, force evaluations = 169 338

MPI task timing breakdown:
Section |  min time  |  avg time  |  max time  |%varavg| %total
---------------------------------------------------------------
Pair    | 0.95323    | 2.6593     | 3.4986     |  45.0 | 73.05
Neigh   | 0          | 0          | 0          |   0.0 |  0.00
Comm    | 0.04359    | 0.58054    | 1.8411     |  69.3 | 15.95
Output  | 0          | 0          | 0          |   0.0 |  0.00
Modify  | 6.275e-05  | 0.0056035  | 0.011761   |   3.5 |  0.15
Other   |            | 0.3949     |            |       | 10.85

Nlocal:        5552.90 ave        7918 max           0 min
Histogram: 4 2 2 0 2 6 4 1 14 17
Nghost:        6213.54 ave        8769 max         412 min
Histogram: 4 0 4 0 8 0 4 5 7 20
Neighs:       158427.0 ave      230856 max           0 min
Histogram: 4 2 2 0 5 3 4 4 12 16

Total # of neighbors = 8238193
Ave neighs/atom = 28.530440
Neighbor list builds = 0
Dangerous builds = 0
The dot product: -1.8044481334603e-08
Setting atom values ...
  1 settings made for x
  1 settings made for y
  1 settings made for z
Setting up cg style minimization ...
  Unit style    : metal
  Current step  : 18243
Per MPI rank memory allocation (min/avg/max) = 5.465 | 6.344 | 6.728 Mbytes
Step PotEng KinEng TotEng v_fx v_fy v_fz 
   18243   -1152449.3            0   -1152449.3 -0.049564996  0.030448792 -0.00054688543 
   18533   -1152449.3            0   -1152449.3 -9.5592809e-07 -3.1373959e-08 8.8123368e-07 
Loop time of 6.25337 on 52 procs for 290 steps with 288751 atoms

99.9% CPU use with 52 MPI tasks x 1 OpenMP threads

Minimization stats:
  Stopping criterion = linesearch alpha is zero
  Energy initial, next-to-last, final = 
     -1152449.34053504  -1152449.34898158  -1152449.34898158
  Force two-norm initial, final = 0.14948893 2.7866333e-05
  Force max component initial, final = 0.071906617 3.9094322e-06
  Final line search alpha, max atom move = 0.5 1.9547161e-06
  Iterations, force evaluations = 290 581

MPI task timing breakdown:
Section |  min time  |  avg time  |  max time  |%varavg| %total
---------------------------------------------------------------
Pair    | 1.6431     | 4.5651     | 5.9972     |  58.8 | 73.00
Neigh   | 1.859e-05  | 0.0057234  | 0.0084581  |   3.2 |  0.09
Comm    | 0.073999   | 0.99736    | 3.1632     |  90.8 | 15.95
Output  | 0          | 0          | 0          |   0.0 |  0.00
Modify  | 9.9194e-05 | 0.009616   | 0.02021    |   4.6 |  0.15
Other   |            | 0.6756     |            |       | 10.80

Nlocal:        5552.90 ave        7908 max           0 min
Histogram: 4 2 2 0 2 6 4 0 15 17
Nghost:        6213.54 ave        8769 max         412 min
Histogram: 4 0 4 0 8 0 4 5 7 20
Neighs:       158427.0 ave      230518 max           0 min
Histogram: 4 2 2 0 5 3 4 4 12 16

Total # of neighbors = 8238201
Ave neighs/atom = 28.530467
Neighbor list builds = 1
Dangerous builds = 0
The dot product: 9.02544083676674e-08
