LAMMPS (29 Oct 2020)
OMP_NUM_THREADS environment is not set. Defaulting to 1 thread. (../comm.cpp:94)
  using 1 OpenMP thread(s) per MPI task
OMP_NUM_THREADS environment is not set. Defaulting to 1 thread. (../comm.cpp:94)
  using 1 OpenMP thread(s) per MPI task
Reading data file ...
  orthogonal box = (-122.39241 -121.13707 -37.090501) to (122.39241 121.13707 37.090501)
  13 by 4 by 2 MPI processor grid
  reading atoms ...
  288751 atoms
  read_data CPU = 0.485 seconds
199981 atoms in group inner
88770 atoms in group outer
1 atoms in group carbon
Neighbor list info ...
  update every 1 steps, delay 0 steps, check yes
  max neighbors/atom: 2000, page size: 100000
  master list distance cutoff = 5.6
  ghost atom cutoff = 5.6
  binsize = 2.8, bins = 88 87 27
  1 neighbor lists, perpetual/occasional/extra = 1 0 0
  (1) pair eam/alloy, perpetual
      attributes: half, newton on
      pair build: half/bin/atomonly/newton
      stencil: half/bin/3d/newton
      bin: standard
Setting up cg style minimization ...
  Unit style    : metal
  Current step  : 0
Per MPI rank memory allocation (min/avg/max) = 5.441 | 5.816 | 6.074 Mbytes
Step v_fx v_fy v_fz PotEng KinEng TotEng 
       0    1.4897922   -1.1193396    2.5055703   -1152447.8            0   -1152447.8 
     155 1.1152101e-06 2.983909e-06 4.1399552e-05   -1152449.5            0   -1152449.5 
Loop time of 1.85734 on 104 procs for 155 steps with 288751 atoms

99.8% CPU use with 104 MPI tasks x 1 OpenMP threads

Minimization stats:
  Stopping criterion = energy tolerance
  Energy initial, next-to-last, final = 
     -1152447.78730438  -1152449.45035269  -1152449.45035269
  Force two-norm initial, final = 10.143374 0.00018369352
  Force max component initial, final = 4.5369724 4.4564938e-05
  Final line search alpha, max atom move = 1.0000000 4.4564938e-05
  Iterations, force evaluations = 155 309

MPI task timing breakdown:
Section |  min time  |  avg time  |  max time  |%varavg| %total
---------------------------------------------------------------
Pair    | 0.49092    | 1.3092     | 1.7098     |  30.3 | 70.49
Neigh   | 3.4494e-05 | 0.0093495  | 0.014654   |   4.0 |  0.50
Comm    | 0.029316   | 0.30364    | 0.90319    |  44.5 | 16.35
Output  | 0          | 0          | 0          |   0.0 |  0.00
Modify  | 1.6986e-05 | 0.0016772  | 0.0043059  |   2.6 |  0.09
Other   |            | 0.2335     |            |       | 12.57

Nlocal:        2776.45 ave        3961 max           0 min
Histogram: 8 4 4 0 6 10 8 2 28 34
Nghost:        3878.99 ave        5425 max         232 min
Histogram: 8 0 8 0 16 0 8 8 16 40
Neighs:        79213.5 ave      115455 max           0 min
Histogram: 8 4 4 0 10 6 8 8 24 32

Total # of neighbors = 8238207
Ave neighs/atom = 28.530488
Neighbor list builds = 3
Dangerous builds = 1
Setting atom values ...
  1 settings made for x
  1 settings made for y
  1 settings made for z
Setting up cg style minimization ...
  Unit style    : metal
  Current step  : 155
Per MPI rank memory allocation (min/avg/max) = 5.441 | 5.816 | 6.074 Mbytes
Step PotEng KinEng TotEng v_fx v_fy v_fz 
     155   -1152449.4            0   -1152449.4  0.019837213  0.010651224 -0.022105415 
     304   -1152449.5            0   -1152449.5 -2.2896687e-06 1.5269784e-05 1.6665746e-05 
Loop time of 1.74802 on 104 procs for 149 steps with 288751 atoms

99.9% CPU use with 104 MPI tasks x 1 OpenMP threads

Minimization stats:
  Stopping criterion = energy tolerance
  Energy initial, next-to-last, final = 
     -1152449.44954633  -1152449.45010983  -1152449.45010983
  Force two-norm initial, final = 0.11487148 0.000177587
  Force max component initial, final = 0.051140432 1.8292503e-05
  Final line search alpha, max atom move = 1.0000000 1.8292503e-05
  Iterations, force evaluations = 149 298

MPI task timing breakdown:
Section |  min time  |  avg time  |  max time  |%varavg| %total
---------------------------------------------------------------
Pair    | 0.45964    | 1.2616     | 1.6352     |  30.2 | 72.17
Neigh   | 0          | 0          | 0          |   0.0 |  0.00
Comm    | 0.029167   | 0.28787    | 0.87317    |  44.8 | 16.47
Output  | 0          | 0          | 0          |   0.0 |  0.00
Modify  | 1.73e-05   | 0.0024603  | 0.0052707  |   2.3 |  0.14
Other   |            | 0.1961     |            |       | 11.22

Nlocal:        2776.45 ave        3958 max           0 min
Histogram: 8 4 4 0 4 12 8 2 28 34
Nghost:        3879.01 ave        5424 max         232 min
Histogram: 8 0 8 0 16 0 8 8 16 40
Neighs:        79213.4 ave      115360 max           0 min
Histogram: 8 4 4 0 10 6 8 8 24 32

Total # of neighbors = 8238197
Ave neighs/atom = 28.530454
Neighbor list builds = 0
Dangerous builds = 0
Setting atom values ...
  1 settings made for x
  1 settings made for y
  1 settings made for z
Setting up cg style minimization ...
  Unit style    : metal
  Current step  : 304
Per MPI rank memory allocation (min/avg/max) = 5.441 | 5.816 | 6.074 Mbytes
Step PotEng KinEng TotEng v_fx v_fy v_fz 
     304   -1152449.4            0   -1152449.4  0.032181473  0.026227425 -0.046560818 
     504   -1152449.4            0   -1152449.4  5.69997e-06 5.9452882e-06 -6.8265316e-06 
Loop time of 2.34618 on 104 procs for 200 steps with 288751 atoms

99.9% CPU use with 104 MPI tasks x 1 OpenMP threads

Minimization stats:
  Stopping criterion = energy tolerance
  Energy initial, next-to-last, final = 
     -1152449.44678378  -1152449.44853596  -1152449.44853596
  Force two-norm initial, final = 0.20363004 6.0991757e-05
  Force max component initial, final = 0.088257434 6.8265316e-06
  Final line search alpha, max atom move = 1.0000000 6.8265316e-06
  Iterations, force evaluations = 200 400

MPI task timing breakdown:
Section |  min time  |  avg time  |  max time  |%varavg| %total
---------------------------------------------------------------
Pair    | 0.61707    | 1.6805     | 2.1911     |  34.8 | 71.63
Neigh   | 0          | 0          | 0          |   0.0 |  0.00
Comm    | 0.041776   | 0.38252    | 1.1618     |  51.7 | 16.30
Output  | 0          | 0          | 0          |   0.0 |  0.00
Modify  | 2.4446e-05 | 0.0033022  | 0.0071006  |   2.7 |  0.14
Other   |            | 0.2799     |            |       | 11.93

Nlocal:        2776.45 ave        3958 max           0 min
Histogram: 8 4 4 0 4 12 8 2 28 34
Nghost:        3879.01 ave        5424 max         232 min
Histogram: 8 0 8 0 16 0 8 8 16 40
Neighs:        79213.5 ave      115360 max           0 min
Histogram: 8 4 4 0 10 6 8 8 24 32

Total # of neighbors = 8238200
Ave neighs/atom = 28.530464
Neighbor list builds = 0
Dangerous builds = 0
The dot product: 3.58948650165439e-08
Setting atom values ...
  1 settings made for x
  1 settings made for y
  1 settings made for z
Setting up cg style minimization ...
  Unit style    : metal
  Current step  : 504
Per MPI rank memory allocation (min/avg/max) = 5.441 | 5.816 | 6.074 Mbytes
Step PotEng KinEng TotEng v_fx v_fy v_fz 
     504   -1152449.4            0   -1152449.4  0.026978316   0.03152295 -0.048546476 
     628   -1152449.4            0   -1152449.4 -4.1711786e-06 -1.4878632e-05 -6.8807093e-06 
Loop time of 1.47764 on 104 procs for 124 steps with 288751 atoms

99.9% CPU use with 104 MPI tasks x 1 OpenMP threads

Minimization stats:
  Stopping criterion = energy tolerance
  Energy initial, next-to-last, final = 
     -1152449.44385236  -1152449.44552428  -1152449.44552428
  Force two-norm initial, final = 0.19831467 0.0001245086
  Force max component initial, final = 0.082549006 1.4878632e-05
  Final line search alpha, max atom move = 1.0000000 1.4878632e-05
  Iterations, force evaluations = 124 248

MPI task timing breakdown:
Section |  min time  |  avg time  |  max time  |%varavg| %total
---------------------------------------------------------------
Pair    | 0.37933    | 1.0487     | 1.3619     |  27.6 | 70.97
Neigh   | 0          | 0          | 0          |   0.0 |  0.00
Comm    | 0.025908   | 0.2433     | 0.75021    |  40.7 | 16.47
Output  | 0          | 0          | 0          |   0.0 |  0.00
Modify  | 1.6805e-05 | 0.0020518  | 0.0043872  |   2.2 |  0.14
Other   |            | 0.1836     |            |       | 12.42

Nlocal:        2776.45 ave        3958 max           0 min
Histogram: 8 4 4 0 4 12 8 2 28 34
Nghost:        3879.01 ave        5424 max         232 min
Histogram: 8 0 8 0 16 0 8 8 16 40
Neighs:        79213.5 ave      115368 max           0 min
Histogram: 8 4 4 0 10 6 8 8 24 32

Total # of neighbors = 8238201
Ave neighs/atom = 28.530467
Neighbor list builds = 0
Dangerous builds = 0
The dot product: 2.66956909366969e-09
Setting atom values ...
  1 settings made for x
  1 settings made for y
  1 settings made for z
Setting up cg style minimization ...
  Unit style    : metal
  Current step  : 628
Per MPI rank memory allocation (min/avg/max) = 5.441 | 5.816 | 6.074 Mbytes
Step PotEng KinEng TotEng v_fx v_fy v_fz 
     628   -1152449.4            0   -1152449.4   0.02204419   0.03447485 -0.045880217 
     750   -1152449.4            0   -1152449.4 2.967241e-06 2.8487394e-06 -9.5737245e-06 
Loop time of 1.41957 on 104 procs for 122 steps with 288751 atoms

99.9% CPU use with 104 MPI tasks x 1 OpenMP threads

Minimization stats:
  Stopping criterion = energy tolerance
  Energy initial, next-to-last, final = 
     -1152449.43942646  -1152449.44103392  -1152449.44103392
  Force two-norm initial, final = 0.19321286 0.00012478996
  Force max component initial, final = 0.077665348 1.3272829e-05
  Final line search alpha, max atom move = 1.0000000 1.3272829e-05
  Iterations, force evaluations = 122 244

MPI task timing breakdown:
Section |  min time  |  avg time  |  max time  |%varavg| %total
---------------------------------------------------------------
Pair    | 0.37448    | 1.0227     | 1.3356     |  27.2 | 72.05
Neigh   | 0          | 0          | 0          |   0.0 |  0.00
Comm    | 0.021138   | 0.23093    | 0.69342    |  40.3 | 16.27
Output  | 0          | 0          | 0          |   0.0 |  0.00
Modify  | 1.461e-05  | 0.0020144  | 0.004327   |   2.1 |  0.14
Other   |            | 0.1639     |            |       | 11.55

Nlocal:        2776.45 ave        3958 max           0 min
Histogram: 8 4 4 0 4 12 8 2 28 34
Nghost:        3879.01 ave        5424 max         232 min
Histogram: 8 0 8 0 16 0 8 8 16 40
Neighs:        79213.5 ave      115368 max           0 min
Histogram: 8 4 4 0 10 6 8 8 24 32

Total # of neighbors = 8238202
Ave neighs/atom = 28.530471
Neighbor list builds = 0
Dangerous builds = 0
The dot product: 4.22905133850302e-08
Setting atom values ...
  1 settings made for x
  1 settings made for y
  1 settings made for z
Setting up cg style minimization ...
  Unit style    : metal
  Current step  : 750
Per MPI rank memory allocation (min/avg/max) = 5.441 | 5.816 | 6.074 Mbytes
Step PotEng KinEng TotEng v_fx v_fy v_fz 
     750   -1152449.4            0   -1152449.4  0.018614865  0.036453807 -0.042198729 
     868   -1152449.4            0   -1152449.4 -2.6929021e-06 -1.5544566e-05 -1.9318663e-05 
Loop time of 1.37073 on 104 procs for 118 steps with 288751 atoms

99.9% CPU use with 104 MPI tasks x 1 OpenMP threads

Minimization stats:
  Stopping criterion = energy tolerance
  Energy initial, next-to-last, final = 
     -1152449.43346331  -1152449.43502183  -1152449.43502183
  Force two-norm initial, final = 0.18910247 0.00015908273
  Force max component initial, final = 0.073819231 2.2447195e-05
  Final line search alpha, max atom move = 1.0000000 2.2447195e-05
  Iterations, force evaluations = 118 236

MPI task timing breakdown:
Section |  min time  |  avg time  |  max time  |%varavg| %total
---------------------------------------------------------------
Pair    | 0.3617     | 0.9945     | 1.2972     |  26.8 | 72.55
Neigh   | 0          | 0          | 0          |   0.0 |  0.00
Comm    | 0.02108    | 0.22324    | 0.6761     |  39.9 | 16.29
Output  | 0          | 0          | 0          |   0.0 |  0.00
Modify  | 1.379e-05  | 0.0019452  | 0.0041653  |   2.1 |  0.14
Other   |            | 0.151      |            |       | 11.02

Nlocal:        2776.45 ave        3957 max           0 min
Histogram: 8 4 4 0 4 12 8 2 28 34
Nghost:        3879.01 ave        5424 max         232 min
Histogram: 8 0 8 0 16 0 8 8 16 40
Neighs:        79213.5 ave      115332 max           0 min
Histogram: 8 4 4 0 10 6 8 8 24 32

Total # of neighbors = 8238202
Ave neighs/atom = 28.530471
Neighbor list builds = 0
Dangerous builds = 0
The dot product: 3.41266450228472e-08
Setting atom values ...
  1 settings made for x
  1 settings made for y
  1 settings made for z
Setting up cg style minimization ...
  Unit style    : metal
  Current step  : 868
Per MPI rank memory allocation (min/avg/max) = 5.441 | 5.816 | 6.074 Mbytes
Step PotEng KinEng TotEng v_fx v_fy v_fz 
     868   -1152449.4            0   -1152449.4  0.016505233  0.038417442 -0.039339015 
    1000   -1152449.4            0   -1152449.4 4.5808197e-06 7.0507996e-06 -2.2438581e-05 
    1010   -1152449.4            0   -1152449.4 3.7952249e-06 6.1250642e-06 -1.7686234e-05 
Loop time of 1.65288 on 104 procs for 142 steps with 288751 atoms

99.9% CPU use with 104 MPI tasks x 1 OpenMP threads

Minimization stats:
  Stopping criterion = energy tolerance
  Energy initial, next-to-last, final = 
     -1152449.42593475  -1152449.42745716  -1152449.42745716
  Force two-norm initial, final = 0.18600822 6.7357214e-05
  Force max component initial, final = 0.070711862 1.7686234e-05
  Final line search alpha, max atom move = 1.0000000 1.7686234e-05
  Iterations, force evaluations = 142 284

MPI task timing breakdown:
Section |  min time  |  avg time  |  max time  |%varavg| %total
---------------------------------------------------------------
Pair    | 0.43416    | 1.1901     | 1.5533     |  29.4 | 72.00
Neigh   | 0          | 0          | 0          |   0.0 |  0.00
Comm    | 0.025112   | 0.26792    | 0.80674    |  43.5 | 16.21
Output  | 0.00023139 | 0.00023435 | 0.0003668  |   0.0 |  0.01
Modify  | 1.6898e-05 | 0.0023401  | 0.005022   |   2.3 |  0.14
Other   |            | 0.1923     |            |       | 11.64

Nlocal:        2776.45 ave        3957 max           0 min
Histogram: 8 4 4 0 4 12 8 2 28 34
Nghost:        3879.01 ave        5424 max         232 min
Histogram: 8 0 8 0 16 0 8 8 16 40
Neighs:        79213.5 ave      115332 max           0 min
Histogram: 8 4 4 0 10 6 8 8 24 32

Total # of neighbors = 8238201
Ave neighs/atom = 28.530467
Neighbor list builds = 0
Dangerous builds = 0
The dot product: 6.53806626368801e-08
Setting atom values ...
  1 settings made for x
  1 settings made for y
  1 settings made for z
Setting up cg style minimization ...
  Unit style    : metal
  Current step  : 1010
Per MPI rank memory allocation (min/avg/max) = 5.441 | 5.816 | 6.074 Mbytes
Step PotEng KinEng TotEng v_fx v_fy v_fz 
    1010   -1152449.4            0   -1152449.4  0.015333227  0.041045149 -0.037956305 
    1218   -1152449.4            0   -1152449.4 1.1465743e-06 1.5892896e-06 -8.9034199e-06 
Loop time of 2.41024 on 104 procs for 208 steps with 288751 atoms

99.9% CPU use with 104 MPI tasks x 1 OpenMP threads

Minimization stats:
  Stopping criterion = energy tolerance
  Energy initial, next-to-last, final = 
     -1152449.41682549  -1152449.41832265  -1152449.41832265
  Force two-norm initial, final = 0.18383427 3.5066701e-05
  Force max component initial, final = 0.068023273 8.9034199e-06
  Final line search alpha, max atom move = 1.0000000 8.9034199e-06
  Iterations, force evaluations = 208 416

MPI task timing breakdown:
Section |  min time  |  avg time  |  max time  |%varavg| %total
---------------------------------------------------------------
Pair    | 0.63506    | 1.75       | 2.2736     |  35.6 | 72.61
Neigh   | 0          | 0          | 0          |   0.0 |  0.00
Comm    | 0.040174   | 0.39236    | 1.1858     |  53.1 | 16.28
Output  | 0          | 0          | 0          |   0.0 |  0.00
Modify  | 2.6191e-05 | 0.0034361  | 0.0074117  |   2.8 |  0.14
Other   |            | 0.2644     |            |       | 10.97

Nlocal:        2776.45 ave        3957 max           0 min
Histogram: 8 4 4 0 4 12 8 2 28 34
Nghost:        3879.01 ave        5424 max         232 min
Histogram: 8 0 8 0 16 0 8 8 16 40
Neighs:        79213.5 ave      115332 max           0 min
Histogram: 8 4 4 0 10 6 8 8 24 32

Total # of neighbors = 8238204
Ave neighs/atom = 28.530478
Neighbor list builds = 0
Dangerous builds = 0
The dot product: 2.85914210527978e-08
Setting atom values ...
  1 settings made for x
  1 settings made for y
  1 settings made for z
Setting up cg style minimization ...
  Unit style    : metal
  Current step  : 1218
Per MPI rank memory allocation (min/avg/max) = 5.441 | 5.816 | 6.074 Mbytes
Step PotEng KinEng TotEng v_fx v_fy v_fz 
    1218   -1152449.4            0   -1152449.4  0.014701328  0.044592082 -0.038293648 
    1372   -1152449.4            0   -1152449.4 1.4781456e-06 4.7516284e-06 -2.4013397e-06 
Loop time of 1.77678 on 104 procs for 154 steps with 288751 atoms

99.9% CPU use with 104 MPI tasks x 1 OpenMP threads

Minimization stats:
  Stopping criterion = energy tolerance
  Energy initial, next-to-last, final = 
     -1152449.40613615  -1152449.40761702  -1152449.40761702
  Force two-norm initial, final = 0.18241366 6.6143356e-05
  Force max component initial, final = 0.065391007 1.0543369e-05
  Final line search alpha, max atom move = 1.0000000 1.0543369e-05
  Iterations, force evaluations = 154 308

MPI task timing breakdown:
Section |  min time  |  avg time  |  max time  |%varavg| %total
---------------------------------------------------------------
Pair    | 0.46923    | 1.2899     | 1.6789     |  30.6 | 72.60
Neigh   | 0          | 0          | 0          |   0.0 |  0.00
Comm    | 0.025992   | 0.28855    | 0.87798    |  45.8 | 16.24
Output  | 0          | 0          | 0          |   0.0 |  0.00
Modify  | 1.87e-05   | 0.0025369  | 0.0054495  |   2.4 |  0.14
Other   |            | 0.1958     |            |       | 11.02

Nlocal:        2776.45 ave        3957 max           0 min
Histogram: 8 4 4 0 4 12 8 2 28 34
Nghost:        3879.01 ave        5424 max         232 min
Histogram: 8 0 8 0 16 0 8 8 16 40
Neighs:        79213.5 ave      115332 max           0 min
Histogram: 8 4 4 0 10 6 8 8 24 32

Total # of neighbors = 8238200
Ave neighs/atom = 28.530464
Neighbor list builds = 0
Dangerous builds = 0
The dot product: 2.21091514305511e-08
Setting atom values ...
  1 settings made for x
  1 settings made for y
  1 settings made for z
Setting up cg style minimization ...
  Unit style    : metal
  Current step  : 1372
Per MPI rank memory allocation (min/avg/max) = 5.441 | 5.816 | 6.074 Mbytes
Step PotEng KinEng TotEng v_fx v_fy v_fz 
    1372   -1152449.4            0   -1152449.4  0.014347352  0.049516762 -0.040308075 
    1504   -1152449.4            0   -1152449.4 2.8778308e-06 9.9044605e-06 -8.3022139e-06 
Loop time of 1.53681 on 104 procs for 132 steps with 288751 atoms

99.9% CPU use with 104 MPI tasks x 1 OpenMP threads

Minimization stats:
  Stopping criterion = energy tolerance
  Energy initial, next-to-last, final = 
     -1152449.39388461  -1152449.39536216  -1152449.39536216
  Force two-norm initial, final = 0.1817937 0.00013067504
  Force max component initial, final = 0.062517119 1.7824893e-05
  Final line search alpha, max atom move = 1.0000000 1.7824893e-05
  Iterations, force evaluations = 132 264

MPI task timing breakdown:
Section |  min time  |  avg time  |  max time  |%varavg| %total
---------------------------------------------------------------
Pair    | 0.40195    | 1.118      | 1.4525     |  28.6 | 72.75
Neigh   | 0          | 0          | 0          |   0.0 |  0.00
Comm    | 0.023975   | 0.25129    | 0.75788    |  42.3 | 16.35
Output  | 0          | 0          | 0          |   0.0 |  0.00
Modify  | 1.5222e-05 | 0.0021712  | 0.0046394  |   2.2 |  0.14
Other   |            | 0.1654     |            |       | 10.76

Nlocal:        2776.45 ave        3957 max           0 min
Histogram: 8 4 4 0 4 12 8 2 28 34
Nghost:        3879.01 ave        5424 max         232 min
Histogram: 8 0 8 0 16 0 8 8 16 40
Neighs:        79213.4 ave      115314 max           0 min
Histogram: 8 4 4 0 10 6 8 8 24 32

Total # of neighbors = 8238198
Ave neighs/atom = 28.530457
Neighbor list builds = 0
Dangerous builds = 0
The dot product: 6.96682783225087e-08
Setting atom values ...
  1 settings made for x
  1 settings made for y
  1 settings made for z
Setting up cg style minimization ...
  Unit style    : metal
  Current step  : 1504
Per MPI rank memory allocation (min/avg/max) = 5.441 | 5.816 | 6.074 Mbytes
Step PotEng KinEng TotEng v_fx v_fy v_fz 
    1504   -1152449.4            0   -1152449.4  0.014194804  0.057260103 -0.045483969 
    1668   -1152449.4            0   -1152449.4 3.332774e-07 1.2670584e-06 -2.3551213e-06 
Loop time of 1.91351 on 104 procs for 164 steps with 288751 atoms

99.9% CPU use with 104 MPI tasks x 1 OpenMP threads

Minimization stats:
  Stopping criterion = energy tolerance
  Energy initial, next-to-last, final = 
     -1152449.38012334  -1152449.38163784  -1152449.38163784
  Force two-norm initial, final = 0.18278521 0.00017569656
  Force max component initial, final = 0.059358143 1.4353806e-05
  Final line search alpha, max atom move = 1.0000000 1.4353806e-05
  Iterations, force evaluations = 164 328

MPI task timing breakdown:
Section |  min time  |  avg time  |  max time  |%varavg| %total
---------------------------------------------------------------
Pair    | 0.50086    | 1.3802     | 1.8011     |  31.7 | 72.13
Neigh   | 0          | 0          | 0          |   0.0 |  0.00
Comm    | 0.027849   | 0.31058    | 0.93963    |  47.1 | 16.23
Output  | 0          | 0          | 0          |   0.0 |  0.00
Modify  | 1.9043e-05 | 0.0027019  | 0.0058097  |   2.5 |  0.14
Other   |            | 0.22       |            |       | 11.50

Nlocal:        2776.45 ave        3957 max           0 min
Histogram: 8 4 4 0 4 12 8 2 28 34
Nghost:        3879.01 ave        5424 max         232 min
Histogram: 8 0 8 0 16 0 8 8 16 40
Neighs:        79213.4 ave      115314 max           0 min
Histogram: 8 4 4 0 10 6 8 8 24 32

Total # of neighbors = 8238197
Ave neighs/atom = 28.530454
Neighbor list builds = 0
Dangerous builds = 0
The dot product: 1.98714058110518e-08
Setting atom values ...
  1 settings made for x
  1 settings made for y
  1 settings made for z
Setting up cg style minimization ...
  Unit style    : metal
  Current step  : 1668
Per MPI rank memory allocation (min/avg/max) = 5.441 | 5.816 | 6.074 Mbytes
Step PotEng KinEng TotEng v_fx v_fy v_fz 
    1668   -1152449.4            0   -1152449.4  0.013931419  0.072624792 -0.058875237 
    1815   -1152449.4            0   -1152449.4 -5.6615777e-06 -3.065309e-05 4.3846591e-05 
Loop time of 1.69929 on 104 procs for 147 steps with 288751 atoms

99.9% CPU use with 104 MPI tasks x 1 OpenMP threads

Minimization stats:
  Stopping criterion = energy tolerance
  Energy initial, next-to-last, final = 
     -1152449.36505791  -1152449.36703014  -1152449.36703014
  Force two-norm initial, final = 0.18916953 0.00020439987
  Force max component initial, final = 0.072624792 4.7872261e-05
  Final line search alpha, max atom move = 1.0000000 4.7872261e-05
  Iterations, force evaluations = 147 294

MPI task timing breakdown:
Section |  min time  |  avg time  |  max time  |%varavg| %total
---------------------------------------------------------------
Pair    | 0.44725    | 1.2371     | 1.6059     |  30.0 | 72.80
Neigh   | 0          | 0          | 0          |   0.0 |  0.00
Comm    | 0.027503   | 0.28138    | 0.85658    |  44.6 | 16.56
Output  | 0          | 0          | 0          |   0.0 |  0.00
Modify  | 1.7039e-05 | 0.0024173  | 0.0051659  |   2.3 |  0.14
Other   |            | 0.1784     |            |       | 10.50

Nlocal:        2776.45 ave        3957 max           0 min
Histogram: 8 4 4 0 4 12 8 2 28 34
Nghost:        3879.01 ave        5424 max         232 min
Histogram: 8 0 8 0 16 0 8 8 16 40
Neighs:        79213.4 ave      115314 max           0 min
Histogram: 8 4 4 0 10 6 8 8 24 32

Total # of neighbors = 8238193
Ave neighs/atom = 28.530440
Neighbor list builds = 0
Dangerous builds = 0
The dot product: -1.43959651155723e-06
Setting atom values ...
  1 settings made for x
  1 settings made for y
  1 settings made for z
Setting up cg style minimization ...
  Unit style    : metal
  Current step  : 1815
Per MPI rank memory allocation (min/avg/max) = 5.441 | 5.816 | 6.074 Mbytes
Step PotEng KinEng TotEng v_fx v_fy v_fz 
    1815   -1152449.4            0   -1152449.4 0.0025192474   0.13040747  -0.11062247 
    1999   -1152449.4            0   -1152449.4 -5.27103e-06 -1.6535425e-05 -3.7170322e-05 
Loop time of 2.12313 on 104 procs for 184 steps with 288751 atoms

99.9% CPU use with 104 MPI tasks x 1 OpenMP threads

Minimization stats:
  Stopping criterion = energy tolerance
  Energy initial, next-to-last, final = 
     -1152449.35063931  -1152449.35794681  -1152449.35794681
  Force two-norm initial, final = 0.23256136 0.00023973156
  Force max component initial, final = 0.13040747 3.7170322e-05
  Final line search alpha, max atom move = 1.0000000 3.7170322e-05
  Iterations, force evaluations = 184 368

MPI task timing breakdown:
Section |  min time  |  avg time  |  max time  |%varavg| %total
---------------------------------------------------------------
Pair    | 0.56488    | 1.5397     | 2.0016     |  33.3 | 72.52
Neigh   | 1.0336e-05 | 0.0029572  | 0.0042775  |   2.2 |  0.14
Comm    | 0.034969   | 0.34544    | 1.0506     |  49.7 | 16.27
Output  | 0          | 0          | 0          |   0.0 |  0.00
Modify  | 2.3662e-05 | 0.0030336  | 0.00653    |   2.6 |  0.14
Other   |            | 0.232      |            |       | 10.93

Nlocal:        2776.45 ave        3957 max           0 min
Histogram: 8 4 4 0 4 12 8 2 28 34
Nghost:        3879.01 ave        5424 max         232 min
Histogram: 8 0 8 0 16 0 8 8 16 40
Neighs:        79213.4 ave      115314 max           0 min
Histogram: 8 4 4 0 10 6 8 8 24 32

Total # of neighbors = 8238191
Ave neighs/atom = 28.530433
Neighbor list builds = 1
Dangerous builds = 0
The dot product: 6.01230648115836e-07
Setting atom values ...
  1 settings made for x
  1 settings made for y
  1 settings made for z
Setting up cg style minimization ...
  Unit style    : metal
  Current step  : 1999
Per MPI rank memory allocation (min/avg/max) = 5.441 | 5.816 | 6.074 Mbytes
Step PotEng KinEng TotEng v_fx v_fy v_fz 
    1999   -1152449.3            0   -1152449.3 -0.058485417   0.18299642  -0.11653955 
    2000   -1152449.3            0   -1152449.3 0.0011955811  0.014396656  0.011888316 
    2237   -1152449.4            0   -1152449.4 -1.9159543e-06 4.431438e-06 -4.6371847e-06 
Loop time of 2.75276 on 104 procs for 238 steps with 288751 atoms

99.9% CPU use with 104 MPI tasks x 1 OpenMP threads

Minimization stats:
  Stopping criterion = energy tolerance
  Energy initial, next-to-last, final = 
     -1152449.34487454  -1152449.35151406  -1152449.35151406
  Force two-norm initial, final = 0.26503523 4.0997730e-05
  Force max component initial, final = 0.18299642 9.0179009e-06
  Final line search alpha, max atom move = 1.0000000 9.0179009e-06
  Iterations, force evaluations = 238 476

MPI task timing breakdown:
Section |  min time  |  avg time  |  max time  |%varavg| %total
---------------------------------------------------------------
Pair    | 0.72335    | 1.9996     | 2.609      |  38.1 | 72.64
Neigh   | 0          | 0          | 0          |   0.0 |  0.00
Comm    | 0.042232   | 0.44867    | 1.3617     |  56.8 | 16.30
Output  | 9.0777e-05 | 9.2966e-05 | 0.00014397 |   0.0 |  0.00
Modify  | 2.7177e-05 | 0.003908   | 0.0083607  |   3.0 |  0.14
Other   |            | 0.3005     |            |       | 10.92

Nlocal:        2776.45 ave        3958 max           0 min
Histogram: 8 4 4 0 4 12 8 4 26 34
Nghost:        3878.99 ave        5425 max         232 min
Histogram: 8 0 8 0 16 0 8 8 16 40
Neighs:        79213.4 ave      115344 max           0 min
Histogram: 8 4 4 0 10 6 8 8 24 32

Total # of neighbors = 8238196
Ave neighs/atom = 28.530450
Neighbor list builds = 0
Dangerous builds = 0
The dot product: 3.42299675962147e-07
Setting atom values ...
  1 settings made for x
  1 settings made for y
  1 settings made for z
Setting up cg style minimization ...
  Unit style    : metal
  Current step  : 2237
Per MPI rank memory allocation (min/avg/max) = 5.441 | 5.816 | 6.074 Mbytes
Step PotEng KinEng TotEng v_fx v_fy v_fz 
    2237   -1152449.3            0   -1152449.3 -0.058414275   0.10635988 -0.056229403 
    2411   -1152449.3            0   -1152449.3 7.9396329e-06 -5.4820555e-06 1.526637e-05 
Loop time of 2.01611 on 104 procs for 174 steps with 288751 atoms

99.9% CPU use with 104 MPI tasks x 1 OpenMP threads

Minimization stats:
  Stopping criterion = energy tolerance
  Energy initial, next-to-last, final = 
     -1152449.33982876  -1152449.34336915  -1152449.34336915
  Force two-norm initial, final = 0.19156993 6.5644661e-05
  Force max component initial, final = 0.10635988 1.5266370e-05
  Final line search alpha, max atom move = 1.0000000 1.5266370e-05
  Iterations, force evaluations = 174 348

MPI task timing breakdown:
Section |  min time  |  avg time  |  max time  |%varavg| %total
---------------------------------------------------------------
Pair    | 0.53075    | 1.4597     | 1.9053     |  32.6 | 72.40
Neigh   | 0          | 0          | 0          |   0.0 |  0.00
Comm    | 0.029471   | 0.32735    | 0.99118    |  48.6 | 16.24
Output  | 0          | 0          | 0          |   0.0 |  0.00
Modify  | 1.998e-05  | 0.0028642  | 0.0061311  |   2.5 |  0.14
Other   |            | 0.2262     |            |       | 11.22

Nlocal:        2776.45 ave        3959 max           0 min
Histogram: 8 4 4 0 4 12 8 4 26 34
Nghost:        3879.11 ave        5428 max         232 min
Histogram: 8 0 8 0 16 0 8 8 16 40
Neighs:        79213.5 ave      115381 max           0 min
Histogram: 8 4 4 0 10 6 8 8 24 32

Total # of neighbors = 8238202
Ave neighs/atom = 28.530471
Neighbor list builds = 0
Dangerous builds = 0
The dot product: -5.23377004248956e-07
Setting atom values ...
  1 settings made for x
  1 settings made for y
  1 settings made for z
Setting up cg style minimization ...
  Unit style    : metal
  Current step  : 2411
Per MPI rank memory allocation (min/avg/max) = 5.441 | 5.816 | 6.074 Mbytes
Step PotEng KinEng TotEng v_fx v_fy v_fz 
    2411   -1152449.3            0   -1152449.3 -0.036874641  0.041447282 -0.035955054 
    2660   -1152449.3            0   -1152449.3 9.3992375e-06 -4.9918517e-06 1.4296635e-05 
Loop time of 2.88458 on 104 procs for 249 steps with 288751 atoms

99.9% CPU use with 104 MPI tasks x 1 OpenMP threads

Minimization stats:
  Stopping criterion = energy tolerance
  Energy initial, next-to-last, final = 
     -1152449.33424556  -1152449.34567845  -1152449.34567845
  Force two-norm initial, final = 0.15988703 8.8980098e-05
  Force max component initial, final = 0.062467554 1.5355745e-05
  Final line search alpha, max atom move = 1.0000000 1.5355745e-05
  Iterations, force evaluations = 249 498

MPI task timing breakdown:
Section |  min time  |  avg time  |  max time  |%varavg| %total
---------------------------------------------------------------
Pair    | 0.76205    | 2.094      | 2.722      |  38.8 | 72.59
Neigh   | 1.0295e-05 | 0.0029487  | 0.0042962  |   2.2 |  0.10
Comm    | 0.043326   | 0.47002    | 1.4341     |  58.2 | 16.29
Output  | 0          | 0          | 0          |   0.0 |  0.00
Modify  | 2.8535e-05 | 0.0040922  | 0.0087911  |   3.0 |  0.14
Other   |            | 0.3135     |            |       | 10.87

Nlocal:        2776.45 ave        3959 max           0 min
Histogram: 8 4 4 0 4 12 8 4 26 34
Nghost:        3879.09 ave        5427 max         232 min
Histogram: 8 0 8 0 16 0 8 8 16 40
Neighs:        79213.5 ave      115381 max           0 min
Histogram: 8 4 4 0 10 6 8 8 24 32

Total # of neighbors = 8238202
Ave neighs/atom = 28.530471
Neighbor list builds = 1
Dangerous builds = 0
The dot product: -6.87600015269053e-07
Setting atom values ...
  1 settings made for x
  1 settings made for y
  1 settings made for z
Setting up cg style minimization ...
  Unit style    : metal
  Current step  : 2660
Per MPI rank memory allocation (min/avg/max) = 5.441 | 5.816 | 6.074 Mbytes
Step PotEng KinEng TotEng v_fx v_fy v_fz 
    2660   -1152449.3            0   -1152449.3   0.02275279 0.0038464051  0.036444815 
    2824   -1152449.3            0   -1152449.3 3.4879653e-06 -1.1529685e-06 4.2637101e-06 
Loop time of 1.91666 on 104 procs for 164 steps with 288751 atoms

99.9% CPU use with 104 MPI tasks x 1 OpenMP threads

Minimization stats:
  Stopping criterion = energy tolerance
  Energy initial, next-to-last, final = 
     -1152449.34777705   -1152449.3487616   -1152449.3487616
  Force two-norm initial, final = 0.13145131 3.8143507e-05
  Force max component initial, final = 0.048259646 4.4870489e-06
  Final line search alpha, max atom move = 1.0000000 4.4870489e-06
  Iterations, force evaluations = 164 328

MPI task timing breakdown:
Section |  min time  |  avg time  |  max time  |%varavg| %total
---------------------------------------------------------------
Pair    | 0.51243    | 1.378      | 1.799      |  31.2 | 71.89
Neigh   | 0          | 0          | 0          |   0.0 |  0.00
Comm    | 0.02925    | 0.31016    | 0.92749    |  46.5 | 16.18
Output  | 0          | 0          | 0          |   0.0 |  0.00
Modify  | 1.8983e-05 | 0.0027022  | 0.0057665  |   2.5 |  0.14
Other   |            | 0.2258     |            |       | 11.78

Nlocal:        2776.45 ave        3957 max           0 min
Histogram: 8 4 4 0 4 12 8 2 28 34
Nghost:        3879.01 ave        5424 max         232 min
Histogram: 8 0 8 0 16 0 8 8 16 40
Neighs:        79213.4 ave      115333 max           0 min
Histogram: 8 4 4 0 10 6 8 8 24 32

Total # of neighbors = 8238191
Ave neighs/atom = 28.530433
Neighbor list builds = 0
Dangerous builds = 0
The dot product: 2.22850924995305e-08
Setting atom values ...
  1 settings made for x
  1 settings made for y
  1 settings made for z
Setting up cg style minimization ...
  Unit style    : metal
  Current step  : 2824
Per MPI rank memory allocation (min/avg/max) = 5.441 | 5.816 | 6.074 Mbytes
Step PotEng KinEng TotEng v_fx v_fy v_fz 
    2824   -1152449.3            0   -1152449.3 0.0091075877 0.0064907014  0.018809602 
    3000   -1152449.4            0   -1152449.4 -2.7929155e-05 1.1500996e-05 -3.3443385e-05 
Loop time of 2.04736 on 104 procs for 176 steps with 288751 atoms

99.9% CPU use with 104 MPI tasks x 1 OpenMP threads

Minimization stats:
  Stopping criterion = energy tolerance
  Energy initial, next-to-last, final = 
     -1152449.34988214  -1152449.35078608  -1152449.35078608
  Force two-norm initial, final = 0.12513282 0.00015181472
  Force max component initial, final = 0.047528094 3.7764014e-05
  Final line search alpha, max atom move = 1.0000000 3.7764014e-05
  Iterations, force evaluations = 176 352

MPI task timing breakdown:
Section |  min time  |  avg time  |  max time  |%varavg| %total
---------------------------------------------------------------
Pair    | 0.53605    | 1.4852     | 1.9278     |  32.9 | 72.54
Neigh   | 0          | 0          | 0          |   0.0 |  0.00
Comm    | 0.035163   | 0.33341    | 1.008      |  49.0 | 16.28
Output  | 0          | 0          | 0          |   0.0 |  0.00
Modify  | 2.064e-05  | 0.0028958  | 0.0061994  |   2.5 |  0.14
Other   |            | 0.2259     |            |       | 11.03

Nlocal:        2776.45 ave        3957 max           0 min
Histogram: 8 4 4 0 4 12 8 2 28 34
Nghost:        3879.01 ave        5424 max         232 min
Histogram: 8 0 8 0 16 0 8 8 16 40
Neighs:        79213.4 ave      115333 max           0 min
Histogram: 8 4 4 0 10 6 8 8 24 32

Total # of neighbors = 8238193
Ave neighs/atom = 28.530440
Neighbor list builds = 0
Dangerous builds = 0
The dot product: -1.90157236140791e-09
Setting atom values ...
  1 settings made for x
  1 settings made for y
  1 settings made for z
Setting up cg style minimization ...
  Unit style    : metal
  Current step  : 3000
Per MPI rank memory allocation (min/avg/max) = 5.441 | 5.816 | 6.074 Mbytes
Step PotEng KinEng TotEng v_fx v_fy v_fz 
    3000   -1152449.4            0   -1152449.4   0.01000831 0.0065176579  0.020219376 
    3178   -1152449.4            0   -1152449.4 -1.4533599e-05 -1.8331367e-05 -3.6221713e-05 
Loop time of 2.06095 on 104 procs for 178 steps with 288751 atoms

99.9% CPU use with 104 MPI tasks x 1 OpenMP threads

Minimization stats:
  Stopping criterion = energy tolerance
  Energy initial, next-to-last, final = 
     -1152449.35066628  -1152449.35156737  -1152449.35156737
  Force two-norm initial, final = 0.12552537 0.00014869181
  Force max component initial, final = 0.046944975 3.6221713e-05
  Final line search alpha, max atom move = 1.0000000 3.6221713e-05
  Iterations, force evaluations = 178 356

MPI task timing breakdown:
Section |  min time  |  avg time  |  max time  |%varavg| %total
---------------------------------------------------------------
Pair    | 0.54087    | 1.4927     | 1.9473     |  33.0 | 72.43
Neigh   | 0          | 0          | 0          |   0.0 |  0.00
Comm    | 0.034966   | 0.33565    | 1.0197     |  49.1 | 16.29
Output  | 0          | 0          | 0          |   0.0 |  0.00
Modify  | 2.2939e-05 | 0.0029312  | 0.0062673  |   2.6 |  0.14
Other   |            | 0.2297     |            |       | 11.14

Nlocal:        2776.45 ave        3958 max           0 min
Histogram: 8 4 4 0 4 12 8 2 28 34
Nghost:        3878.99 ave        5424 max         232 min
Histogram: 8 0 8 0 16 0 8 8 16 40
Neighs:        79213.4 ave      115370 max           0 min
Histogram: 8 4 4 0 10 6 8 8 24 32

Total # of neighbors = 8238189
Ave neighs/atom = 28.530426
Neighbor list builds = 0
Dangerous builds = 0
The dot product: -2.38217316523321e-08
Setting atom values ...
  1 settings made for x
  1 settings made for y
  1 settings made for z
Setting up cg style minimization ...
  Unit style    : metal
  Current step  : 3178
Per MPI rank memory allocation (min/avg/max) = 5.441 | 5.816 | 6.074 Mbytes
Step PotEng KinEng TotEng v_fx v_fy v_fz 
    3178   -1152449.4            0   -1152449.4 0.0092874945 0.0065383718  0.019205338 
    3348   -1152449.4            0   -1152449.4 -3.4739751e-05 2.1773365e-05 -3.5912991e-05 
Loop time of 1.97473 on 104 procs for 170 steps with 288751 atoms

99.9% CPU use with 104 MPI tasks x 1 OpenMP threads

Minimization stats:
  Stopping criterion = energy tolerance
  Energy initial, next-to-last, final = 
     -1152449.35012983  -1152449.35102285  -1152449.35102285
  Force two-norm initial, final = 0.1249783 0.00022100175
  Force max component initial, final = 0.046327829 6.7009625e-05
  Final line search alpha, max atom move = 1.0000000 6.7009625e-05
  Iterations, force evaluations = 170 340

MPI task timing breakdown:
Section |  min time  |  avg time  |  max time  |%varavg| %total
---------------------------------------------------------------
Pair    | 0.51571    | 1.4324     | 1.8632     |  32.3 | 72.54
Neigh   | 0          | 0          | 0          |   0.0 |  0.00
Comm    | 0.032011   | 0.32381    | 0.98113    |  48.1 | 16.40
Output  | 0          | 0          | 0          |   0.0 |  0.00
Modify  | 2.0112e-05 | 0.0028007  | 0.006008   |   2.5 |  0.14
Other   |            | 0.2157     |            |       | 10.92

Nlocal:        2776.45 ave        3959 max           0 min
Histogram: 8 4 4 0 4 12 8 2 28 34
Nghost:        3878.99 ave        5424 max         232 min
Histogram: 8 0 8 0 16 0 8 8 16 40
Neighs:        79213.4 ave      115401 max           0 min
Histogram: 8 4 4 0 10 6 8 8 24 32

Total # of neighbors = 8238191
Ave neighs/atom = 28.530433
Neighbor list builds = 0
Dangerous builds = 0
The dot product: -1.27195690741739e-08
Setting atom values ...
  1 settings made for x
  1 settings made for y
  1 settings made for z
Setting up cg style minimization ...
  Unit style    : metal
  Current step  : 3348
Per MPI rank memory allocation (min/avg/max) = 5.441 | 5.816 | 6.074 Mbytes
Step PotEng KinEng TotEng v_fx v_fy v_fz 
    3348   -1152449.3            0   -1152449.3 0.0083230265 0.0064235052  0.017704915 
    3548   -1152449.3            0   -1152449.3 9.6986132e-06 6.1335631e-06 1.9576129e-05 
Loop time of 2.30816 on 104 procs for 200 steps with 288751 atoms

99.9% CPU use with 104 MPI tasks x 1 OpenMP threads

Minimization stats:
  Stopping criterion = energy tolerance
  Energy initial, next-to-last, final = 
     -1152449.34824655  -1152449.34912694  -1152449.34912694
  Force two-norm initial, final = 0.12401098 8.0674738e-05
  Force max component initial, final = 0.045664633 1.9576129e-05
  Final line search alpha, max atom move = 1.0000000 1.9576129e-05
  Iterations, force evaluations = 200 400

MPI task timing breakdown:
Section |  min time  |  avg time  |  max time  |%varavg| %total
---------------------------------------------------------------
Pair    | 0.61026    | 1.6797     | 2.1891     |  35.0 | 72.77
Neigh   | 0          | 0          | 0          |   0.0 |  0.00
Comm    | 0.033915   | 0.37715    | 1.1488     |  52.4 | 16.34
Output  | 0          | 0          | 0          |   0.0 |  0.00
Modify  | 2.2842e-05 | 0.0032879  | 0.0070529  |   2.7 |  0.14
Other   |            | 0.248      |            |       | 10.74

Nlocal:        2776.45 ave        3959 max           0 min
Histogram: 8 4 4 0 4 12 8 2 28 34
Nghost:        3879.03 ave        5424 max         232 min
Histogram: 8 0 8 0 16 0 8 8 16 40
Neighs:        79213.4 ave      115391 max           0 min
Histogram: 8 4 4 0 10 6 8 8 24 32

Total # of neighbors = 8238191
Ave neighs/atom = 28.530433
Neighbor list builds = 0
Dangerous builds = 0
The dot product: 1.05302640945533e-08
Setting atom values ...
  1 settings made for x
  1 settings made for y
  1 settings made for z
Setting up cg style minimization ...
  Unit style    : metal
  Current step  : 3548
Per MPI rank memory allocation (min/avg/max) = 5.441 | 5.816 | 6.074 Mbytes
Step PotEng KinEng TotEng v_fx v_fy v_fz 
    3548   -1152449.3            0   -1152449.3 0.0074263252 0.0059869408   0.01603964 
    3715   -1152449.3            0   -1152449.3 -3.1431834e-05 -2.9054081e-05 -7.0798618e-05 
Loop time of 1.9241 on 104 procs for 167 steps with 288751 atoms

99.9% CPU use with 104 MPI tasks x 1 OpenMP threads

Minimization stats:
  Stopping criterion = energy tolerance
  Energy initial, next-to-last, final = 
     -1152449.34500709   -1152449.3458734   -1152449.3458734
  Force two-norm initial, final = 0.12306611 0.00023450888
  Force max component initial, final = 0.044991321 7.0798618e-05
  Final line search alpha, max atom move = 1.0000000 7.0798618e-05
  Iterations, force evaluations = 167 334

MPI task timing breakdown:
Section |  min time  |  avg time  |  max time  |%varavg| %total
---------------------------------------------------------------
Pair    | 0.50908    | 1.4019     | 1.8204     |  31.8 | 72.86
Neigh   | 0          | 0          | 0          |   0.0 |  0.00
Comm    | 0.031285   | 0.31207    | 0.95098    |  47.7 | 16.22
Output  | 0          | 0          | 0          |   0.0 |  0.00
Modify  | 1.9284e-05 | 0.0027523  | 0.0059619  |   2.5 |  0.14
Other   |            | 0.2073     |            |       | 10.78

Nlocal:        2776.45 ave        3959 max           0 min
Histogram: 8 4 4 0 4 12 8 3 27 34
Nghost:        3879.07 ave        5424 max         232 min
Histogram: 8 0 8 0 16 0 8 8 16 40
Neighs:        79213.4 ave      115383 max           0 min
Histogram: 8 4 4 0 10 6 8 8 24 32

Total # of neighbors = 8238190
Ave neighs/atom = 28.530429
Neighbor list builds = 0
Dangerous builds = 0
The dot product: -3.84266824998743e-08
Setting atom values ...
  1 settings made for x
  1 settings made for y
  1 settings made for z
Setting up cg style minimization ...
  Unit style    : metal
  Current step  : 3715
Per MPI rank memory allocation (min/avg/max) = 5.441 | 5.816 | 6.074 Mbytes
Step PotEng KinEng TotEng v_fx v_fy v_fz 
    3715   -1152449.3            0   -1152449.3 0.0066038721 0.0052478166  0.014238177 
    3903   -1152449.3            0   -1152449.3 2.5034799e-05 -4.4248199e-06 3.4846045e-05 
Loop time of 2.15798 on 104 procs for 188 steps with 288751 atoms

99.9% CPU use with 104 MPI tasks x 1 OpenMP threads

Minimization stats:
  Stopping criterion = energy tolerance
  Energy initial, next-to-last, final = 
      -1152449.3404018   -1152449.3412562   -1152449.3412562
  Force two-norm initial, final = 0.12228274 0.0001070627
  Force max component initial, final = 0.044341835 3.4846045e-05
  Final line search alpha, max atom move = 1.0000000 3.4846045e-05
  Iterations, force evaluations = 188 376

MPI task timing breakdown:
Section |  min time  |  avg time  |  max time  |%varavg| %total
---------------------------------------------------------------
Pair    | 0.57234    | 1.5728     | 2.0452     |  33.8 | 72.88
Neigh   | 0          | 0          | 0          |   0.0 |  0.00
Comm    | 0.032104   | 0.35144    | 1.0759     |  50.6 | 16.29
Output  | 0          | 0          | 0          |   0.0 |  0.00
Modify  | 2.1669e-05 | 0.0030929  | 0.006646   |   2.6 |  0.14
Other   |            | 0.2306     |            |       | 10.69

Nlocal:        2776.45 ave        3959 max           0 min
Histogram: 8 4 4 0 4 12 8 4 26 34
Nghost:        3879.07 ave        5424 max         232 min
Histogram: 8 0 8 0 16 0 8 8 16 40
Neighs:        79213.4 ave      115381 max           0 min
Histogram: 8 4 4 0 10 6 8 8 24 32

Total # of neighbors = 8238190
Ave neighs/atom = 28.530429
Neighbor list builds = 0
Dangerous builds = 0
The dot product: 1.0561221462188e-08
Setting atom values ...
  1 settings made for x
  1 settings made for y
  1 settings made for z
Setting up cg style minimization ...
  Unit style    : metal
  Current step  : 3903
Per MPI rank memory allocation (min/avg/max) = 5.441 | 5.816 | 6.074 Mbytes
Step PotEng KinEng TotEng v_fx v_fy v_fz 
    3903   -1152449.3            0   -1152449.3 0.0060970096   0.00425871  0.012707864 
    4000   -1152449.3            0   -1152449.3 -4.5434592e-05 1.2120093e-05 -6.0098178e-05 
    4109   -1152449.3            0   -1152449.3 3.393304e-06 6.6162387e-06 1.0422519e-05 
Loop time of 2.39938 on 104 procs for 206 steps with 288751 atoms

99.9% CPU use with 104 MPI tasks x 1 OpenMP threads

Minimization stats:
  Stopping criterion = energy tolerance
  Energy initial, next-to-last, final = 
     -1152449.33441534  -1152449.33526327  -1152449.33526327
  Force two-norm initial, final = 0.12191855 6.4362398e-05
  Force max component initial, final = 0.044131017 1.6641196e-05
  Final line search alpha, max atom move = 1.0000000 1.6641196e-05
  Iterations, force evaluations = 206 412

MPI task timing breakdown:
Section |  min time  |  avg time  |  max time  |%varavg| %total
---------------------------------------------------------------
Pair    | 0.6247     | 1.7359     | 2.2591     |  35.6 | 72.35
Neigh   | 0          | 0          | 0          |   0.0 |  0.00
Comm    | 0.036432   | 0.39632    | 1.1998     |  52.2 | 16.52
Output  | 0.00015898 | 0.00016775 | 0.00028551 |   0.0 |  0.01
Modify  | 2.3938e-05 | 0.0033856  | 0.0072773  |   2.8 |  0.14
Other   |            | 0.2636     |            |       | 10.99

Nlocal:        2776.45 ave        3959 max           0 min
Histogram: 8 4 4 0 4 12 8 4 26 34
Nghost:        3879.07 ave        5428 max         232 min
Histogram: 8 0 8 0 16 0 8 8 16 40
Neighs:        79213.4 ave      115381 max           0 min
Histogram: 8 4 4 0 10 6 8 8 24 32

Total # of neighbors = 8238192
Ave neighs/atom = 28.530436
Neighbor list builds = 0
Dangerous builds = 0
The dot product: 4.52820013597455e-09
Setting atom values ...
  1 settings made for x
  1 settings made for y
  1 settings made for z
Setting up cg style minimization ...
  Unit style    : metal
  Current step  : 4109
Per MPI rank memory allocation (min/avg/max) = 5.441 | 5.816 | 6.074 Mbytes
Step PotEng KinEng TotEng v_fx v_fy v_fz 
    4109   -1152449.3            0   -1152449.3 0.0057759565 0.0029532011  0.011202819 
    4287   -1152449.3            0   -1152449.3 4.5615514e-06 -3.5597115e-06 4.1880737e-06 
Loop time of 2.07175 on 104 procs for 178 steps with 288751 atoms

99.9% CPU use with 104 MPI tasks x 1 OpenMP threads

Minimization stats:
  Stopping criterion = energy tolerance
  Energy initial, next-to-last, final = 
     -1152449.32702705   -1152449.3278736   -1152449.3278736
  Force two-norm initial, final = 0.1218931 0.0001348603
  Force max component initial, final = 0.0439987 6.1763248e-06
  Final line search alpha, max atom move = 1.0000000 6.1763248e-06
  Iterations, force evaluations = 178 356

MPI task timing breakdown:
Section |  min time  |  avg time  |  max time  |%varavg| %total
---------------------------------------------------------------
Pair    | 0.54212    | 1.49       | 1.9488     |  32.9 | 71.92
Neigh   | 0          | 0          | 0          |   0.0 |  0.00
Comm    | 0.032292   | 0.33544    | 1.016      |  48.9 | 16.19
Output  | 0          | 0          | 0          |   0.0 |  0.00
Modify  | 2.0765e-05 | 0.0029289  | 0.0062712  |   2.6 |  0.14
Other   |            | 0.2434     |            |       | 11.75

Nlocal:        2776.45 ave        3960 max           0 min
Histogram: 8 4 4 0 4 12 8 4 26 34
Nghost:        3879.07 ave        5427 max         232 min
Histogram: 8 0 8 0 16 0 8 8 16 40
Neighs:        79213.4 ave      115422 max           0 min
Histogram: 8 4 4 0 10 6 8 8 24 32

Total # of neighbors = 8238189
Ave neighs/atom = 28.530426
Neighbor list builds = 0
Dangerous builds = 0
The dot product: 1.0224787676112e-09
Setting atom values ...
  1 settings made for x
  1 settings made for y
  1 settings made for z
Setting up cg style minimization ...
  Unit style    : metal
  Current step  : 4287
Per MPI rank memory allocation (min/avg/max) = 5.441 | 5.816 | 6.074 Mbytes
Step PotEng KinEng TotEng v_fx v_fy v_fz 
    4287   -1152449.3            0   -1152449.3 0.0057670881 0.0013476948 0.0099327967 
    4527   -1152449.3            0   -1152449.3 1.881018e-08 1.3699743e-07 1.3743842e-07 
Loop time of 2.7854 on 104 procs for 240 steps with 288751 atoms

99.9% CPU use with 104 MPI tasks x 1 OpenMP threads

Minimization stats:
  Stopping criterion = energy tolerance
  Energy initial, next-to-last, final = 
     -1152449.31820603  -1152449.31905724  -1152449.31905724
  Force two-norm initial, final = 0.12222664 1.1745407e-05
  Force max component initial, final = 0.04384087 5.5501561e-07
  Final line search alpha, max atom move = 1.0000000 5.5501561e-07
  Iterations, force evaluations = 240 480

MPI task timing breakdown:
Section |  min time  |  avg time  |  max time  |%varavg| %total
---------------------------------------------------------------
Pair    | 0.7304     | 2.026      | 2.6334     |  38.4 | 72.74
Neigh   | 0          | 0          | 0          |   0.0 |  0.00
Comm    | 0.042172   | 0.45784    | 1.3939     |  57.1 | 16.44
Output  | 0          | 0          | 0          |   0.0 |  0.00
Modify  | 2.8415e-05 | 0.0039448  | 0.0084777  |   3.0 |  0.14
Other   |            | 0.2976     |            |       | 10.69

Nlocal:        2776.45 ave        3960 max           0 min
Histogram: 8 4 4 0 4 12 8 4 26 34
Nghost:        3879.09 ave        5426 max         232 min
Histogram: 8 0 8 0 16 0 8 8 16 40
Neighs:        79213.3 ave      115431 max           0 min
Histogram: 8 4 4 0 10 6 8 8 24 32

Total # of neighbors = 8238188
Ave neighs/atom = 28.530422
Neighbor list builds = 0
Dangerous builds = 0
The dot product: 3.60685241962685e-11
Setting up cg style minimization ...
  Unit style    : metal
  Current step  : 4527
Per MPI rank memory allocation (min/avg/max) = 5.441 | 5.816 | 6.074 Mbytes
Step PotEng KinEng TotEng v_fx v_fy v_fz 
    4527   -1152449.3            0   -1152449.3  -0.36711298   -0.1891809    0.2388182 
    4767   -1152449.4            0   -1152449.4 9.3423035e-06 -2.1341389e-06 2.0441652e-05 
Loop time of 2.79382 on 104 procs for 240 steps with 288751 atoms

99.9% CPU use with 104 MPI tasks x 1 OpenMP threads

Minimization stats:
  Stopping criterion = energy tolerance
  Energy initial, next-to-last, final = 
     -1152449.31905724  -1152449.35157334  -1152449.35157334
  Force two-norm initial, final = 0.47706968 8.3732446e-05
  Force max component initial, final = 0.36711298 2.0441652e-05
  Final line search alpha, max atom move = 1.0000000 2.0441652e-05
  Iterations, force evaluations = 240 480

MPI task timing breakdown:
Section |  min time  |  avg time  |  max time  |%varavg| %total
---------------------------------------------------------------
Pair    | 0.73393    | 2.0091     | 2.6359     |  38.2 | 71.91
Neigh   | 1.0126e-05 | 0.0029633  | 0.0042871  |   2.2 |  0.11
Comm    | 0.041258   | 0.45434    | 1.3618     |  56.4 | 16.26
Output  | 0          | 0          | 0          |   0.0 |  0.00
Modify  | 2.5208e-05 | 0.0025705  | 0.0066184  |   3.2 |  0.09
Other   |            | 0.3248     |            |       | 11.63

Nlocal:        2776.45 ave        3960 max           0 min
Histogram: 8 4 4 0 4 12 8 4 26 34
Nghost:        3879.04 ave        5425 max         232 min
Histogram: 8 0 8 0 16 0 8 8 16 40
Neighs:        79213.4 ave      115431 max           0 min
Histogram: 8 4 4 0 10 6 8 8 24 32

Total # of neighbors = 8238191
Ave neighs/atom = 28.530433
Neighbor list builds = 1
Dangerous builds = 0
OMP_NUM_THREADS environment is not set. Defaulting to 1 thread. (../comm.cpp:94)
  using 1 OpenMP thread(s) per MPI task
Reading data file ...
  orthogonal box = (-122.39241 -121.13707 -37.090501) to (122.39241 121.13707 37.090501)
  13 by 4 by 2 MPI processor grid
  reading atoms ...
  288751 atoms
  read_data CPU = 0.350 seconds
199981 atoms in group inner
88770 atoms in group outer
1 atoms in group carbon
Neighbor list info ...
  update every 1 steps, delay 0 steps, check yes
  max neighbors/atom: 2000, page size: 100000
  master list distance cutoff = 5.6
  ghost atom cutoff = 5.6
  binsize = 2.8, bins = 88 87 27
  1 neighbor lists, perpetual/occasional/extra = 1 0 0
  (1) pair eam/alloy, perpetual
      attributes: half, newton on
      pair build: half/bin/atomonly/newton
      stencil: half/bin/3d/newton
      bin: standard
Setting up cg style minimization ...
  Unit style    : metal
  Current step  : 0
Per MPI rank memory allocation (min/avg/max) = 5.441 | 5.816 | 6.074 Mbytes
Step v_fx v_fy v_fz PotEng KinEng TotEng 
       0    1.4897922   -1.1193396    2.5055703   -1152447.8            0   -1152447.8 
     155 1.1152101e-06 2.983909e-06 4.1399552e-05   -1152449.5            0   -1152449.5 
Loop time of 1.81907 on 104 procs for 155 steps with 288751 atoms

99.9% CPU use with 104 MPI tasks x 1 OpenMP threads

Minimization stats:
  Stopping criterion = energy tolerance
  Energy initial, next-to-last, final = 
     -1152447.78730438  -1152449.45035269  -1152449.45035269
  Force two-norm initial, final = 10.143374 0.00018369352
  Force max component initial, final = 4.5369724 4.4564938e-05
  Final line search alpha, max atom move = 1.0000000 4.4564938e-05
  Iterations, force evaluations = 155 309

MPI task timing breakdown:
Section |  min time  |  avg time  |  max time  |%varavg| %total
---------------------------------------------------------------
Pair    | 0.48728    | 1.31       | 1.7089     |  30.5 | 72.02
Neigh   | 3.2117e-05 | 0.0088561  | 0.012758   |   3.9 |  0.49
Comm    | 0.031994   | 0.2986     | 0.89583    |  45.3 | 16.42
Output  | 0          | 0          | 0          |   0.0 |  0.00
Modify  | 1.7663e-05 | 0.0016622  | 0.0042799  |   2.6 |  0.09
Other   |            | 0.1999     |            |       | 10.99

Nlocal:        2776.45 ave        3961 max           0 min
Histogram: 8 4 4 0 6 10 8 2 28 34
Nghost:        3878.99 ave        5425 max         232 min
Histogram: 8 0 8 0 16 0 8 8 16 40
Neighs:        79213.5 ave      115455 max           0 min
Histogram: 8 4 4 0 10 6 8 8 24 32

Total # of neighbors = 8238207
Ave neighs/atom = 28.530488
Neighbor list builds = 3
Dangerous builds = 1
Setting atom values ...
  1 settings made for x
  1 settings made for y
  1 settings made for z
Setting up cg style minimization ...
  Unit style    : metal
  Current step  : 155
Per MPI rank memory allocation (min/avg/max) = 5.441 | 5.816 | 6.074 Mbytes
Step PotEng KinEng TotEng v_fx v_fy v_fz 
     155   -1152449.4            0   -1152449.4 -0.028095734 -0.003066181 -0.026769616 
     380   -1152449.4            0   -1152449.4 6.6895952e-06 -9.1825164e-06 1.5172113e-05 
Loop time of 2.62649 on 104 procs for 225 steps with 288751 atoms

99.9% CPU use with 104 MPI tasks x 1 OpenMP threads

Minimization stats:
  Stopping criterion = energy tolerance
  Energy initial, next-to-last, final = 
      -1152449.4448453  -1152449.44843232  -1152449.44843232
  Force two-norm initial, final = 0.27551338 4.8608918e-05
  Force max component initial, final = 0.15628252 1.5172113e-05
  Final line search alpha, max atom move = 1.0000000 1.5172113e-05
  Iterations, force evaluations = 225 450

MPI task timing breakdown:
Section |  min time  |  avg time  |  max time  |%varavg| %total
---------------------------------------------------------------
Pair    | 0.69431    | 1.8875     | 2.4618     |  36.7 | 71.87
Neigh   | 0          | 0          | 0          |   0.0 |  0.00
Comm    | 0.0465     | 0.42631    | 1.2828     |  54.6 | 16.23
Output  | 0          | 0          | 0          |   0.0 |  0.00
Modify  | 2.8246e-05 | 0.0037064  | 0.0079058  |   2.9 |  0.14
Other   |            | 0.3089     |            |       | 11.76

Nlocal:        2776.45 ave        3958 max           0 min
Histogram: 8 4 4 0 4 12 8 2 28 34
Nghost:        3879.01 ave        5424 max         232 min
Histogram: 8 0 8 0 16 0 8 8 16 40
Neighs:        79213.4 ave      115360 max           0 min
Histogram: 8 4 4 0 10 6 8 8 24 32

Total # of neighbors = 8238197
Ave neighs/atom = 28.530454
Neighbor list builds = 0
Dangerous builds = 0
Setting atom values ...
  1 settings made for x
  1 settings made for y
  1 settings made for z
Setting up cg style minimization ...
  Unit style    : metal
  Current step  : 380
Per MPI rank memory allocation (min/avg/max) = 5.441 | 5.816 | 6.074 Mbytes
Step PotEng KinEng TotEng v_fx v_fy v_fz 
     380   -1152449.4            0   -1152449.4 -0.021593869 -0.0039501172 -0.023288315 
     556   -1152449.4            0   -1152449.4 -1.2297448e-05 1.6882359e-05 -3.3847137e-05 
Loop time of 2.04769 on 104 procs for 176 steps with 288751 atoms

99.9% CPU use with 104 MPI tasks x 1 OpenMP threads

Minimization stats:
  Stopping criterion = energy tolerance
  Energy initial, next-to-last, final = 
     -1152449.44325047  -1152449.44493296  -1152449.44493296
  Force two-norm initial, final = 0.18808238 0.0001778178
  Force max component initial, final = 0.10542012 3.3847137e-05
  Final line search alpha, max atom move = 1.0000000 3.3847137e-05
  Iterations, force evaluations = 176 352

MPI task timing breakdown:
Section |  min time  |  avg time  |  max time  |%varavg| %total
---------------------------------------------------------------
Pair    | 0.53923    | 1.4855     | 1.9422     |  32.9 | 72.54
Neigh   | 0          | 0          | 0          |   0.0 |  0.00
Comm    | 0.032593   | 0.33889    | 1.0288     |  48.6 | 16.55
Output  | 0          | 0          | 0          |   0.0 |  0.00
Modify  | 2.1519e-05 | 0.0028963  | 0.0062496  |   2.6 |  0.14
Other   |            | 0.2204     |            |       | 10.77

Nlocal:        2776.45 ave        3959 max           0 min
Histogram: 8 4 4 0 4 12 8 2 28 34
Nghost:        3879.01 ave        5424 max         232 min
Histogram: 8 0 8 0 16 0 8 8 16 40
Neighs:        79213.4 ave      115405 max           0 min
Histogram: 8 4 4 0 10 6 8 8 24 32

Total # of neighbors = 8238197
Ave neighs/atom = 28.530454
Neighbor list builds = 0
Dangerous builds = 0
The dot product: 1.45745987922343e-07
Setting atom values ...
  1 settings made for x
  1 settings made for y
  1 settings made for z
Setting up cg style minimization ...
  Unit style    : metal
  Current step  : 556
Per MPI rank memory allocation (min/avg/max) = 5.441 | 5.816 | 6.074 Mbytes
Step PotEng KinEng TotEng v_fx v_fy v_fz 
     556   -1152449.4            0   -1152449.4 -0.025064504 -0.0088310742 -0.026879168 
     704   -1152449.4            0   -1152449.4 -6.2875167e-06 3.1063708e-06 -1.3571005e-05 
Loop time of 1.7139 on 104 procs for 148 steps with 288751 atoms

99.9% CPU use with 104 MPI tasks x 1 OpenMP threads

Minimization stats:
  Stopping criterion = energy tolerance
  Energy initial, next-to-last, final = 
     -1152449.43823804  -1152449.43993375  -1152449.43993375
  Force two-norm initial, final = 0.18882819 0.00019068223
  Force max component initial, final = 0.104075 3.3021231e-05
  Final line search alpha, max atom move = 1.0000000 3.3021231e-05
  Iterations, force evaluations = 148 296

MPI task timing breakdown:
Section |  min time  |  avg time  |  max time  |%varavg| %total
---------------------------------------------------------------
Pair    | 0.45305    | 1.2416     | 1.6227     |  30.0 | 72.44
Neigh   | 0          | 0          | 0          |   0.0 |  0.00
Comm    | 0.027501   | 0.27797    | 0.84063    |  44.5 | 16.22
Output  | 0          | 0          | 0          |   0.0 |  0.00
Modify  | 1.8035e-05 | 0.0024418  | 0.0052446  |   2.3 |  0.14
Other   |            | 0.1919     |            |       | 11.20

Nlocal:        2776.45 ave        3958 max           0 min
Histogram: 8 4 4 0 4 12 8 2 28 34
Nghost:        3879.01 ave        5424 max         232 min
Histogram: 8 0 8 0 16 0 8 8 16 40
Neighs:        79213.4 ave      115374 max           0 min
Histogram: 8 4 4 0 10 6 8 8 24 32

Total # of neighbors = 8238197
Ave neighs/atom = 28.530454
Neighbor list builds = 0
Dangerous builds = 0
The dot product: 7.99597556413691e-08
Setting atom values ...
  1 settings made for x
  1 settings made for y
  1 settings made for z
Setting up cg style minimization ...
  Unit style    : metal
  Current step  : 704
Per MPI rank memory allocation (min/avg/max) = 5.441 | 5.816 | 6.074 Mbytes
Step PotEng KinEng TotEng v_fx v_fy v_fz 
     704   -1152449.4            0   -1152449.4 -0.025973273 -0.013762184 -0.027702616 
     887   -1152449.4            0   -1152449.4 5.4264112e-06 -4.7336212e-06 1.7457855e-05 
Loop time of 2.13538 on 104 procs for 183 steps with 288751 atoms

99.9% CPU use with 104 MPI tasks x 1 OpenMP threads

Minimization stats:
  Stopping criterion = energy tolerance
  Energy initial, next-to-last, final = 
     -1152449.43199778  -1152449.43369824  -1152449.43369824
  Force two-norm initial, final = 0.18858102 6.6999208e-05
  Force max component initial, final = 0.10141413 1.8026697e-05
  Final line search alpha, max atom move = 1.0000000 1.8026697e-05
  Iterations, force evaluations = 183 366

MPI task timing breakdown:
Section |  min time  |  avg time  |  max time  |%varavg| %total
---------------------------------------------------------------
Pair    | 0.55937    | 1.5417     | 2.003      |  33.6 | 72.20
Neigh   | 0          | 0          | 0          |   0.0 |  0.00
Comm    | 0.037988   | 0.34775    | 1.0693     |  49.8 | 16.29
Output  | 0          | 0          | 0          |   0.0 |  0.00
Modify  | 2.2462e-05 | 0.0030149  | 0.0064197  |   2.6 |  0.14
Other   |            | 0.2429     |            |       | 11.37

Nlocal:        2776.45 ave        3959 max           0 min
Histogram: 8 4 4 0 4 12 8 2 28 34
Nghost:        3879.01 ave        5424 max         232 min
Histogram: 8 0 8 0 16 0 8 8 16 40
Neighs:        79213.4 ave      115415 max           0 min
Histogram: 8 4 4 0 10 6 8 8 24 32

Total # of neighbors = 8238197
Ave neighs/atom = 28.530454
Neighbor list builds = 0
Dangerous builds = 0
The dot product: -1.04573807197303e-07
Setting atom values ...
  1 settings made for x
  1 settings made for y
  1 settings made for z
Setting up cg style minimization ...
  Unit style    : metal
  Current step  : 887
Per MPI rank memory allocation (min/avg/max) = 5.441 | 5.816 | 6.074 Mbytes
Step PotEng KinEng TotEng v_fx v_fy v_fz 
     887   -1152449.4            0   -1152449.4 -0.023243067 -0.015951135 -0.024602551 
    1000   -1152449.4            0   -1152449.4 3.5310386e-06 -6.0331949e-06 1.9048509e-05 
    1044   -1152449.4            0   -1152449.4 3.7102253e-07 -6.0821403e-07 1.9549443e-06 
Loop time of 1.828 on 104 procs for 157 steps with 288751 atoms

99.9% CPU use with 104 MPI tasks x 1 OpenMP threads

Minimization stats:
  Stopping criterion = energy tolerance
  Energy initial, next-to-last, final = 
     -1152449.42453195  -1152449.42620164  -1152449.42620164
  Force two-norm initial, final = 0.18675189 1.7556759e-05
  Force max component initial, final = 0.098284648 1.9549443e-06
  Final line search alpha, max atom move = 1.0000000 1.9549443e-06
  Iterations, force evaluations = 157 314

MPI task timing breakdown:
Section |  min time  |  avg time  |  max time  |%varavg| %total
---------------------------------------------------------------
Pair    | 0.48419    | 1.3185     | 1.7235     |  30.9 | 72.13
Neigh   | 0          | 0          | 0          |   0.0 |  0.00
Comm    | 0.02975    | 0.29734    | 0.89106    |  45.4 | 16.27
Output  | 0.00012758 | 0.00013097 | 0.00025968 |   0.0 |  0.01
Modify  | 1.9346e-05 | 0.0025885  | 0.0055282  |   2.4 |  0.14
Other   |            | 0.2094     |            |       | 11.46

Nlocal:        2776.45 ave        3959 max           0 min
Histogram: 8 4 4 0 4 12 8 2 28 34
Nghost:        3879.03 ave        5424 max         232 min
Histogram: 8 0 8 0 16 0 8 8 16 40
Neighs:        79213.5 ave      115416 max           0 min
Histogram: 8 4 4 0 10 6 8 8 24 32

Total # of neighbors = 8238199
Ave neighs/atom = 28.530461
Neighbor list builds = 0
Dangerous builds = 0
The dot product: -1.04237714746724e-08
Setting atom values ...
  1 settings made for x
  1 settings made for y
  1 settings made for z
Setting up cg style minimization ...
  Unit style    : metal
  Current step  : 1044
Per MPI rank memory allocation (min/avg/max) = 5.441 | 5.816 | 6.074 Mbytes
Step PotEng KinEng TotEng v_fx v_fy v_fz 
    1044   -1152449.4            0   -1152449.4  -0.01884598 -0.015186371 -0.019261976 
    1177   -1152449.4            0   -1152449.4 1.719036e-06 -2.3062032e-06 9.552208e-06 
Loop time of 1.53223 on 104 procs for 133 steps with 288751 atoms

99.9% CPU use with 104 MPI tasks x 1 OpenMP threads

Minimization stats:
  Stopping criterion = energy tolerance
  Energy initial, next-to-last, final = 
       -1152449.415753  -1152449.41738559  -1152449.41738559
  Force two-norm initial, final = 0.18455785 5.6180129e-05
  Force max component initial, final = 0.095809059 9.5522080e-06
  Final line search alpha, max atom move = 1.0000000 9.5522080e-06
  Iterations, force evaluations = 133 266

MPI task timing breakdown:
Section |  min time  |  avg time  |  max time  |%varavg| %total
---------------------------------------------------------------
Pair    | 0.40984    | 1.1187     | 1.449      |  28.4 | 73.01
Neigh   | 0          | 0          | 0          |   0.0 |  0.00
Comm    | 0.026085   | 0.25067    | 0.76365    |  42.2 | 16.36
Output  | 0          | 0          | 0          |   0.0 |  0.00
Modify  | 1.6359e-05 | 0.0021983  | 0.004736   |   2.2 |  0.14
Other   |            | 0.1606     |            |       | 10.48

Nlocal:        2776.45 ave        3959 max           0 min
Histogram: 8 4 4 0 4 12 8 2 28 34
Nghost:        3879.03 ave        5424 max         232 min
Histogram: 8 0 8 0 16 0 8 8 16 40
Neighs:        79213.5 ave      115416 max           0 min
Histogram: 8 4 4 0 10 6 8 8 24 32

Total # of neighbors = 8238199
Ave neighs/atom = 28.530461
Neighbor list builds = 0
Dangerous builds = 0
The dot product: -4.22273624960069e-08
Setting atom values ...
  1 settings made for x
  1 settings made for y
  1 settings made for z
Setting up cg style minimization ...
  Unit style    : metal
  Current step  : 1177
Per MPI rank memory allocation (min/avg/max) = 5.441 | 5.816 | 6.074 Mbytes
Step PotEng KinEng TotEng v_fx v_fy v_fz 
    1177   -1152449.4            0   -1152449.4 -0.013850906 -0.012219406 -0.013182149 
    1309   -1152449.4            0   -1152449.4 9.3217894e-07 -3.8040332e-06 1.2054562e-05 
Loop time of 1.52955 on 104 procs for 132 steps with 288751 atoms

99.9% CPU use with 104 MPI tasks x 1 OpenMP threads

Minimization stats:
  Stopping criterion = energy tolerance
  Energy initial, next-to-last, final = 
     -1152449.40559401  -1152449.40720875  -1152449.40720875
  Force two-norm initial, final = 0.18263355 6.7289675e-05
  Force max component initial, final = 0.094328258 1.4795610e-05
  Final line search alpha, max atom move = 1.0000000 1.4795610e-05
  Iterations, force evaluations = 132 264

MPI task timing breakdown:
Section |  min time  |  avg time  |  max time  |%varavg| %total
---------------------------------------------------------------
Pair    | 0.40587    | 1.1085     | 1.4499     |  28.3 | 72.47
Neigh   | 0          | 0          | 0          |   0.0 |  0.00
Comm    | 0.025004   | 0.24805    | 0.74836    |  42.0 | 16.22
Output  | 0          | 0          | 0          |   0.0 |  0.00
Modify  | 1.6038e-05 | 0.0021738  | 0.0046413  |   2.2 |  0.14
Other   |            | 0.1708     |            |       | 11.17

Nlocal:        2776.45 ave        3960 max           0 min
Histogram: 8 4 4 0 4 12 8 2 28 34
Nghost:        3879.03 ave        5424 max         232 min
Histogram: 8 0 8 0 16 0 8 8 16 40
Neighs:        79213.5 ave      115439 max           0 min
Histogram: 8 4 4 0 10 6 8 8 24 32

Total # of neighbors = 8238200
Ave neighs/atom = 28.530464
Neighbor list builds = 0
Dangerous builds = 0
The dot product: -4.27533201243352e-08
Setting atom values ...
  1 settings made for x
  1 settings made for y
  1 settings made for z
Setting up cg style minimization ...
  Unit style    : metal
  Current step  : 1309
Per MPI rank memory allocation (min/avg/max) = 5.441 | 5.816 | 6.074 Mbytes
Step PotEng KinEng TotEng v_fx v_fy v_fz 
    1309   -1152449.4            0   -1152449.4 -0.0079886664 -0.0071991228 -0.0071134671 
    1429   -1152449.4            0   -1152449.4 -5.4287419e-06 4.5129632e-06 -3.0090745e-05 
Loop time of 1.39554 on 104 procs for 120 steps with 288751 atoms

99.9% CPU use with 104 MPI tasks x 1 OpenMP threads

Minimization stats:
  Stopping criterion = energy tolerance
  Energy initial, next-to-last, final = 
     -1152449.39404159   -1152449.3956801   -1152449.3956801
  Force two-norm initial, final = 0.18119295 0.00014387248
  Force max component initial, final = 0.09396762 3.0090745e-05
  Final line search alpha, max atom move = 1.0000000 3.0090745e-05
  Iterations, force evaluations = 120 240

MPI task timing breakdown:
Section |  min time  |  avg time  |  max time  |%varavg| %total
---------------------------------------------------------------
Pair    | 0.36784    | 1.0135     | 1.3215     |  27.1 | 72.62
Neigh   | 0          | 0          | 0          |   0.0 |  0.00
Comm    | 0.023102   | 0.22924    | 0.69752    |  40.2 | 16.43
Output  | 0          | 0          | 0          |   0.0 |  0.00
Modify  | 1.4594e-05 | 0.0019799  | 0.0042514  |   2.1 |  0.14
Other   |            | 0.1508     |            |       | 10.81

Nlocal:        2776.45 ave        3960 max           0 min
Histogram: 8 4 4 0 4 12 8 2 28 34
Nghost:        3879.03 ave        5424 max         232 min
Histogram: 8 0 8 0 16 0 8 8 16 40
Neighs:        79213.5 ave      115439 max           0 min
Histogram: 8 4 4 0 10 6 8 8 24 32

Total # of neighbors = 8238207
Ave neighs/atom = 28.530488
Neighbor list builds = 0
Dangerous builds = 0
The dot product: 3.67075666185548e-08
Setting atom values ...
  1 settings made for x
  1 settings made for y
  1 settings made for z
Setting up cg style minimization ...
  Unit style    : metal
  Current step  : 1429
Per MPI rank memory allocation (min/avg/max) = 5.441 | 5.816 | 6.074 Mbytes
Step PotEng KinEng TotEng v_fx v_fy v_fz 
    1429   -1152449.4            0   -1152449.4 0.00019673908 0.00027558833 -0.0001371509 
    1576   -1152449.4            0   -1152449.4 -2.879497e-06 3.1031437e-06 -1.8517005e-05 
Loop time of 1.70182 on 104 procs for 147 steps with 288751 atoms

99.9% CPU use with 104 MPI tasks x 1 OpenMP threads

Minimization stats:
  Stopping criterion = energy tolerance
  Energy initial, next-to-last, final = 
     -1152449.38116736  -1152449.38301325  -1152449.38301325
  Force two-norm initial, final = 0.18031116 0.00010757196
  Force max component initial, final = 0.094773321 1.9244032e-05
  Final line search alpha, max atom move = 1.0000000 1.9244032e-05
  Iterations, force evaluations = 147 294

MPI task timing breakdown:
Section |  min time  |  avg time  |  max time  |%varavg| %total
---------------------------------------------------------------
Pair    | 0.45198    | 1.2339     | 1.6111     |  29.9 | 72.51
Neigh   | 0          | 0          | 0          |   0.0 |  0.00
Comm    | 0.027648   | 0.27631    | 0.83534    |  44.4 | 16.24
Output  | 0          | 0          | 0          |   0.0 |  0.00
Modify  | 1.8381e-05 | 0.0024302  | 0.0052     |   2.3 |  0.14
Other   |            | 0.1892     |            |       | 11.12

Nlocal:        2776.45 ave        3960 max           0 min
Histogram: 8 4 4 0 4 12 8 2 28 34
Nghost:        3879.03 ave        5424 max         232 min
Histogram: 8 0 8 0 16 0 8 8 16 40
Neighs:        79213.5 ave      115440 max           0 min
Histogram: 8 4 4 0 10 6 8 8 24 32

Total # of neighbors = 8238209
Ave neighs/atom = 28.530495
Neighbor list builds = 0
Dangerous builds = 0
The dot product: -5.50334908495739e-08
Setting atom values ...
  1 settings made for x
  1 settings made for y
  1 settings made for z
Setting up cg style minimization ...
  Unit style    : metal
  Current step  : 1576
Per MPI rank memory allocation (min/avg/max) = 5.441 | 5.816 | 6.074 Mbytes
Step PotEng KinEng TotEng v_fx v_fy v_fz 
    1576   -1152449.4            0   -1152449.4  0.015177274  0.010922058  0.013999997 
    1724   -1152449.4            0   -1152449.4 1.1571046e-05 -2.0557515e-05  9.24005e-05 
Loop time of 1.72204 on 104 procs for 148 steps with 288751 atoms

99.9% CPU use with 104 MPI tasks x 1 OpenMP threads

Minimization stats:
  Stopping criterion = energy tolerance
  Energy initial, next-to-last, final = 
     -1152449.36741004  -1152449.36942354  -1152449.36942354
  Force two-norm initial, final = 0.18080172 0.00028514679
  Force max component initial, final = 0.097118683 9.2400500e-05
  Final line search alpha, max atom move = 1.0000000 9.2400500e-05
  Iterations, force evaluations = 148 296

MPI task timing breakdown:
Section |  min time  |  avg time  |  max time  |%varavg| %total
---------------------------------------------------------------
Pair    | 0.4536     | 1.2498     | 1.6331     |  30.2 | 72.58
Neigh   | 0          | 0          | 0          |   0.0 |  0.00
Comm    | 0.03086    | 0.28361    | 0.85877    |  44.7 | 16.47
Output  | 0          | 0          | 0          |   0.0 |  0.00
Modify  | 1.7851e-05 | 0.0024361  | 0.0052342  |   2.3 |  0.14
Other   |            | 0.1862     |            |       | 10.81

Nlocal:        2776.45 ave        3960 max           0 min
Histogram: 8 4 4 0 4 12 8 2 28 34
Nghost:        3879.03 ave        5424 max         232 min
Histogram: 8 0 8 0 16 0 8 8 16 40
Neighs:        79213.6 ave      115440 max           0 min
Histogram: 8 4 4 0 10 6 8 8 24 32

Total # of neighbors = 8238211
Ave neighs/atom = 28.530502
Neighbor list builds = 0
Dangerous builds = 0
The dot product: 5.62163729625115e-07
Setting atom values ...
  1 settings made for x
  1 settings made for y
  1 settings made for z
Setting up cg style minimization ...
  Unit style    : metal
  Current step  : 1724
Per MPI rank memory allocation (min/avg/max) = 5.441 | 5.816 | 6.074 Mbytes
Step PotEng KinEng TotEng v_fx v_fy v_fz 
    1724   -1152449.4            0   -1152449.4   0.02751559  0.016382507  0.023949627 
    1926   -1152449.4            0   -1152449.4 -1.8804192e-06 4.1384649e-06 -1.5504466e-05 
Loop time of 2.35577 on 104 procs for 202 steps with 288751 atoms

99.9% CPU use with 104 MPI tasks x 1 OpenMP threads

Minimization stats:
  Stopping criterion = energy tolerance
  Energy initial, next-to-last, final = 
      -1152449.3528156  -1152449.35497813  -1152449.35497813
  Force two-norm initial, final = 0.18286151 9.0733519e-05
  Force max component initial, final = 0.10097224 1.9532133e-05
  Final line search alpha, max atom move = 1.0000000 1.9532133e-05
  Iterations, force evaluations = 202 404

MPI task timing breakdown:
Section |  min time  |  avg time  |  max time  |%varavg| %total
---------------------------------------------------------------
Pair    | 0.62032    | 1.6963     | 2.2192     |  35.1 | 72.00
Neigh   | 0          | 0          | 0          |   0.0 |  0.00
Comm    | 0.03689    | 0.38219    | 1.1475     |  51.6 | 16.22
Output  | 0          | 0          | 0          |   0.0 |  0.00
Modify  | 2.4727e-05 | 0.0033283  | 0.0071236  |   2.7 |  0.14
Other   |            | 0.274      |            |       | 11.63

Nlocal:        2776.45 ave        3959 max           0 min
Histogram: 8 4 4 0 4 12 8 2 28 34
Nghost:        3879.05 ave        5424 max         232 min
Histogram: 8 0 8 0 16 0 8 8 16 40
Neighs:        79213.6 ave      115410 max           0 min
Histogram: 8 4 4 0 10 6 8 8 24 32

Total # of neighbors = 8238210
Ave neighs/atom = 28.530499
Neighbor list builds = 0
Dangerous builds = 0
The dot product: -1.15069123014005e-07
Setting atom values ...
  1 settings made for x
  1 settings made for y
  1 settings made for z
Setting up cg style minimization ...
  Unit style    : metal
  Current step  : 1926
Per MPI rank memory allocation (min/avg/max) = 5.441 | 5.816 | 6.074 Mbytes
Step PotEng KinEng TotEng v_fx v_fy v_fz 
    1926   -1152449.3            0   -1152449.3   0.03429391  0.017471075  0.025815341 
    2000   -1152449.3            0   -1152449.3 -3.5195026e-05 7.8391075e-05 -0.00026168539 
    2138   -1152449.3            0   -1152449.3 -1.9035157e-07 1.2235463e-06 -3.3676643e-06 
Loop time of 2.45741 on 104 procs for 212 steps with 288751 atoms

99.9% CPU use with 104 MPI tasks x 1 OpenMP threads

Minimization stats:
  Stopping criterion = energy tolerance
  Energy initial, next-to-last, final = 
     -1152449.33729638  -1152449.33941905  -1152449.33941905
  Force two-norm initial, final = 0.18366666 6.4153061e-05
  Force max component initial, final = 0.10535329 4.4497081e-06
  Final line search alpha, max atom move = 1.0000000 4.4497081e-06
  Iterations, force evaluations = 212 424

MPI task timing breakdown:
Section |  min time  |  avg time  |  max time  |%varavg| %total
---------------------------------------------------------------
Pair    | 0.64596    | 1.7887     | 2.3188     |  36.1 | 72.79
Neigh   | 0          | 0          | 0          |   0.0 |  0.00
Comm    | 0.039804   | 0.40435    | 1.2141     |  53.4 | 16.45
Output  | 0.00017777 | 0.00018367 | 0.0003088  |   0.0 |  0.01
Modify  | 2.5698e-05 | 0.0034902  | 0.0074864  |   2.8 |  0.14
Other   |            | 0.2607     |            |       | 10.61

Nlocal:        2776.45 ave        3958 max           0 min
Histogram: 8 4 4 0 4 12 8 2 28 34
Nghost:        3879.07 ave        5424 max         232 min
Histogram: 8 0 8 0 16 0 8 8 16 40
Neighs:        79213.5 ave      115384 max           0 min
Histogram: 8 4 4 0 10 6 8 8 24 32

Total # of neighbors = 8238209
Ave neighs/atom = 28.530495
Neighbor list builds = 0
Dangerous builds = 0
The dot product: -2.06383727305215e-08
Setting atom values ...
  1 settings made for x
  1 settings made for y
  1 settings made for z
Setting up cg style minimization ...
  Unit style    : metal
  Current step  : 2138
[...]
Nghost:        3879.14 ave        5425 max         232 min
Histogram: 8 0 8 0 16 0 8 8 16 40
Neighs:        79213.3 ave      115422 max           0 min
Histogram: 8 4 4 0 10 6 8 8 24 32

Total # of neighbors = 8238185
Ave neighs/atom = 28.530412
Neighbor list builds = 0
Dangerous builds = 0
The dot product: -1.29164166848374e-07
Setting atom values ...
  1 settings made for x
  1 settings made for y
  1 settings made for z
Setting up cg style minimization ...
  Unit style    : metal
  Current step  : 5972
Per MPI rank memory allocation (min/avg/max) = 5.441 | 5.816 | 6.074 Mbytes
Step PotEng KinEng TotEng v_fx v_fy v_fz 
    5972   -1152449.2            0   -1152449.2  0.022694256 -0.010215786  0.027661717 
    6000   -1152449.2            0   -1152449.2 -0.0065324569 0.00039773216 -0.0099901885 
    6224   -1152449.2            0   -1152449.2 -1.7292132e-05 1.2300731e-07 -2.7186652e-05 
Loop time of 2.95026 on 104 procs for 252 steps with 288751 atoms

99.9% CPU use with 104 MPI tasks x 1 OpenMP threads

Minimization stats:
  Stopping criterion = energy tolerance
  Energy initial, next-to-last, final = 
      -1152449.2108302  -1152449.24867383  -1152449.24867383
  Force two-norm initial, final = 0.1348035 9.8456241e-05
  Force max component initial, final = 0.052153585 2.7186652e-05
  Final line search alpha, max atom move = 1.0000000 2.7186652e-05
  Iterations, force evaluations = 252 504

MPI task timing breakdown:
Section |  min time  |  avg time  |  max time  |%varavg| %total
---------------------------------------------------------------
Pair    | 0.77269    | 2.1209     | 2.7883     |  39.4 | 71.89
Neigh   | 2.0165e-05 | 0.0059173  | 0.0086105  |   3.2 |  0.20
Comm    | 0.054983   | 0.48582    | 1.4612     |  57.1 | 16.47
Output  | 0.00010748 | 0.00011863 | 0.00024907 |   0.0 |  0.00
Modify  | 3.1625e-05 | 0.0041447  | 0.00885    |   3.0 |  0.14
Other   |            | 0.3334     |            |       | 11.30

Nlocal:        2776.45 ave        3960 max           0 min
Histogram: 8 4 4 0 4 12 8 4 26 34
Nghost:        3879.14 ave        5425 max         232 min
Histogram: 8 0 8 0 16 0 8 8 16 40
Neighs:        79213.3 ave      115437 max           0 min
Histogram: 8 4 4 0 10 6 8 8 24 32

Total # of neighbors = 8238182
Ave neighs/atom = 28.530402
Neighbor list builds = 2
Dangerous builds = 0
The dot product: -2.79707415740401e-06
Setting atom values ...
  1 settings made for x
  1 settings made for y
  1 settings made for z
Setting up cg style minimization ...
  Unit style    : metal
  Current step  : 6224
Per MPI rank memory allocation (min/avg/max) = 5.441 | 5.816 | 6.074 Mbytes
Step PotEng KinEng TotEng v_fx v_fy v_fz 
    6224   -1152449.2            0   -1152449.2  0.031433059 -0.044080218  0.022341034 
    6457   -1152449.3            0   -1152449.3 -4.9485085e-06 -4.6231139e-06 -1.6048047e-05 
Loop time of 2.6907 on 104 procs for 233 steps with 288751 atoms

99.9% CPU use with 104 MPI tasks x 1 OpenMP threads

Minimization stats:
  Stopping criterion = energy tolerance
  Energy initial, next-to-last, final = 
     -1152449.24500186  -1152449.25046539  -1152449.25046539
  Force two-norm initial, final = 0.15724295 8.7772915e-05
  Force max component initial, final = 0.055893033 2.0827885e-05
  Final line search alpha, max atom move = 1.0000000 2.0827885e-05
  Iterations, force evaluations = 233 466

MPI task timing breakdown:
Section |  min time  |  avg time  |  max time  |%varavg| %total
---------------------------------------------------------------
Pair    | 0.71293    | 1.9551     | 2.5464     |  37.7 | 72.66
Neigh   | 0          | 0          | 0          |   0.0 |  0.00
Comm    | 0.050393   | 0.43443    | 1.3224     |  56.1 | 16.15
Output  | 0          | 0          | 0          |   0.0 |  0.00
Modify  | 2.9183e-05 | 0.0038322  | 0.008179   |   2.9 |  0.14
Other   |            | 0.2974     |            |       | 11.05

Nlocal:        2776.45 ave        3960 max           0 min
Histogram: 8 4 4 0 4 12 8 2 28 34
Nghost:        3879.09 ave        5424 max         232 min
Histogram: 8 0 8 0 16 0 8 8 16 40
Neighs:        79213.3 ave      115424 max           0 min
Histogram: 8 4 4 0 10 6 8 8 24 32

Total # of neighbors = 8238183
Ave neighs/atom = 28.530405
Neighbor list builds = 0
Dangerous builds = 0
The dot product: -3.20817721731414e-07
Setting atom values ...
  1 settings made for x
  1 settings made for y
  1 settings made for z
Setting up cg style minimization ...
  Unit style    : metal
  Current step  : 6457
Per MPI rank memory allocation (min/avg/max) = 5.441 | 5.816 | 6.074 Mbytes
Step PotEng KinEng TotEng v_fx v_fy v_fz 
    6457   -1152449.3            0   -1152449.3  0.010722344 -0.036481257 -0.0091965527 
    6554   -1152449.3            0   -1152449.3 8.640639e-06 1.2430492e-06 2.3525988e-05 
Loop time of 1.13332 on 104 procs for 97 steps with 288751 atoms

99.9% CPU use with 104 MPI tasks x 1 OpenMP threads

Minimization stats:
  Stopping criterion = energy tolerance
  Energy initial, next-to-last, final = 
      -1152449.2524869  -1152449.25378557  -1152449.25378557
  Force two-norm initial, final = 0.15046463 0.00012132026
  Force max component initial, final = 0.055001628 2.3525988e-05
  Final line search alpha, max atom move = 1.0000000 2.3525988e-05
  Iterations, force evaluations = 97 194

MPI task timing breakdown:
Section |  min time  |  avg time  |  max time  |%varavg| %total
---------------------------------------------------------------
Pair    | 0.29532    | 0.81877    | 1.0735     |  24.7 | 72.24
Neigh   | 0          | 0          | 0          |   0.0 |  0.00
Comm    | 0.024331   | 0.18885    | 0.57613    |  35.6 | 16.66
Output  | 0          | 0          | 0          |   0.0 |  0.00
Modify  | 1.2615e-05 | 0.0016019  | 0.003434   |   1.9 |  0.14
Other   |            | 0.1241     |            |       | 10.95

Nlocal:        2776.45 ave        3959 max           0 min
Histogram: 8 4 4 0 4 12 8 2 28 34
Nghost:        3879.01 ave        5424 max         232 min
Histogram: 8 0 8 0 16 0 8 8 16 40
Neighs:        79213.3 ave      115411 max           0 min
Histogram: 8 4 4 0 10 6 8 8 24 32

Total # of neighbors = 8238184
Ave neighs/atom = 28.530409
Neighbor list builds = 0
Dangerous builds = 0
The dot product: 9.59889670708085e-08
Setting atom values ...
  1 settings made for x
  1 settings made for y
  1 settings made for z
Setting up cg style minimization ...
  Unit style    : metal
  Current step  : 6554
Per MPI rank memory allocation (min/avg/max) = 5.441 | 5.816 | 6.074 Mbytes
Step PotEng KinEng TotEng v_fx v_fy v_fz 
    6554   -1152449.3            0   -1152449.3  0.013681982 -0.053123891 -0.017267787 
    6698   -1152449.3            0   -1152449.3 -6.2643725e-06 2.1597279e-06 -1.4284873e-05 
Loop time of 1.66908 on 104 procs for 144 steps with 288751 atoms

99.9% CPU use with 104 MPI tasks x 1 OpenMP threads

Minimization stats:
  Stopping criterion = energy tolerance
  Energy initial, next-to-last, final = 
     -1152449.25563787  -1152449.25685822  -1152449.25685822
  Force two-norm initial, final = 0.1539886 0.00010426358
  Force max component initial, final = 0.055748259 1.4284873e-05
  Final line search alpha, max atom move = 1.0000000 1.4284873e-05
  Iterations, force evaluations = 144 288

MPI task timing breakdown:
Section |  min time  |  avg time  |  max time  |%varavg| %total
---------------------------------------------------------------
Pair    | 0.44189    | 1.2075     | 1.5788     |  29.6 | 72.34
Neigh   | 0          | 0          | 0          |   0.0 |  0.00
Comm    | 0.030917   | 0.27024    | 0.81282    |  43.6 | 16.19
Output  | 0          | 0          | 0          |   0.0 |  0.00
Modify  | 1.8312e-05 | 0.0023699  | 0.0050562  |   2.3 |  0.14
Other   |            | 0.189      |            |       | 11.32

Nlocal:        2776.45 ave        3959 max           0 min
Histogram: 8 4 4 0 4 12 8 2 28 34
Nghost:        3879.01 ave        5424 max         232 min
Histogram: 8 0 8 0 16 0 8 8 16 40
Neighs:        79213.3 ave      115411 max           0 min
Histogram: 8 4 4 0 10 6 8 8 24 32

Total # of neighbors = 8238182
Ave neighs/atom = 28.530402
Neighbor list builds = 0
Dangerous builds = 0
The dot product: -7.55327002031172e-08
Setting atom values ...
  1 settings made for x
  1 settings made for y
  1 settings made for z
Setting up cg style minimization ...
  Unit style    : metal
  Current step  : 6698
Per MPI rank memory allocation (min/avg/max) = 5.441 | 5.816 | 6.074 Mbytes
Step PotEng KinEng TotEng v_fx v_fy v_fz 
    6698   -1152449.3            0   -1152449.3  0.015485666 -0.064818782 -0.021431243 
    6953   -1152449.3            0   -1152449.3 -2.8215422e-06 1.1413421e-06 -6.4116311e-06 
Loop time of 2.97493 on 104 procs for 255 steps with 288751 atoms

99.9% CPU use with 104 MPI tasks x 1 OpenMP threads

Minimization stats:
  Stopping criterion = energy tolerance
  Energy initial, next-to-last, final = 
     -1152449.25806956  -1152449.30305769  -1152449.30305769
  Force two-norm initial, final = 0.16252215 5.6873909e-05
  Force max component initial, final = 0.064818782 1.3664196e-05
  Final line search alpha, max atom move = 1.0000000 1.3664196e-05
  Iterations, force evaluations = 255 512

MPI task timing breakdown:
Section |  min time  |  avg time  |  max time  |%varavg| %total
---------------------------------------------------------------
Pair    | 0.78355    | 2.1549     | 2.8125     |  39.7 | 72.43
Neigh   | 1.0324e-05 | 0.0029559  | 0.0042906  |   2.2 |  0.10
Comm    | 0.0623     | 0.492      | 1.5112     |  58.0 | 16.54
Output  | 0          | 0          | 0          |   0.0 |  0.00
Modify  | 3.1598e-05 | 0.0042143  | 0.0089712  |   3.1 |  0.14
Other   |            | 0.3209     |            |       | 10.79

Nlocal:        2776.45 ave        3960 max           0 min
Histogram: 8 4 4 0 4 12 8 2 28 34
Nghost:        3879.05 ave        5424 max         232 min
Histogram: 8 0 8 0 16 0 8 8 16 40
Neighs:        79213.4 ave      115436 max           0 min
Histogram: 8 4 4 0 10 6 8 8 24 32

Total # of neighbors = 8238190
Ave neighs/atom = 28.530429
Neighbor list builds = 1
Dangerous builds = 0
The dot product: -4.31813728905633e-07
Setting atom values ...
  1 settings made for x
  1 settings made for y
  1 settings made for z
Setting up cg style minimization ...
  Unit style    : metal
  Current step  : 6953
Per MPI rank memory allocation (min/avg/max) = 5.441 | 5.816 | 6.074 Mbytes
Step PotEng KinEng TotEng v_fx v_fy v_fz 
    6953   -1152449.3            0   -1152449.3 -0.025782644  0.045712349 -0.056156421 
    7000   -1152449.3            0   -1152449.3 5.7483969e-05 0.00012190677 0.00025253537 
    7172   -1152449.3            0   -1152449.3 4.5663462e-06 4.4084312e-06 1.7059478e-05 
Loop time of 2.52504 on 104 procs for 219 steps with 288751 atoms

99.9% CPU use with 104 MPI tasks x 1 OpenMP threads

Minimization stats:
  Stopping criterion = energy tolerance
  Energy initial, next-to-last, final = 
     -1152449.31367758  -1152449.31571417  -1152449.31571417
  Force two-norm initial, final = 0.15806613 5.6999894e-05
  Force max component initial, final = 0.056156421 1.7059478e-05
  Final line search alpha, max atom move = 1.0000000 1.7059478e-05
  Iterations, force evaluations = 219 438

MPI task timing breakdown:
Section |  min time  |  avg time  |  max time  |%varavg| %total
---------------------------------------------------------------
Pair    | 0.66598    | 1.8364     | 2.3853     |  36.6 | 72.73
Neigh   | 0          | 0          | 0          |   0.0 |  0.00
Comm    | 0.05004    | 0.40986    | 1.2461     |  54.2 | 16.23
Output  | 0.00019656 | 0.00020458 | 0.00033347 |   0.0 |  0.01
Modify  | 2.7519e-05 | 0.0036056  | 0.0077015  |   2.8 |  0.14
Other   |            | 0.275      |            |       | 10.89

Nlocal:        2776.45 ave        3958 max           0 min
Histogram: 8 4 4 0 4 12 8 2 28 34
Nghost:        3879.09 ave        5424 max         232 min
Histogram: 8 0 8 0 16 0 8 8 16 40
Neighs:        79213.4 ave      115380 max           0 min
Histogram: 8 4 4 0 10 6 8 8 24 32

Total # of neighbors = 8238197
Ave neighs/atom = 28.530454
Neighbor list builds = 0
Dangerous builds = 0
The dot product: -4.19494260704883e-08
Setting atom values ...
  1 settings made for x
  1 settings made for y
  1 settings made for z
Setting up cg style minimization ...
  Unit style    : metal
  Current step  : 7172
Per MPI rank memory allocation (min/avg/max) = 5.441 | 5.816 | 6.074 Mbytes
Step PotEng KinEng TotEng v_fx v_fy v_fz 
    7172   -1152449.3            0   -1152449.3 0.0052238518 -0.069484889 -0.027991172 
    7290   -1152449.3            0   -1152449.3 -5.4818639e-06 -3.375435e-05 -3.8330935e-05 
Loop time of 1.37483 on 104 procs for 118 steps with 288751 atoms

99.9% CPU use with 104 MPI tasks x 1 OpenMP threads

Minimization stats:
  Stopping criterion = energy tolerance
  Energy initial, next-to-last, final = 
     -1152449.32439539  -1152449.32563817  -1152449.32563817
  Force two-norm initial, final = 0.16163795 0.00028492991
  Force max component initial, final = 0.069484889 6.9950435e-05
  Final line search alpha, max atom move = 1.0000000 6.9950435e-05
  Iterations, force evaluations = 118 236

MPI task timing breakdown:
Section |  min time  |  avg time  |  max time  |%varavg| %total
---------------------------------------------------------------
Pair    | 0.35871    | 0.99261    | 1.2974     |  27.0 | 72.20
Neigh   | 0          | 0          | 0          |   0.0 |  0.00
Comm    | 0.027123   | 0.22549    | 0.67755    |  39.1 | 16.40
Output  | 0          | 0          | 0          |   0.0 |  0.00
Modify  | 1.5012e-05 | 0.0019496  | 0.0041607  |   2.1 |  0.14
Other   |            | 0.1548     |            |       | 11.26

Nlocal:        2776.45 ave        3960 max           0 min
Histogram: 8 4 4 0 4 12 8 2 28 34
Nghost:        3879.03 ave        5424 max         232 min
Histogram: 8 0 8 0 16 0 8 8 16 40
Neighs:        79213.4 ave      115436 max           0 min
Histogram: 8 4 4 0 10 6 8 8 24 32

Total # of neighbors = 8238197
Ave neighs/atom = 28.530454
Neighbor list builds = 0
Dangerous builds = 0
The dot product: 2.52362839388752e-07
Setting atom values ...
  1 settings made for x
  1 settings made for y
  1 settings made for z
Setting up cg style minimization ...
  Unit style    : metal
  Current step  : 7290
Per MPI rank memory allocation (min/avg/max) = 5.441 | 5.816 | 6.074 Mbytes
Step PotEng KinEng TotEng v_fx v_fy v_fz 
    7290   -1152449.3            0   -1152449.3 0.00066492154 -0.055216683 -0.031400649 
    7498   -1152449.3            0   -1152449.3 -1.2507595e-07 -5.3038189e-06 -3.5968372e-06 
Loop time of 2.40797 on 104 procs for 208 steps with 288751 atoms

99.9% CPU use with 104 MPI tasks x 1 OpenMP threads

Minimization stats:
  Stopping criterion = energy tolerance
  Energy initial, next-to-last, final = 
      -1152449.3327412  -1152449.33393929  -1152449.33393929
  Force two-norm initial, final = 0.15744671 5.0542353e-05
  Force max component initial, final = 0.055216683 5.3038189e-06
  Final line search alpha, max atom move = 1.0000000 5.3038189e-06
  Iterations, force evaluations = 208 416

MPI task timing breakdown:
Section |  min time  |  avg time  |  max time  |%varavg| %total
---------------------------------------------------------------
Pair    | 0.63518    | 1.7466     | 2.2819     |  35.7 | 72.53
Neigh   | 0          | 0          | 0          |   0.0 |  0.00
Comm    | 0.038443   | 0.39018    | 1.1804     |  52.6 | 16.20
Output  | 0          | 0          | 0          |   0.0 |  0.00
Modify  | 2.6433e-05 | 0.0034258  | 0.0073078  |   2.8 |  0.14
Other   |            | 0.2678     |            |       | 11.12

Nlocal:        2776.45 ave        3960 max           0 min
Histogram: 8 4 4 0 4 12 8 2 28 34
Nghost:        3879.03 ave        5424 max         232 min
Histogram: 8 0 8 0 16 0 8 8 16 40
Neighs:        79213.4 ave      115436 max           0 min
Histogram: 8 4 4 0 10 6 8 8 24 32

Total # of neighbors = 8238197
Ave neighs/atom = 28.530454
Neighbor list builds = 0
Dangerous builds = 0
The dot product: 2.16560448906144e-08
Setting atom values ...
  1 settings made for x
  1 settings made for y
  1 settings made for z
Setting up cg style minimization ...
  Unit style    : metal
  Current step  : 7498
Per MPI rank memory allocation (min/avg/max) = 5.441 | 5.816 | 6.074 Mbytes
Step PotEng KinEng TotEng v_fx v_fy v_fz 
    7498   -1152449.3            0   -1152449.3 0.0012928369 -0.058617674 -0.030636391 
    7838   -1152449.3            0   -1152449.3 -5.9182131e-09 -8.6646841e-09 -2.3165647e-08 
Loop time of 3.93382 on 104 procs for 340 steps with 288751 atoms

99.9% CPU use with 104 MPI tasks x 1 OpenMP threads

Minimization stats:
  Stopping criterion = energy tolerance
  Energy initial, next-to-last, final = 
     -1152449.33941513  -1152449.34063771  -1152449.34063771
  Force two-norm initial, final = 0.15914406 1.8857818e-07
  Force max component initial, final = 0.058617674 2.3165647e-08
  Final line search alpha, max atom move = 1.0000000 2.3165647e-08
  Iterations, force evaluations = 340 680

MPI task timing breakdown:
Section |  min time  |  avg time  |  max time  |%varavg| %total
---------------------------------------------------------------
Pair    | 1.0352     | 2.8567     | 3.7236     |  45.8 | 72.62
Neigh   | 0          | 0          | 0          |   0.0 |  0.00
Comm    | 0.072221   | 0.65005    | 1.9721     |  67.2 | 16.52
Output  | 0          | 0          | 0          |   0.0 |  0.00
Modify  | 4.3676e-05 | 0.0055979  | 0.011938   |   3.5 |  0.14
Other   |            | 0.4215     |            |       | 10.71

Nlocal:        2776.45 ave        3960 max           0 min
Histogram: 8 4 4 0 4 12 8 2 28 34
Nghost:        3878.99 ave        5424 max         232 min
Histogram: 8 0 8 0 16 0 8 8 16 40
Neighs:        79213.4 ave      115436 max           0 min
Histogram: 8 4 4 0 10 6 8 8 24 32

Total # of neighbors = 8238196
Ave neighs/atom = 28.530450
Neighbor list builds = 0
Dangerous builds = 0
The dot product: 7.1289397280498e-11
Setting up cg style minimization ...
  Unit style    : metal
  Current step  : 7838
Per MPI rank memory allocation (min/avg/max) = 5.441 | 5.816 | 6.074 Mbytes
Step PotEng KinEng TotEng v_fx v_fy v_fz 
    7838   -1152449.3            0   -1152449.3   0.27571164  0.053317578 -0.090379556 
    8000   -1152449.4            0   -1152449.4 0.00012349995 8.4998338e-05 0.00019390502 
    8045   -1152449.4            0   -1152449.4 -2.3150265e-05 -6.8058924e-06 -4.821127e-05 
Loop time of 2.38787 on 104 procs for 207 steps with 288751 atoms

99.9% CPU use with 104 MPI tasks x 1 OpenMP threads

Minimization stats:
  Stopping criterion = energy tolerance
  Energy initial, next-to-last, final = 
     -1152449.34063771  -1152449.35157329  -1152449.35157329
  Force two-norm initial, final = 0.29500532 0.00022964002
  Force max component initial, final = 0.27571164 4.8211270e-05
  Final line search alpha, max atom move = 1.0000000 4.8211270e-05
  Iterations, force evaluations = 207 414

MPI task timing breakdown:
Section |  min time  |  avg time  |  max time  |%varavg| %total
---------------------------------------------------------------
Pair    | 0.62986    | 1.7342     | 2.2645     |  35.6 | 72.63
Neigh   | 0          | 0          | 0          |   0.0 |  0.00
Comm    | 0.04794    | 0.3872     | 1.1708     |  52.5 | 16.22
Output  | 0.0001218  | 0.00013099 | 0.00031529 |   0.0 |  0.01
Modify  | 2.5156e-05 | 0.0022168  | 0.0056824  |   3.0 |  0.09
Other   |            | 0.2641     |            |       | 11.06

Nlocal:        2776.45 ave        3960 max           0 min
Histogram: 8 4 4 0 4 12 8 2 28 34
Nghost:        3878.99 ave        5424 max         232 min
Histogram: 8 0 8 0 16 0 8 8 16 40
Neighs:        79213.4 ave      115436 max           0 min
Histogram: 8 4 4 0 10 6 8 8 24 32

Total # of neighbors = 8238193
Ave neighs/atom = 28.530440
Neighbor list builds = 0
Dangerous builds = 0
