LAMMPS (29 Oct 2020)
OMP_NUM_THREADS environment is not set. Defaulting to 1 thread. (../comm.cpp:94)
  using 1 OpenMP thread(s) per MPI task
OMP_NUM_THREADS environment is not set. Defaulting to 1 thread. (../comm.cpp:94)
  using 1 OpenMP thread(s) per MPI task
Reading data file ...
  orthogonal box = (-122.39241 -121.13707 -37.090501) to (122.39241 121.13707 37.090501)
  13 by 4 by 2 MPI processor grid
  reading atoms ...
  288751 atoms
  read_data CPU = 0.420 seconds
199981 atoms in group inner
88770 atoms in group outer
1 atoms in group carbon
Neighbor list info ...
  update every 1 steps, delay 0 steps, check yes
  max neighbors/atom: 2000, page size: 100000
  master list distance cutoff = 5.6
  ghost atom cutoff = 5.6
  binsize = 2.8, bins = 88 87 27
  1 neighbor lists, perpetual/occasional/extra = 1 0 0
  (1) pair eam/alloy, perpetual
      attributes: half, newton on
      pair build: half/bin/atomonly/newton
      stencil: half/bin/3d/newton
      bin: standard
Setting up cg style minimization ...
  Unit style    : metal
  Current step  : 0
Per MPI rank memory allocation (min/avg/max) = 5.441 | 5.816 | 6.074 Mbytes
Step v_fx v_fy v_fz PotEng KinEng TotEng 
       0   -1.7538907  -0.79760024    2.6205664   -1152447.8            0   -1152447.8 
     156 2.7654224e-05 -3.5600069e-07 -3.0429716e-05   -1152449.5            0   -1152449.5 
Loop time of 1.86066 on 104 procs for 156 steps with 288751 atoms

99.8% CPU use with 104 MPI tasks x 1 OpenMP threads

Minimization stats:
  Stopping criterion = energy tolerance
  Energy initial, next-to-last, final = 
     -1152447.77346368  -1152449.45035285  -1152449.45035285
  Force two-norm initial, final = 10.247446 0.00015192026
  Force max component initial, final = 6.2516024 3.5901674e-05
  Final line search alpha, max atom move = 1.0000000 3.5901674e-05
  Iterations, force evaluations = 156 311

MPI task timing breakdown:
Section |  min time  |  avg time  |  max time  |%varavg| %total
---------------------------------------------------------------
Pair    | 0.49034    | 1.3144     | 1.7136     |  30.5 | 70.64
Neigh   | 3.1317e-05 | 0.0088368  | 0.012925   |   3.9 |  0.47
Comm    | 0.031186   | 0.30125    | 0.88187    |  44.5 | 16.19
Output  | 0          | 0          | 0          |   0.0 |  0.00
Modify  | 1.8026e-05 | 0.001686   | 0.0043091  |   2.5 |  0.09
Other   |            | 0.2345     |            |       | 12.60

Nlocal:        2776.45 ave        3961 max           0 min
Histogram: 8 4 4 0 6 10 8 2 28 34
Nghost:        3879.03 ave        5425 max         232 min
Histogram: 8 0 8 0 16 0 8 8 16 40
Neighs:        79213.5 ave      115456 max           0 min
Histogram: 8 4 4 0 10 6 8 8 24 32

Total # of neighbors = 8238206
Ave neighs/atom = 28.530485
Neighbor list builds = 3
Dangerous builds = 0
Setting atom values ...
  1 settings made for x
  1 settings made for y
  1 settings made for z
Setting up cg style minimization ...
  Unit style    : metal
  Current step  : 156
Per MPI rank memory allocation (min/avg/max) = 5.441 | 5.816 | 6.074 Mbytes
Step PotEng KinEng TotEng v_fx v_fy v_fz 
     156   -1152449.4            0   -1152449.4 0.00028412199 -0.0097071128 -0.0087510919 
     300   -1152449.5            0   -1152449.5 1.4097833e-05 -7.431872e-06 -2.8542822e-05 
Loop time of 1.73316 on 104 procs for 144 steps with 288751 atoms

99.9% CPU use with 104 MPI tasks x 1 OpenMP threads

Minimization stats:
  Stopping criterion = energy tolerance
  Energy initial, next-to-last, final = 
     -1152449.44959022  -1152449.45008246  -1152449.45008246
  Force two-norm initial, final = 0.10180542 0.00021845154
  Force max component initial, final = 0.051615216 2.8688484e-05
  Final line search alpha, max atom move = 1.0000000 2.8688484e-05
  Iterations, force evaluations = 144 288

MPI task timing breakdown:
Section |  min time  |  avg time  |  max time  |%varavg| %total
---------------------------------------------------------------
Pair    | 0.44193    | 1.2236     | 1.6041     |  29.8 | 70.60
Neigh   | 0          | 0          | 0          |   0.0 |  0.00
Comm    | 0.034536   | 0.284      | 0.8322     |  42.9 | 16.39
Output  | 0          | 0          | 0          |   0.0 |  0.00
Modify  | 1.986e-05  | 0.0023974  | 0.0050842  |   2.3 |  0.14
Other   |            | 0.2232     |            |       | 12.88

Nlocal:        2776.45 ave        3960 max           0 min
Histogram: 8 4 4 0 4 12 8 2 28 34
Nghost:        3879.03 ave        5424 max         232 min
Histogram: 8 0 8 0 16 0 8 8 16 40
Neighs:        79213.4 ave      115434 max           0 min
Histogram: 8 4 4 0 10 6 8 8 24 32

Total # of neighbors = 8238197
Ave neighs/atom = 28.530454
Neighbor list builds = 0
Dangerous builds = 0
Setting atom values ...
  1 settings made for x
  1 settings made for y
  1 settings made for z
Setting up cg style minimization ...
  Unit style    : metal
  Current step  : 300
Per MPI rank memory allocation (min/avg/max) = 5.441 | 5.816 | 6.074 Mbytes
Step PotEng KinEng TotEng v_fx v_fy v_fz 
     300   -1152449.4            0   -1152449.4 -0.00051779573  -0.02043223 -0.018585244 
     478   -1152449.4            0   -1152449.4 1.6781484e-05 -2.1206303e-06 -3.2779489e-05 
Loop time of 2.10277 on 104 procs for 178 steps with 288751 atoms

99.9% CPU use with 104 MPI tasks x 1 OpenMP threads

Minimization stats:
  Stopping criterion = energy tolerance
  Energy initial, next-to-last, final = 
     -1152449.44665132  -1152449.44825769  -1152449.44825769
  Force two-norm initial, final = 0.18517527 0.00018014452
  Force max component initial, final = 0.093840753 3.6512687e-05
  Final line search alpha, max atom move = 1.0000000 3.6512687e-05
  Iterations, force evaluations = 178 356

MPI task timing breakdown:
Section |  min time  |  avg time  |  max time  |%varavg| %total
---------------------------------------------------------------
Pair    | 0.54326    | 1.4988     | 1.9641     |  33.1 | 71.28
Neigh   | 0          | 0          | 0          |   0.0 |  0.00
Comm    | 0.040683   | 0.34241    | 1.0135     |  47.9 | 16.28
Output  | 0          | 0          | 0          |   0.0 |  0.00
Modify  | 2.1454e-05 | 0.0029425  | 0.0062485  |   2.5 |  0.14
Other   |            | 0.2586     |            |       | 12.30

Nlocal:        2776.45 ave        3960 max           0 min
Histogram: 8 4 4 0 4 12 8 2 28 34
Nghost:        3879.03 ave        5424 max         232 min
Histogram: 8 0 8 0 16 0 8 8 16 40
Neighs:        79213.4 ave      115434 max           0 min
Histogram: 8 4 4 0 10 6 8 8 24 32

Total # of neighbors = 8238198
Ave neighs/atom = 28.530457
Neighbor list builds = 0
Dangerous builds = 0
The dot product: 6.85737611727803e-08
Setting atom values ...
  1 settings made for x
  1 settings made for y
  1 settings made for z
Setting up cg style minimization ...
  Unit style    : metal
  Current step  : 478
Per MPI rank memory allocation (min/avg/max) = 5.441 | 5.816 | 6.074 Mbytes
Step PotEng KinEng TotEng v_fx v_fy v_fz 
     478   -1152449.4            0   -1152449.4 -0.0022963174 -0.026592077  -0.02483886 
     607   -1152449.4            0   -1152449.4 -2.7457036e-05 7.783724e-06 6.7948417e-05 
Loop time of 1.55751 on 104 procs for 129 steps with 288751 atoms

99.9% CPU use with 104 MPI tasks x 1 OpenMP threads

Minimization stats:
  Stopping criterion = energy tolerance
  Energy initial, next-to-last, final = 
     -1152449.44328209   -1152449.4448951   -1152449.4448951
  Force two-norm initial, final = 0.1866576 0.00026078236
  Force max component initial, final = 0.092393416 6.7948417e-05
  Final line search alpha, max atom move = 1.0000000 6.7948417e-05
  Iterations, force evaluations = 129 258

MPI task timing breakdown:
Section |  min time  |  avg time  |  max time  |%varavg| %total
---------------------------------------------------------------
Pair    | 0.39496    | 1.0948     | 1.4478     |  28.3 | 70.29
Neigh   | 0          | 0          | 0          |   0.0 |  0.00
Comm    | 0.02652    | 0.25543    | 0.74517    |  40.1 | 16.40
Output  | 0          | 0          | 0          |   0.0 |  0.00
Modify  | 1.5993e-05 | 0.0021451  | 0.0045253  |   2.2 |  0.14
Other   |            | 0.2051     |            |       | 13.17

Nlocal:        2776.45 ave        3961 max           0 min
Histogram: 8 4 4 0 6 10 8 2 28 34
Nghost:        3879.03 ave        5424 max         232 min
Histogram: 8 0 8 0 16 0 8 8 16 40
Neighs:        79213.4 ave      115458 max           0 min
Histogram: 8 4 4 0 10 6 8 8 24 32

Total # of neighbors = 8238196
Ave neighs/atom = 28.530450
Neighbor list builds = 0
Dangerous builds = 0
The dot product: -2.4786950677268e-07
Setting atom values ...
  1 settings made for x
  1 settings made for y
  1 settings made for z
Setting up cg style minimization ...
  Unit style    : metal
  Current step  : 607
Per MPI rank memory allocation (min/avg/max) = 5.441 | 5.816 | 6.074 Mbytes
Step PotEng KinEng TotEng v_fx v_fy v_fz 
     607   -1152449.4            0   -1152449.4 -0.0069463783 -0.031556493 -0.026766535 
     738   -1152449.4            0   -1152449.4 -1.5085151e-05 -1.3723186e-06 3.765272e-05 
Loop time of 1.55049 on 104 procs for 131 steps with 288751 atoms

99.9% CPU use with 104 MPI tasks x 1 OpenMP threads

Minimization stats:
  Stopping criterion = energy tolerance
  Energy initial, next-to-last, final = 
     -1152449.43858377  -1152449.44020627  -1152449.44020627
  Force two-norm initial, final = 0.18710935 0.00018279537
  Force max component initial, final = 0.088900924 4.4350304e-05
  Final line search alpha, max atom move = 1.0000000 4.4350304e-05
  Iterations, force evaluations = 131 262

MPI task timing breakdown:
Section |  min time  |  avg time  |  max time  |%varavg| %total
---------------------------------------------------------------
Pair    | 0.39792    | 1.1053     | 1.4467     |  28.3 | 71.29
Neigh   | 0          | 0          | 0          |   0.0 |  0.00
Comm    | 0.025375   | 0.25233    | 0.7378     |  41.3 | 16.27
Output  | 0          | 0          | 0          |   0.0 |  0.00
Modify  | 1.5705e-05 | 0.0021678  | 0.0046206  |   2.2 |  0.14
Other   |            | 0.1907     |            |       | 12.30

Nlocal:        2776.45 ave        3960 max           0 min
Histogram: 8 4 4 0 4 12 8 2 28 34
Nghost:        3879.03 ave        5427 max         232 min
Histogram: 8 0 8 0 16 0 8 8 16 40
Neighs:        79213.4 ave      115435 max           0 min
Histogram: 8 4 4 0 10 6 8 8 24 32

Total # of neighbors = 8238195
Ave neighs/atom = 28.530447
Neighbor list builds = 0
Dangerous builds = 0
The dot product: -1.47713048029883e-07
Setting atom values ...
  1 settings made for x
  1 settings made for y
  1 settings made for z
Setting up cg style minimization ...
  Unit style    : metal
  Current step  : 738
Per MPI rank memory allocation (min/avg/max) = 5.441 | 5.816 | 6.074 Mbytes
Step PotEng KinEng TotEng v_fx v_fy v_fz 
     738   -1152449.4            0   -1152449.4 -0.011313804  -0.03239452  -0.02360652 
     903   -1152449.4            0   -1152449.4 -1.3118884e-05 -2.442868e-06 3.7309801e-05 
Loop time of 1.96517 on 104 procs for 165 steps with 288751 atoms

99.9% CPU use with 104 MPI tasks x 1 OpenMP threads

Minimization stats:
  Stopping criterion = energy tolerance
  Energy initial, next-to-last, final = 
     -1152449.43258126  -1152449.43418204  -1152449.43418204
  Force two-norm initial, final = 0.1857082 0.0001040671
  Force max component initial, final = 0.084827662 3.7309801e-05
  Final line search alpha, max atom move = 1.0000000 3.7309801e-05
  Iterations, force evaluations = 165 330

MPI task timing breakdown:
Section |  min time  |  avg time  |  max time  |%varavg| %total
---------------------------------------------------------------
Pair    | 0.5062     | 1.3963     | 1.8235     |  31.8 | 71.05
Neigh   | 0          | 0          | 0          |   0.0 |  0.00
Comm    | 0.03304    | 0.32094    | 0.94235    |  46.1 | 16.33
Output  | 0          | 0          | 0          |   0.0 |  0.00
Modify  | 2.0726e-05 | 0.0027352  | 0.0057935  |   2.5 |  0.14
Other   |            | 0.2452     |            |       | 12.48

Nlocal:        2776.45 ave        3959 max           0 min
Histogram: 8 4 4 0 4 12 8 2 28 34
Nghost:        3879.03 ave        5428 max         232 min
Histogram: 8 0 8 0 16 0 8 8 16 40
Neighs:        79213.4 ave      115394 max           0 min
Histogram: 8 4 4 0 10 6 8 8 24 32

Total # of neighbors = 8238197
Ave neighs/atom = 28.530454
Neighbor list builds = 0
Dangerous builds = 0
The dot product: -1.27405539052611e-07
Setting atom values ...
  1 settings made for x
  1 settings made for y
  1 settings made for z
Setting up cg style minimization ...
  Unit style    : metal
  Current step  : 903
Per MPI rank memory allocation (min/avg/max) = 5.441 | 5.816 | 6.074 Mbytes
Step PotEng KinEng TotEng v_fx v_fy v_fz 
     903   -1152449.4            0   -1152449.4 -0.013842025 -0.030679496 -0.018237959 
    1000   -1152449.4            0   -1152449.4 -1.8500361e-05 8.7872021e-06 8.9411657e-05 
    1026   -1152449.4            0   -1152449.4 -1.2549134e-05 -4.6881342e-06 3.631442e-05 
Loop time of 1.45161 on 104 procs for 123 steps with 288751 atoms

99.9% CPU use with 104 MPI tasks x 1 OpenMP threads

Minimization stats:
  Stopping criterion = energy tolerance
  Energy initial, next-to-last, final = 
     -1152449.42520904  -1152449.42677715  -1152449.42677715
  Force two-norm initial, final = 0.18366613 0.0001285907
  Force max component initial, final = 0.081400433 3.6314420e-05
  Final line search alpha, max atom move = 1.0000000 3.6314420e-05
  Iterations, force evaluations = 123 246

MPI task timing breakdown:
Section |  min time  |  avg time  |  max time  |%varavg| %total
---------------------------------------------------------------
Pair    | 0.37289    | 1.034      | 1.3603     |  27.5 | 71.23
Neigh   | 0          | 0          | 0          |   0.0 |  0.00
Comm    | 0.02192    | 0.23603    | 0.69602    |  39.7 | 16.26
Output  | 0.00022859 | 0.00023432 | 0.00035273 |   0.0 |  0.02
Modify  | 1.5339e-05 | 0.0020402  | 0.0043199  |   2.1 |  0.14
Other   |            | 0.1793     |            |       | 12.35

Nlocal:        2776.45 ave        3959 max           0 min
Histogram: 8 4 4 0 4 12 8 2 28 34
Nghost:        3879.03 ave        5428 max         232 min
Histogram: 8 0 8 0 16 0 8 8 16 40
Neighs:        79213.4 ave      115394 max           0 min
Histogram: 8 4 4 0 10 6 8 8 24 32

Total # of neighbors = 8238198
Ave neighs/atom = 28.530457
Neighbor list builds = 0
Dangerous builds = 0
The dot product: -9.12506395481284e-08
Setting atom values ...
  1 settings made for x
  1 settings made for y
  1 settings made for z
Setting up cg style minimization ...
  Unit style    : metal
  Current step  : 1026
Per MPI rank memory allocation (min/avg/max) = 5.441 | 5.816 | 6.074 Mbytes
Step PotEng KinEng TotEng v_fx v_fy v_fz 
    1026   -1152449.4            0   -1152449.4 -0.014510569 -0.027662051 -0.012676142 
    1162   -1152449.4            0   -1152449.4 3.3498518e-06 -1.2625236e-06 -1.753221e-05 
Loop time of 1.62131 on 104 procs for 136 steps with 288751 atoms

99.9% CPU use with 104 MPI tasks x 1 OpenMP threads

Minimization stats:
  Stopping criterion = energy tolerance
  Energy initial, next-to-last, final = 
     -1152449.41641626  -1152449.41795331  -1152449.41795331
  Force two-norm initial, final = 0.181592 7.5386515e-05
  Force max component initial, final = 0.078991171 1.7532210e-05
  Final line search alpha, max atom move = 1.0000000 1.7532210e-05
  Iterations, force evaluations = 136 272

MPI task timing breakdown:
Section |  min time  |  avg time  |  max time  |%varavg| %total
---------------------------------------------------------------
Pair    | 0.41404    | 1.1478     | 1.5172     |  28.9 | 70.79
Neigh   | 0          | 0          | 0          |   0.0 |  0.00
Comm    | 0.027226   | 0.26431    | 0.78552    |  41.8 | 16.30
Output  | 0          | 0          | 0          |   0.0 |  0.00
Modify  | 1.7078e-05 | 0.0022528  | 0.0048037  |   2.2 |  0.14
Other   |            | 0.2069     |            |       | 12.76

Nlocal:        2776.45 ave        3958 max           0 min
Histogram: 8 4 4 0 4 12 8 2 28 34
Nghost:        3879.03 ave        5429 max         232 min
Histogram: 8 0 8 0 16 0 8 8 16 40
Neighs:        79213.5 ave      115358 max           0 min
Histogram: 8 4 4 0 10 6 8 8 24 32

Total # of neighbors = 8238199
Ave neighs/atom = 28.530461
Neighbor list builds = 0
Dangerous builds = 0
The dot product: 3.47966500444354e-08
Setting atom values ...
  1 settings made for x
  1 settings made for y
  1 settings made for z
Setting up cg style minimization ...
  Unit style    : metal
  Current step  : 1162
Per MPI rank memory allocation (min/avg/max) = 5.441 | 5.816 | 6.074 Mbytes
Step PotEng KinEng TotEng v_fx v_fy v_fz 
    1162   -1152449.4            0   -1152449.4 -0.013558109 -0.023600961 -0.0076354887 
    1294   -1152449.4            0   -1152449.4 8.7420749e-06 3.3250604e-06 -3.0079627e-05 
Loop time of 1.54423 on 104 procs for 132 steps with 288751 atoms

99.9% CPU use with 104 MPI tasks x 1 OpenMP threads

Minimization stats:
  Stopping criterion = energy tolerance
  Energy initial, next-to-last, final = 
     -1152449.40616961  -1152449.40768915  -1152449.40768915
  Force two-norm initial, final = 0.17971599 0.00011231496
  Force max component initial, final = 0.077742349 3.0079627e-05
  Final line search alpha, max atom move = 1.0000000 3.0079627e-05
  Iterations, force evaluations = 132 264

MPI task timing breakdown:
Section |  min time  |  avg time  |  max time  |%varavg| %total
---------------------------------------------------------------
Pair    | 0.401      | 1.1099     | 1.45       |  28.4 | 71.87
Neigh   | 0          | 0          | 0          |   0.0 |  0.00
Comm    | 0.025367   | 0.25097    | 0.7477     |  41.7 | 16.25
Output  | 0          | 0          | 0          |   0.0 |  0.00
Modify  | 1.617e-05  | 0.0021821  | 0.0046428  |   2.2 |  0.14
Other   |            | 0.1812     |            |       | 11.73

Nlocal:        2776.45 ave        3958 max           0 min
Histogram: 8 4 4 0 4 12 8 2 28 34
Nghost:        3879.03 ave        5429 max         232 min
Histogram: 8 0 8 0 16 0 8 8 16 40
Neighs:        79213.5 ave      115358 max           0 min
Histogram: 8 4 4 0 10 6 8 8 24 32

Total # of neighbors = 8238202
Ave neighs/atom = 28.530471
Neighbor list builds = 0
Dangerous builds = 0
The dot product: 2.99307154115625e-08
Setting atom values ...
  1 settings made for x
  1 settings made for y
  1 settings made for z
Setting up cg style minimization ...
  Unit style    : metal
  Current step  : 1294
Per MPI rank memory allocation (min/avg/max) = 5.441 | 5.816 | 6.074 Mbytes
Step PotEng KinEng TotEng v_fx v_fy v_fz 
    1294   -1152449.4            0   -1152449.4 -0.010701046 -0.017576234 -0.0029472079 
    1453   -1152449.4            0   -1152449.4 -1.4244968e-07 -1.2671806e-06 -3.1870811e-06 
Loop time of 1.90917 on 104 procs for 159 steps with 288751 atoms

99.9% CPU use with 104 MPI tasks x 1 OpenMP threads

Minimization stats:
  Stopping criterion = energy tolerance
  Energy initial, next-to-last, final = 
     -1152449.39446956  -1152449.39600052  -1152449.39600052
  Force two-norm initial, final = 0.1780479 0.00014199895
  Force max component initial, final = 0.077633019 1.4593522e-05
  Final line search alpha, max atom move = 1.0000000 1.4593522e-05
  Iterations, force evaluations = 159 318

MPI task timing breakdown:
Section |  min time  |  avg time  |  max time  |%varavg| %total
---------------------------------------------------------------
Pair    | 0.48525    | 1.3471     | 1.7829     |  31.3 | 70.56
Neigh   | 0          | 0          | 0          |   0.0 |  0.00
Comm    | 0.035788   | 0.31455    | 0.92844    |  44.8 | 16.48
Output  | 0          | 0          | 0          |   0.0 |  0.00
Modify  | 1.902e-05  | 0.0026308  | 0.0055782  |   2.4 |  0.14
Other   |            | 0.2449     |            |       | 12.83

Nlocal:        2776.45 ave        3955 max           0 min
Histogram: 8 4 4 0 4 12 8 0 30 34
Nghost:        3879.03 ave        5429 max         232 min
Histogram: 8 0 8 0 16 0 8 8 16 40
Neighs:        79213.5 ave      115273 max           0 min
Histogram: 8 4 4 0 10 6 8 8 24 32

Total # of neighbors = 8238203
Ave neighs/atom = 28.530474
Neighbor list builds = 0
Dangerous builds = 0
The dot product: -3.84067425271281e-09
Setting atom values ...
  1 settings made for x
  1 settings made for y
  1 settings made for z
Setting up cg style minimization ...
  Unit style    : metal
  Current step  : 1453
Per MPI rank memory allocation (min/avg/max) = 5.441 | 5.816 | 6.074 Mbytes
Step PotEng KinEng TotEng v_fx v_fy v_fz 
    1453   -1152449.4            0   -1152449.4 -0.0061548862 -0.0091462196  0.002117252 
    1575   -1152449.4            0   -1152449.4 1.0928896e-05 -6.6022902e-07 -5.3548802e-05 
Loop time of 1.44346 on 104 procs for 122 steps with 288751 atoms

99.9% CPU use with 104 MPI tasks x 1 OpenMP threads

Minimization stats:
  Stopping criterion = energy tolerance
  Energy initial, next-to-last, final = 
     -1152449.38136414  -1152449.38296007  -1152449.38296007
  Force two-norm initial, final = 0.17689643 0.00023110138
  Force max component initial, final = 0.078870897 5.3548802e-05
  Final line search alpha, max atom move = 1.0000000 5.3548802e-05
  Iterations, force evaluations = 122 244

MPI task timing breakdown:
Section |  min time  |  avg time  |  max time  |%varavg| %total
---------------------------------------------------------------
Pair    | 0.37131    | 1.0302     | 1.3502     |  27.5 | 71.37
Neigh   | 0          | 0          | 0          |   0.0 |  0.00
Comm    | 0.02258    | 0.23473    | 0.69497    |  39.8 | 16.26
Output  | 0          | 0          | 0          |   0.0 |  0.00
Modify  | 1.4714e-05 | 0.0020238  | 0.004295   |   2.1 |  0.14
Other   |            | 0.1765     |            |       | 12.23

Nlocal:        2776.45 ave        3951 max           0 min
Histogram: 8 4 4 0 4 12 8 0 30 34
Nghost:        3879.01 ave        5429 max         232 min
Histogram: 8 0 8 0 16 0 8 8 16 40
Neighs:        79213.5 ave      115143 max           0 min
Histogram: 8 4 4 0 10 6 8 8 24 32

Total # of neighbors = 8238203
Ave neighs/atom = 28.530474
Neighbor list builds = 0
Dangerous builds = 0
The dot product: -9.8686088415023e-08
Setting atom values ...
  1 settings made for x
  1 settings made for y
  1 settings made for z
Setting up cg style minimization ...
  Unit style    : metal
  Current step  : 1575
Per MPI rank memory allocation (min/avg/max) = 5.441 | 5.816 | 6.074 Mbytes
Step PotEng KinEng TotEng v_fx v_fy v_fz 
    1575   -1152449.4            0   -1152449.4 -0.00032005936 0.0030405712 0.0093944381 
    1787   -1152449.4            0   -1152449.4 4.3475338e-06 1.1717583e-06 -1.6463833e-05 
Loop time of 2.49534 on 104 procs for 212 steps with 288751 atoms

99.9% CPU use with 104 MPI tasks x 1 OpenMP threads

Minimization stats:
  Stopping criterion = energy tolerance
  Energy initial, next-to-last, final = 
     -1152449.36698174  -1152449.36886299  -1152449.36886299
  Force two-norm initial, final = 0.17677739 5.4133612e-05
  Force max component initial, final = 0.081772425 1.6463833e-05
  Final line search alpha, max atom move = 1.0000000 1.6463833e-05
  Iterations, force evaluations = 212 424

MPI task timing breakdown:
Section |  min time  |  avg time  |  max time  |%varavg| %total
---------------------------------------------------------------
Pair    | 0.64592    | 1.789      | 2.3463     |  36.1 | 71.69
Neigh   | 0          | 0          | 0          |   0.0 |  0.00
Comm    | 0.039054   | 0.40898    | 1.2077     |  52.8 | 16.39
Output  | 0          | 0          | 0          |   0.0 |  0.00
Modify  | 2.5687e-05 | 0.0035073  | 0.0074598  |   2.8 |  0.14
Other   |            | 0.2938     |            |       | 11.78

Nlocal:        2776.45 ave        3949 max           0 min
Histogram: 8 4 4 0 4 12 8 0 28 36
Nghost:        3878.99 ave        5429 max         232 min
Histogram: 8 0 8 0 16 0 8 8 16 40
Neighs:        79213.5 ave      115083 max           0 min
Histogram: 8 4 4 0 10 6 8 8 24 32

Total # of neighbors = 8238205
Ave neighs/atom = 28.530481
Neighbor list builds = 0
Dangerous builds = 0
The dot product: -8.15645502369183e-08
Setting atom values ...
  1 settings made for x
  1 settings made for y
  1 settings made for z
Setting up cg style minimization ...
  Unit style    : metal
  Current step  : 1787
Per MPI rank memory allocation (min/avg/max) = 5.441 | 5.816 | 6.074 Mbytes
Step PotEng KinEng TotEng v_fx v_fy v_fz 
    1787   -1152449.4            0   -1152449.4 0.0056198239  0.022547758  0.023644696 
    1974   -1152449.4            0   -1152449.4 1.4386892e-06 -1.0335569e-06 -7.7542477e-06 
Loop time of 2.21589 on 104 procs for 187 steps with 288751 atoms

99.9% CPU use with 104 MPI tasks x 1 OpenMP threads

Minimization stats:
  Stopping criterion = energy tolerance
  Energy initial, next-to-last, final = 
     -1152449.35179088  -1152449.35391583  -1152449.35391583
  Force two-norm initial, final = 0.17936424 0.00014861247
  Force max component initial, final = 0.086954465 2.9400787e-05
  Final line search alpha, max atom move = 1.0000000 2.9400787e-05
  Iterations, force evaluations = 187 374

MPI task timing breakdown:
Section |  min time  |  avg time  |  max time  |%varavg| %total
---------------------------------------------------------------
Pair    | 0.57008    | 1.5709     | 2.0681     |  33.8 | 70.89
Neigh   | 0          | 0          | 0          |   0.0 |  0.00
Comm    | 0.038346   | 0.35877    | 1.0539     |  48.8 | 16.19
Output  | 0          | 0          | 0          |   0.0 |  0.00
Modify  | 2.2813e-05 | 0.0030915  | 0.0065478  |   2.6 |  0.14
Other   |            | 0.2831     |            |       | 12.78

Nlocal:        2776.45 ave        3949 max           0 min
Histogram: 8 4 4 0 4 12 8 0 28 36
Nghost:        3879.01 ave        5426 max         232 min
Histogram: 8 0 8 0 16 0 8 8 16 40
Neighs:        79213.5 ave      115088 max           0 min
Histogram: 8 4 4 0 10 6 8 8 24 32

Total # of neighbors = 8238204
Ave neighs/atom = 28.530478
Neighbor list builds = 0
Dangerous builds = 0
The dot product: -8.4141057517611e-08
Setting atom values ...
  1 settings made for x
  1 settings made for y
  1 settings made for z
Setting up cg style minimization ...
  Unit style    : metal
  Current step  : 1974
Per MPI rank memory allocation (min/avg/max) = 5.441 | 5.816 | 6.074 Mbytes
Step PotEng KinEng TotEng v_fx v_fy v_fz 
    1974   -1152449.3            0   -1152449.3  0.007272908  0.037672385  0.031137418 
    2000   -1152449.3            0   -1152449.3 -0.00024473438 0.00013058943 0.0010177042 
    2167   -1152449.3            0   -1152449.3 1.1624346e-05 -1.7259712e-06 -4.172581e-05 
Loop time of 2.294 on 104 procs for 193 steps with 288751 atoms

99.9% CPU use with 104 MPI tasks x 1 OpenMP threads

Minimization stats:
  Stopping criterion = energy tolerance
  Energy initial, next-to-last, final = 
     -1152449.33585489  -1152449.33815507  -1152449.33815507
  Force two-norm initial, final = 0.18284035 0.00013954431
  Force max component initial, final = 0.093515247 4.1725810e-05
  Final line search alpha, max atom move = 1.0000000 4.1725810e-05
  Iterations, force evaluations = 193 386

MPI task timing breakdown:
Section |  min time  |  avg time  |  max time  |%varavg| %total
---------------------------------------------------------------
Pair    | 0.58707    | 1.6327     | 2.1379     |  34.4 | 71.17
Neigh   | 0          | 0          | 0          |   0.0 |  0.00
Comm    | 0.044303   | 0.37598    | 1.1041     |  49.7 | 16.39
Output  | 0.0001557  | 0.00016331 | 0.00024123 |   0.0 |  0.01
Modify  | 2.3081e-05 | 0.0031895  | 0.0067668  |   2.7 |  0.14
Other   |            | 0.282      |            |       | 12.29

Nlocal:        2776.45 ave        3950 max           0 min
Histogram: 8 4 4 0 4 12 8 0 28 36
Nghost:        3879.07 ave        5424 max         232 min
Histogram: 8 0 8 0 16 0 8 8 16 40
Neighs:        79213.5 ave      115120 max           0 min
Histogram: 8 4 4 0 10 6 8 8 24 32

Total # of neighbors = 8238205
Ave neighs/atom = 28.530481
Neighbor list builds = 0
Dangerous builds = 0
The dot product: -4.06981578864334e-07
Setting atom values ...
  1 settings made for x
  1 settings made for y
  1 settings made for z
Setting up cg style minimization ...
  Unit style    : metal
  Current step  : 2167
Per MPI rank memory allocation (min/avg/max) = 5.441 | 5.816 | 6.074 Mbytes
Step PotEng KinEng TotEng v_fx v_fy v_fz 
    2167   -1152449.3            0   -1152449.3 0.0058189567  0.042138192  0.028529225 
    2383   -1152449.3            0   -1152449.3 -2.7865946e-06 1.4370654e-06 9.837762e-06 
Loop time of 2.50886 on 104 procs for 216 steps with 288751 atoms

99.9% CPU use with 104 MPI tasks x 1 OpenMP threads

Minimization stats:
  Stopping criterion = energy tolerance
  Energy initial, next-to-last, final = 
     -1152449.31902384  -1152449.32121133  -1152449.32121133
  Force two-norm initial, final = 0.18310148 6.7714027e-05
  Force max component initial, final = 0.099915485 1.3323487e-05
  Final line search alpha, max atom move = 1.0000000 1.3323487e-05
  Iterations, force evaluations = 216 432

MPI task timing breakdown:
Section |  min time  |  avg time  |  max time  |%varavg| %total
---------------------------------------------------------------
Pair    | 0.65407    | 1.8118     | 2.366      |  36.3 | 72.22
Neigh   | 0          | 0          | 0          |   0.0 |  0.00
Comm    | 0.03942    | 0.4088     | 1.219      |  53.4 | 16.29
Output  | 0          | 0          | 0          |   0.0 |  0.00
Modify  | 2.6471e-05 | 0.0035668  | 0.0076049  |   2.8 |  0.14
Other   |            | 0.2847     |            |       | 11.35

Nlocal:        2776.45 ave        3952 max           0 min
Histogram: 8 4 4 0 4 12 8 0 30 34
Nghost:        3879.11 ave        5424 max         232 min
Histogram: 8 0 8 0 16 0 8 8 16 40
Neighs:        79213.5 ave      115194 max           0 min
Histogram: 8 4 4 0 10 6 8 8 24 32

Total # of neighbors = 8238204
Ave neighs/atom = 28.530478
Neighbor list builds = 0
Dangerous builds = 0
The dot product: 1.01054064039255e-07
Setting atom values ...
  1 settings made for x
  1 settings made for y
  1 settings made for z
Setting up cg style minimization ...
  Unit style    : metal
  Current step  : 2383
Per MPI rank memory allocation (min/avg/max) = 5.441 | 5.816 | 6.074 Mbytes
Step PotEng KinEng TotEng v_fx v_fy v_fz 
    2383   -1152449.3            0   -1152449.3 0.0038651639  0.039017142  0.021898782 
    2571   -1152449.3            0   -1152449.3 -1.2131041e-05 2.6901188e-06 3.5049251e-05 
Loop time of 2.23608 on 104 procs for 188 steps with 288751 atoms

99.9% CPU use with 104 MPI tasks x 1 OpenMP threads

Minimization stats:
  Stopping criterion = energy tolerance
  Energy initial, next-to-last, final = 
     -1152449.30089223  -1152449.30295291  -1152449.30295291
  Force two-norm initial, final = 0.18109973 0.00015950173
  Force max component initial, final = 0.10521635 4.5088821e-05
  Final line search alpha, max atom move = 1.0000000 4.5088821e-05
  Iterations, force evaluations = 188 376

MPI task timing breakdown:
Section |  min time  |  avg time  |  max time  |%varavg| %total
---------------------------------------------------------------
Pair    | 0.57367    | 1.5898     | 2.0907     |  34.0 | 71.10
Neigh   | 0          | 0          | 0          |   0.0 |  0.00
Comm    | 0.033449   | 0.36604    | 1.091      |  49.2 | 16.37
Output  | 0          | 0          | 0          |   0.0 |  0.00
Modify  | 2.2718e-05 | 0.0031157  | 0.0066631  |   2.6 |  0.14
Other   |            | 0.2771     |            |       | 12.39

Nlocal:        2776.45 ave        3954 max           0 min
Histogram: 8 4 4 0 4 12 8 0 30 34
Nghost:        3879.13 ave        5424 max         232 min
Histogram: 8 0 8 0 16 0 8 8 16 40
Neighs:        79213.5 ave      115259 max           0 min
Histogram: 8 4 4 0 10 6 8 8 24 32

Total # of neighbors = 8238209
Ave neighs/atom = 28.530495
Neighbor list builds = 0
Dangerous builds = 0
The dot product: 2.9664281439303e-07
Setting atom values ...
  1 settings made for x
  1 settings made for y
  1 settings made for z
Setting up cg style minimization ...
  Unit style    : metal
  Current step  : 2571
Per MPI rank memory allocation (min/avg/max) = 5.441 | 5.816 | 6.074 Mbytes
Step PotEng KinEng TotEng v_fx v_fy v_fz 
    2571   -1152449.3            0   -1152449.3 0.0019656107  0.033482343  0.016904991 
    2761   -1152449.3            0   -1152449.3 -1.5918069e-05 1.1718077e-06 4.0771055e-05 
Loop time of 2.222 on 104 procs for 190 steps with 288751 atoms

99.9% CPU use with 104 MPI tasks x 1 OpenMP threads

Minimization stats:
  Stopping criterion = energy tolerance
  Energy initial, next-to-last, final = 
     -1152449.28142796  -1152449.28342797  -1152449.28342797
  Force two-norm initial, final = 0.1788558 0.00014234666
  Force max component initial, final = 0.10943991 4.0771055e-05
  Final line search alpha, max atom move = 1.0000000 4.0771055e-05
  Iterations, force evaluations = 190 380

MPI task timing breakdown:
Section |  min time  |  avg time  |  max time  |%varavg| %total
---------------------------------------------------------------
Pair    | 0.57649    | 1.593      | 2.0882     |  34.1 | 71.69
Neigh   | 0          | 0          | 0          |   0.0 |  0.00
Comm    | 0.035434   | 0.36112    | 1.0713     |  49.6 | 16.25
Output  | 0          | 0          | 0          |   0.0 |  0.00
Modify  | 2.2798e-05 | 0.0031401  | 0.0066597  |   2.6 |  0.14
Other   |            | 0.2648     |            |       | 11.92

Nlocal:        2776.45 ave        3954 max           0 min
Histogram: 8 4 4 0 4 12 8 0 30 34
Nghost:        3879.13 ave        5424 max         232 min
Histogram: 8 0 8 0 16 0 8 8 16 40
Neighs:        79213.6 ave      115261 max           0 min
Histogram: 8 4 4 0 10 6 8 8 24 32

Total # of neighbors = 8238212
Ave neighs/atom = 28.530506
Neighbor list builds = 0
Dangerous builds = 0
The dot product: 3.30396516186058e-07
Setting atom values ...
  1 settings made for x
  1 settings made for y
  1 settings made for z
Setting up cg style minimization ...
  Unit style    : metal
  Current step  : 2761
Per MPI rank memory allocation (min/avg/max) = 5.441 | 5.816 | 6.074 Mbytes
Step PotEng KinEng TotEng v_fx v_fy v_fz 
    2761   -1152449.3            0   -1152449.3 -0.00023527319  0.027820653  0.015147624 
    2947   -1152449.3            0   -1152449.3 6.8095494e-06 3.7226676e-07 -1.581106e-05 
Loop time of 2.20721 on 104 procs for 186 steps with 288751 atoms

99.9% CPU use with 104 MPI tasks x 1 OpenMP threads

Minimization stats:
  Stopping criterion = energy tolerance
  Energy initial, next-to-last, final = 
     -1152449.26076791  -1152449.26268516  -1152449.26268516
  Force two-norm initial, final = 0.17683207 0.00015445025
  Force max component initial, final = 0.11280021 2.0542196e-05
  Final line search alpha, max atom move = 1.0000000 2.0542196e-05
  Iterations, force evaluations = 186 372

MPI task timing breakdown:
Section |  min time  |  avg time  |  max time  |%varavg| %total
---------------------------------------------------------------
Pair    | 0.56467    | 1.5721     | 2.0838     |  33.9 | 71.22
Neigh   | 0          | 0          | 0          |   0.0 |  0.00
Comm    | 0.033028   | 0.36365    | 1.0809     |  49.0 | 16.48
Output  | 0          | 0          | 0          |   0.0 |  0.00
Modify  | 2.2081e-05 | 0.0030748  | 0.0065115  |   2.6 |  0.14
Other   |            | 0.2684     |            |       | 12.16

Nlocal:        2776.45 ave        3954 max           0 min
Histogram: 8 4 4 0 4 12 8 0 30 34
Nghost:        3879.13 ave        5424 max         232 min
Histogram: 8 0 8 0 16 0 8 8 16 40
Neighs:        79213.6 ave      115262 max           0 min
Histogram: 8 4 4 0 10 6 8 8 24 32

Total # of neighbors = 8238217
Ave neighs/atom = 28.530523
Neighbor list builds = 0
Dangerous builds = 0
The dot product: -1.23703545739892e-07
Setting atom values ...
  1 settings made for x
  1 settings made for y
  1 settings made for z
Setting up cg style minimization ...
  Unit style    : metal
  Current step  : 2947
Per MPI rank memory allocation (min/avg/max) = 5.441 | 5.816 | 6.074 Mbytes
Step PotEng KinEng TotEng v_fx v_fy v_fz 
    2947   -1152449.2            0   -1152449.2 -0.0019372616  0.022698707   0.01409763 
    3000   -1152449.2            0   -1152449.2 -9.1350725e-05 4.2049211e-05 0.0002202193 
    3124   -1152449.2            0   -1152449.2 -4.4290645e-06 2.6506604e-06 1.0941701e-05 
Loop time of 2.12196 on 104 procs for 177 steps with 288751 atoms

99.9% CPU use with 104 MPI tasks x 1 OpenMP threads

Minimization stats:
  Stopping criterion = energy tolerance
  Energy initial, next-to-last, final = 
     -1152449.23886025  -1152449.24074005  -1152449.24074005
  Force two-norm initial, final = 0.17520757 0.00020763727
  Force max component initial, final = 0.11584926 2.9494630e-05
  Final line search alpha, max atom move = 1.0000000 2.9494630e-05
  Iterations, force evaluations = 177 354

MPI task timing breakdown:
Section |  min time  |  avg time  |  max time  |%varavg| %total
---------------------------------------------------------------
Pair    | 0.53803    | 1.4938     | 1.9764     |  33.2 | 70.40
Neigh   | 0          | 0          | 0          |   0.0 |  0.00
Comm    | 0.03994    | 0.34558    | 1.0077     |  47.0 | 16.29
Output  | 0.00015425 | 0.00016325 | 0.00025311 |   0.0 |  0.01
Modify  | 2.1555e-05 | 0.0029341  | 0.0062345  |   2.5 |  0.14
Other   |            | 0.2795     |            |       | 13.17

Nlocal:        2776.45 ave        3954 max           0 min
Histogram: 8 4 4 0 4 12 8 0 30 34
Nghost:        3879.12 ave        5424 max         232 min
Histogram: 8 0 8 0 16 0 8 8 16 40
Neighs:        79213.6 ave      115266 max           0 min
Histogram: 8 4 4 0 10 6 8 8 24 32

Total # of neighbors = 8238212
Ave neighs/atom = 28.530506
Neighbor list builds = 0
Dangerous builds = 0
The dot product: 1.15856011116864e-07
Setting atom values ...
  1 settings made for x
  1 settings made for y
  1 settings made for z
Setting up cg style minimization ...
  Unit style    : metal
  Current step  : 3124
Per MPI rank memory allocation (min/avg/max) = 5.441 | 5.816 | 6.074 Mbytes
Step PotEng KinEng TotEng v_fx v_fy v_fz 
    3124   -1152449.2            0   -1152449.2 -0.0040679847  0.019872576  0.015643577 
    3333   -1152449.2            0   -1152449.2 8.3783329e-06 -4.3668211e-07 -1.7601809e-05 
Loop time of 2.47582 on 104 procs for 209 steps with 288751 atoms

99.9% CPU use with 104 MPI tasks x 1 OpenMP threads

Minimization stats:
  Stopping criterion = energy tolerance
  Energy initial, next-to-last, final = 
     -1152449.21580009  -1152449.21782005  -1152449.21782005
  Force two-norm initial, final = 0.1742451 9.3817047e-05
  Force max component initial, final = 0.11865112 1.7601809e-05
  Final line search alpha, max atom move = 1.0000000 1.7601809e-05
  Iterations, force evaluations = 209 418

MPI task timing breakdown:
Section |  min time  |  avg time  |  max time  |%varavg| %total
---------------------------------------------------------------
Pair    | 0.63629    | 1.7667     | 2.3276     |  35.8 | 71.36
Neigh   | 0          | 0          | 0          |   0.0 |  0.00
Comm    | 0.039446   | 0.40506    | 1.2066     |  52.1 | 16.36
Output  | 0          | 0          | 0          |   0.0 |  0.00
Modify  | 2.5857e-05 | 0.0034577  | 0.0073401  |   2.8 |  0.14
Other   |            | 0.3006     |            |       | 12.14

Nlocal:        2776.45 ave        3954 max           0 min
Histogram: 8 4 4 0 4 12 8 0 30 34
Nghost:        3879.12 ave        5424 max         232 min
Histogram: 8 0 8 0 16 0 8 8 16 40
Neighs:        79213.6 ave      115262 max           0 min
Histogram: 8 4 4 0 10 6 8 8 24 32

Total # of neighbors = 8238211
Ave neighs/atom = 28.530502
Neighbor list builds = 0
Dangerous builds = 0
The dot product: -2.13343281985212e-07
Setting atom values ...
  1 settings made for x
  1 settings made for y
  1 settings made for z
Setting up cg style minimization ...
  Unit style    : metal
  Current step  : 3333
Per MPI rank memory allocation (min/avg/max) = 5.441 | 5.816 | 6.074 Mbytes
Step PotEng KinEng TotEng v_fx v_fy v_fz 
    3333   -1152449.2            0   -1152449.2 -0.0085942592  0.021686118  0.023043679 
    3521   -1152449.2            0   -1152449.2 2.1972286e-05 3.1028949e-06 -4.1626268e-05 
Loop time of 2.20094 on 104 procs for 188 steps with 288751 atoms

99.9% CPU use with 104 MPI tasks x 1 OpenMP threads

Minimization stats:
  Stopping criterion = energy tolerance
  Energy initial, next-to-last, final = 
     -1152449.19206351  -1152449.19428352  -1152449.19428352
  Force two-norm initial, final = 0.17435807 0.00013286585
  Force max component initial, final = 0.1211792 4.1626268e-05
  Final line search alpha, max atom move = 1.0000000 4.1626268e-05
  Iterations, force evaluations = 188 376

MPI task timing breakdown:
Section |  min time  |  avg time  |  max time  |%varavg| %total
---------------------------------------------------------------
Pair    | 0.56873    | 1.5848     | 2.0722     |  34.1 | 72.00
Neigh   | 0          | 0          | 0          |   0.0 |  0.00
Comm    | 0.033558   | 0.35915    | 1.0704     |  49.9 | 16.32
Output  | 0          | 0          | 0          |   0.0 |  0.00
Modify  | 2.2486e-05 | 0.0031136  | 0.0066653  |   2.6 |  0.14
Other   |            | 0.2539     |            |       | 11.54

Nlocal:        2776.45 ave        3955 max           0 min
Histogram: 8 4 4 0 4 12 8 0 30 34
Nghost:        3879.09 ave        5424 max         232 min
Histogram: 8 0 8 0 16 0 8 8 16 40
Neighs:        79213.6 ave      115294 max           0 min
Histogram: 8 4 4 0 10 6 8 8 24 32

Total # of neighbors = 8238212
Ave neighs/atom = 28.530506
Neighbor list builds = 0
Dangerous builds = 0
The dot product: -6.22997941057201e-07
Setting atom values ...
  1 settings made for x
  1 settings made for y
  1 settings made for z
Setting up cg style minimization ...
  Unit style    : metal
  Current step  : 3521
Per MPI rank memory allocation (min/avg/max) = 5.441 | 5.816 | 6.074 Mbytes
Step PotEng KinEng TotEng v_fx v_fy v_fz 
    3521   -1152449.2            0   -1152449.2 -0.013433151  0.024943073  0.029680098 
    3717   -1152449.2            0   -1152449.2 -2.0691574e-06 -1.6448719e-06 3.3021771e-06 
Loop time of 2.31303 on 104 procs for 196 steps with 288751 atoms

99.9% CPU use with 104 MPI tasks x 1 OpenMP threads

Minimization stats:
  Stopping criterion = energy tolerance
  Energy initial, next-to-last, final = 
     -1152449.16788613  -1152449.17007168  -1152449.17007168
  Force two-norm initial, final = 0.17517134 0.00010506744
  Force max component initial, final = 0.12389968 7.7034563e-06
  Final line search alpha, max atom move = 1.0000000 7.7034563e-06
  Iterations, force evaluations = 196 392

MPI task timing breakdown:
Section |  min time  |  avg time  |  max time  |%varavg| %total
---------------------------------------------------------------
Pair    | 0.59582    | 1.6492     | 2.1761     |  34.6 | 71.30
Neigh   | 0          | 0          | 0          |   0.0 |  0.00
Comm    | 0.036094   | 0.37716    | 1.12       |  50.2 | 16.31
Output  | 0          | 0          | 0          |   0.0 |  0.00
Modify  | 2.3722e-05 | 0.003238   | 0.0069115  |   2.7 |  0.14
Other   |            | 0.2834     |            |       | 12.25

Nlocal:        2776.45 ave        3955 max           0 min
Histogram: 8 4 4 0 4 12 8 0 30 34
Nghost:        3879.05 ave        5424 max         232 min
Histogram: 8 0 8 0 16 0 8 8 16 40
Neighs:        79213.6 ave      115288 max           0 min
Histogram: 8 4 4 0 10 6 8 8 24 32

Total # of neighbors = 8238215
Ave neighs/atom = 28.530516
Neighbor list builds = 0
Dangerous builds = 0
The dot product: 4.07004504768548e-08
Setting atom values ...
  1 settings made for x
  1 settings made for y
  1 settings made for z
Setting up cg style minimization ...
  Unit style    : metal
  Current step  : 3717
Per MPI rank memory allocation (min/avg/max) = 5.441 | 5.816 | 6.074 Mbytes
Step PotEng KinEng TotEng v_fx v_fy v_fz 
    3717   -1152449.1            0   -1152449.1 -0.014506197  0.023756059  0.028165781 
    3908   -1152449.1            0   -1152449.1 1.4712548e-05 3.3482621e-07 -2.4174902e-05 
Loop time of 2.23222 on 104 procs for 191 steps with 288751 atoms

99.9% CPU use with 104 MPI tasks x 1 OpenMP threads

Minimization stats:
  Stopping criterion = energy tolerance
  Energy initial, next-to-last, final = 
     -1152449.14281885  -1152449.14487596  -1152449.14487596
  Force two-norm initial, final = 0.17467988 0.00012379976
  Force max component initial, final = 0.12694926 3.5578986e-05
  Final line search alpha, max atom move = 1.0000000 3.5578986e-05
  Iterations, force evaluations = 191 382

MPI task timing breakdown:
Section |  min time  |  avg time  |  max time  |%varavg| %total
---------------------------------------------------------------
Pair    | 0.57856    | 1.6054     | 2.1019     |  34.1 | 71.92
Neigh   | 0          | 0          | 0          |   0.0 |  0.00
Comm    | 0.035083   | 0.36279    | 1.078      |  49.9 | 16.25
Output  | 0          | 0          | 0          |   0.0 |  0.00
Modify  | 2.2641e-05 | 0.0031553  | 0.0067381  |   2.6 |  0.14
Other   |            | 0.2609     |            |       | 11.69

Nlocal:        2776.45 ave        3955 max           0 min
Histogram: 8 4 4 0 4 12 8 0 30 34
Nghost:        3879.02 ave        5424 max         232 min
Histogram: 8 0 8 0 16 0 8 8 16 40
Neighs:        79213.6 ave      115290 max           0 min
Histogram: 8 4 4 0 10 6 8 8 24 32

Total # of neighbors = 8238215
Ave neighs/atom = 28.530516
Neighbor list builds = 0
Dangerous builds = 0
The dot product: -3.62325879796423e-07
Setting atom values ...
  1 settings made for x
  1 settings made for y
  1 settings made for z
Setting up cg style minimization ...
  Unit style    : metal
  Current step  : 3908
Per MPI rank memory allocation (min/avg/max) = 5.441 | 5.816 | 6.074 Mbytes
Step PotEng KinEng TotEng v_fx v_fy v_fz 
    3908   -1152449.1            0   -1152449.1 -0.013515994  0.020298584   0.02371366 
    4000   -1152449.1            0   -1152449.1 0.00015198719 3.627476e-05 -0.00022927281 
    4110   -1152449.1            0   -1152449.1 5.4142685e-06 3.3538493e-06 -7.8760536e-06 
Loop time of 2.36446 on 104 procs for 202 steps with 288751 atoms

99.9% CPU use with 104 MPI tasks x 1 OpenMP threads

Minimization stats:
  Stopping criterion = energy tolerance
  Energy initial, next-to-last, final = 
     -1152449.11663774  -1152449.11850432  -1152449.11850432
  Force two-norm initial, final = 0.17382291 9.4573041e-05
  Force max component initial, final = 0.129916 1.8938117e-05
  Final line search alpha, max atom move = 1.0000000 1.8938117e-05
  Iterations, force evaluations = 202 404

MPI task timing breakdown:
Section |  min time  |  avg time  |  max time  |%varavg| %total
---------------------------------------------------------------
Pair    | 0.61355    | 1.7043     | 2.233      |  35.3 | 72.08
Neigh   | 0          | 0          | 0          |   0.0 |  0.00
Comm    | 0.039351   | 0.38796    | 1.1547     |  51.7 | 16.41
Output  | 0.00015639 | 0.00016536 | 0.00027045 |   0.0 |  0.01
Modify  | 2.4075e-05 | 0.0033384  | 0.0070895  |   2.7 |  0.14
Other   |            | 0.2686     |            |       | 11.36

Nlocal:        2776.45 ave        3955 max           0 min
Histogram: 8 4 4 0 4 12 8 0 30 34
Nghost:        3879.02 ave        5424 max         232 min
Histogram: 8 0 8 0 16 0 8 8 16 40
Neighs:        79213.6 ave      115285 max           0 min
Histogram: 8 4 4 0 10 6 8 8 24 32

Total # of neighbors = 8238213
Ave neighs/atom = 28.530509
Neighbor list builds = 0
Dangerous builds = 0
The dot product: -8.64554731526414e-08
Setting atom values ...
  1 settings made for x
  1 settings made for y
  1 settings made for z
Setting up cg style minimization ...
  Unit style    : metal
  Current step  : 4110
Per MPI rank memory allocation (min/avg/max) = 5.441 | 5.816 | 6.074 Mbytes
Step PotEng KinEng TotEng v_fx v_fy v_fz 
    4110   -1152449.1            0   -1152449.1 -0.010930759  0.015855006   0.01780996 
    4278   -1152449.1            0   -1152449.1 -1.2941504e-06 2.1975852e-06 2.1452774e-06 
Loop time of 1.98406 on 104 procs for 168 steps with 288751 atoms

99.9% CPU use with 104 MPI tasks x 1 OpenMP threads

Minimization stats:
  Stopping criterion = energy tolerance
  Energy initial, next-to-last, final = 
     -1152449.08911592  -1152449.09085122  -1152449.09085122
  Force two-norm initial, final = 0.17328682 0.00019473641
  Force max component initial, final = 0.13282757 1.8805546e-05
  Final line search alpha, max atom move = 1.0000000 1.8805546e-05
  Iterations, force evaluations = 168 336

MPI task timing breakdown:
Section |  min time  |  avg time  |  max time  |%varavg| %total
---------------------------------------------------------------
Pair    | 0.51294    | 1.4144     | 1.8562     |  31.9 | 71.29
Neigh   | 0          | 0          | 0          |   0.0 |  0.00
Comm    | 0.031267   | 0.32382    | 0.95527    |  46.5 | 16.32
Output  | 0          | 0          | 0          |   0.0 |  0.00
Modify  | 2.0162e-05 | 0.0027774  | 0.0058795  |   2.5 |  0.14
Other   |            | 0.2431     |            |       | 12.25

Nlocal:        2776.45 ave        3955 max           0 min
Histogram: 8 4 4 0 4 12 8 0 30 34
Nghost:        3879.01 ave        5424 max         232 min
Histogram: 8 0 8 0 16 0 8 8 16 40
Neighs:        79213.6 ave      115312 max           0 min
Histogram: 8 4 4 0 10 6 8 8 24 32

Total # of neighbors = 8238213
Ave neighs/atom = 28.530509
Neighbor list builds = 0
Dangerous builds = 0
The dot product: 3.20264139298294e-08
Setting atom values ...
  1 settings made for x
  1 settings made for y
  1 settings made for z
Setting up cg style minimization ...
  Unit style    : metal
  Current step  : 4278
Per MPI rank memory allocation (min/avg/max) = 5.441 | 5.816 | 6.074 Mbytes
Step PotEng KinEng TotEng v_fx v_fy v_fz 
    4278   -1152449.1            0   -1152449.1 -0.0080706308  0.011376908  0.012430006 
    4449   -1152449.1            0   -1152449.1 -2.6378604e-05 -1.8060901e-06 3.6868906e-05 
Loop time of 2.05915 on 104 procs for 171 steps with 288751 atoms

99.9% CPU use with 104 MPI tasks x 1 OpenMP threads

Minimization stats:
  Stopping criterion = energy tolerance
  Energy initial, next-to-last, final = 
     -1152449.06025245  -1152449.06191053  -1152449.06191053
  Force two-norm initial, final = 0.17332856 0.00018283388
  Force max component initial, final = 0.13549118 4.5762394e-05
  Final line search alpha, max atom move = 1.0000000 4.5762394e-05
  Iterations, force evaluations = 171 342

MPI task timing breakdown:
Section |  min time  |  avg time  |  max time  |%varavg| %total
---------------------------------------------------------------
Pair    | 0.52252    | 1.4568     | 1.9185     |  32.5 | 70.75
Neigh   | 0          | 0          | 0          |   0.0 |  0.00
Comm    | 0.032147   | 0.33676    | 0.9897     |  46.6 | 16.35
Output  | 0          | 0          | 0          |   0.0 |  0.00
Modify  | 2.0638e-05 | 0.0028302  | 0.0060252  |   2.5 |  0.14
Other   |            | 0.2627     |            |       | 12.76

Nlocal:        2776.45 ave        3956 max           0 min
Histogram: 8 4 4 0 4 12 8 0 30 34
Nghost:        3879.01 ave        5425 max         232 min
Histogram: 8 0 8 0 16 0 8 8 16 40
Neighs:        79213.6 ave      115348 max           0 min
Histogram: 8 4 4 0 10 6 8 8 24 32

Total # of neighbors = 8238214
Ave neighs/atom = 28.530512
Neighbor list builds = 0
Dangerous builds = 0
The dot product: 3.45276241330711e-07
Setting atom values ...
  1 settings made for x
  1 settings made for y
  1 settings made for z
Setting up cg style minimization ...
  Unit style    : metal
  Current step  : 4449
Per MPI rank memory allocation (min/avg/max) = 5.441 | 5.816 | 6.074 Mbytes
Step PotEng KinEng TotEng v_fx v_fy v_fz 
    4449     -1152449            0     -1152449 -0.0055502813 0.0074725488  0.008175798 
    4628     -1152449            0     -1152449 -2.5378422e-05 -5.769559e-06 3.3998576e-05 
Loop time of 2.09265 on 104 procs for 179 steps with 288751 atoms

99.9% CPU use with 104 MPI tasks x 1 OpenMP threads

Minimization stats:
  Stopping criterion = energy tolerance
  Energy initial, next-to-last, final = 
     -1152449.03009715  -1152449.03173816  -1152449.03173816
  Force two-norm initial, final = 0.17386545 0.00016970908
  Force max component initial, final = 0.13791012 4.2546434e-05
  Final line search alpha, max atom move = 1.0000000 4.2546434e-05
  Iterations, force evaluations = 179 358

MPI task timing breakdown:
Section |  min time  |  avg time  |  max time  |%varavg| %total
---------------------------------------------------------------
Pair    | 0.54351    | 1.5028     | 1.9714     |  33.1 | 71.81
Neigh   | 0          | 0          | 0          |   0.0 |  0.00
Comm    | 0.033525   | 0.34032    | 1.0078     |  48.4 | 16.26
Output  | 0          | 0          | 0          |   0.0 |  0.00
Modify  | 2.157e-05  | 0.0029587  | 0.0062663  |   2.6 |  0.14
Other   |            | 0.2465     |            |       | 11.78

Nlocal:        2776.45 ave        3957 max           0 min
Histogram: 8 4 4 0 4 12 8 2 28 34
Nghost:        3878.97 ave        5425 max         232 min
Histogram: 8 0 8 0 16 0 8 8 16 40
Neighs:        79213.6 ave      115383 max           0 min
Histogram: 8 4 4 0 10 6 8 8 24 32

Total # of neighbors = 8238218
Ave neighs/atom = 28.530526
Neighbor list builds = 0
Dangerous builds = 0
The dot product: 2.77473102203988e-07
Setting atom values ...
  1 settings made for x
  1 settings made for y
  1 settings made for z
Setting up cg style minimization ...
  Unit style    : metal
  Current step  : 4628
Per MPI rank memory allocation (min/avg/max) = 5.441 | 5.816 | 6.074 Mbytes
Step PotEng KinEng TotEng v_fx v_fy v_fz 
    4628     -1152449            0     -1152449 -0.0036639125 0.0045616833 0.0051969991 
    4805     -1152449            0     -1152449 -1.6470533e-05 -6.6921083e-06 2.1258223e-05 
Loop time of 2.13683 on 104 procs for 177 steps with 288751 atoms

99.9% CPU use with 104 MPI tasks x 1 OpenMP threads

Minimization stats:
  Stopping criterion = energy tolerance
  Energy initial, next-to-last, final = 
     -1152448.99880025  -1152449.00044887  -1152449.00044887
  Force two-norm initial, final = 0.17458006 0.00018718589
  Force max component initial, final = 0.13998947 4.2037145e-05
  Final line search alpha, max atom move = 1.0000000 4.2037145e-05
  Iterations, force evaluations = 177 354

MPI task timing breakdown:
Section |  min time  |  avg time  |  max time  |%varavg| %total
---------------------------------------------------------------
Pair    | 0.5377     | 1.4963     | 2.0119     |  33.2 | 70.02
Neigh   | 0          | 0          | 0          |   0.0 |  0.00
Comm    | 0.037194   | 0.35022    | 1.0184     |  47.1 | 16.39
Output  | 0          | 0          | 0          |   0.0 |  0.00
Modify  | 2.1245e-05 | 0.0029191  | 0.0061856  |   2.5 |  0.14
Other   |            | 0.2874     |            |       | 13.45

Nlocal:        2776.45 ave        3957 max           0 min
Histogram: 8 4 4 0 4 12 8 2 28 34
Nghost:        3878.92 ave        5425 max         232 min
Histogram: 8 0 8 0 16 0 8 8 16 40
Neighs:        79213.6 ave      115378 max           0 min
Histogram: 8 4 4 0 10 6 8 8 24 32

Total # of neighbors = 8238216
Ave neighs/atom = 28.530519
Neighbor list builds = 0
Dangerous builds = 0
The dot product: 1.55339313663492e-07
Setting atom values ...
  1 settings made for x
  1 settings made for y
  1 settings made for z
Setting up cg style minimization ...
  Unit style    : metal
  Current step  : 4805
Per MPI rank memory allocation (min/avg/max) = 5.441 | 5.816 | 6.074 Mbytes
Step PotEng KinEng TotEng v_fx v_fy v_fz 
    4805     -1152449            0     -1152449 -0.0018833522 0.0025482393 0.0026179243 
    4994     -1152449            0     -1152449 -1.9150736e-05 -2.6958877e-06 2.453723e-05 
Loop time of 2.25272 on 104 procs for 189 steps with 288751 atoms

99.9% CPU use with 104 MPI tasks x 1 OpenMP threads

Minimization stats:
  Stopping criterion = energy tolerance
  Energy initial, next-to-last, final = 
     -1152448.96644305  -1152448.96810145  -1152448.96810145
  Force two-norm initial, final = 0.1754399 0.00012507052
  Force max component initial, final = 0.14191289 2.4537230e-05
  Final line search alpha, max atom move = 1.0000000 2.4537230e-05
  Iterations, force evaluations = 189 378

MPI task timing breakdown:
Section |  min time  |  avg time  |  max time  |%varavg| %total
---------------------------------------------------------------
Pair    | 0.57378    | 1.5936     | 2.091      |  34.1 | 70.74
Neigh   | 0          | 0          | 0          |   0.0 |  0.00
Comm    | 0.034109   | 0.36504    | 1.0839     |  49.5 | 16.20
Output  | 0          | 0          | 0          |   0.0 |  0.00
Modify  | 2.2919e-05 | 0.0031311  | 0.0066384  |   2.6 |  0.14
Other   |            | 0.291      |            |       | 12.92

Nlocal:        2776.45 ave        3957 max           0 min
Histogram: 8 4 4 0 4 12 8 2 28 34
Nghost:        3878.90 ave        5425 max         232 min
Histogram: 8 0 8 0 16 0 8 8 16 40
Neighs:        79213.6 ave      115380 max           0 min
Histogram: 8 4 4 0 10 6 8 8 24 32

Total # of neighbors = 8238218
Ave neighs/atom = 28.530526
Neighbor list builds = 0
Dangerous builds = 0
The dot product: 1.71487504952714e-07
Setting atom values ...
  1 settings made for x
  1 settings made for y
  1 settings made for z
Setting up cg style minimization ...
  Unit style    : metal
  Current step  : 4994
Per MPI rank memory allocation (min/avg/max) = 5.441 | 5.816 | 6.074 Mbytes
Step PotEng KinEng TotEng v_fx v_fy v_fz 
    4994   -1152448.9            0   -1152448.9 -0.00037091636 0.0013258738 0.00056219646 
    5000   -1152448.9            0   -1152448.9 0.0042539504 -0.0019214518 -0.0055165918 
    5229   -1152448.9            0   -1152448.9 -2.0287811e-06 -5.3956091e-07 2.5289119e-06 
Loop time of 2.7656 on 104 procs for 235 steps with 288751 atoms

99.9% CPU use with 104 MPI tasks x 1 OpenMP threads

Minimization stats:
  Stopping criterion = energy tolerance
  Energy initial, next-to-last, final = 
     -1152448.93312156  -1152448.93483651  -1152448.93483651
  Force two-norm initial, final = 0.17630833 3.4252874e-05
  Force max component initial, final = 0.14364187 2.5289119e-06
  Final line search alpha, max atom move = 1.0000000 2.5289119e-06
  Iterations, force evaluations = 235 470

MPI task timing breakdown:
Section |  min time  |  avg time  |  max time  |%varavg| %total
---------------------------------------------------------------
Pair    | 0.71431    | 1.9823     | 2.6051     |  38.0 | 71.68
Neigh   | 0          | 0          | 0          |   0.0 |  0.00
Comm    | 0.049768   | 0.45445    | 1.3431     |  55.3 | 16.43
Output  | 0.00014333 | 0.00015002 | 0.0002063  |   0.0 |  0.01
Modify  | 2.8158e-05 | 0.0038791  | 0.0083034  |   2.9 |  0.14
Other   |            | 0.3248     |            |       | 11.75

Nlocal:        2776.45 ave        3957 max           0 min
Histogram: 8 4 4 0 4 12 8 2 28 34
Nghost:        3878.89 ave        5425 max         232 min
Histogram: 8 0 8 0 16 0 8 8 16 40
Neighs:        79213.6 ave      115378 max           0 min
Histogram: 8 4 4 0 10 6 8 8 24 32

Total # of neighbors = 8238215
Ave neighs/atom = 28.530516
Neighbor list builds = 0
Dangerous builds = 0
The dot product: 1.68635073202613e-08
Setting atom values ...
  1 settings made for x
  1 settings made for y
  1 settings made for z
Setting up cg style minimization ...
  Unit style    : metal
  Current step  : 5229
Per MPI rank memory allocation (min/avg/max) = 5.441 | 5.816 | 6.074 Mbytes
Step PotEng KinEng TotEng v_fx v_fy v_fz 
    5229   -1152448.9            0   -1152448.9 0.0010206639 0.00066891389 -0.0012215532 
    5428   -1152448.9            0   -1152448.9 -1.1663401e-05 -1.5430637e-06 1.437708e-05 
Loop time of 2.33439 on 104 procs for 199 steps with 288751 atoms

99.9% CPU use with 104 MPI tasks x 1 OpenMP threads

Minimization stats:
  Stopping criterion = energy tolerance
  Energy initial, next-to-last, final = 
     -1152448.89898462  -1152448.90062283  -1152448.90062283
  Force two-norm initial, final = 0.17703908 9.6337817e-05
  Force max component initial, final = 0.14507483 1.4377080e-05
  Final line search alpha, max atom move = 1.0000000 1.4377080e-05
  Iterations, force evaluations = 199 398

MPI task timing breakdown:
Section |  min time  |  avg time  |  max time  |%varavg| %total
---------------------------------------------------------------
Pair    | 0.60545    | 1.6743     | 2.2019     |  35.0 | 71.72
Neigh   | 0          | 0          | 0          |   0.0 |  0.00
Comm    | 0.036347   | 0.37935    | 1.1247     |  51.1 | 16.25
Output  | 0          | 0          | 0          |   0.0 |  0.00
Modify  | 2.3903e-05 | 0.0032895  | 0.007002   |   2.7 |  0.14
Other   |            | 0.2774     |            |       | 11.89

Nlocal:        2776.45 ave        3957 max           0 min
Histogram: 8 4 4 0 4 12 8 2 28 34
Nghost:        3878.87 ave        5425 max         232 min
Histogram: 8 0 8 0 16 0 8 8 16 40
Neighs:        79213.6 ave      115377 max           0 min
Histogram: 8 4 4 0 10 6 8 8 24 32

Total # of neighbors = 8238214
Ave neighs/atom = 28.530512
Neighbor list builds = 0
Dangerous builds = 0
The dot product: 8.10244312762487e-08
Setting atom values ...
  1 settings made for x
  1 settings made for y
  1 settings made for z
Setting up cg style minimization ...
  Unit style    : metal
  Current step  : 5428
Per MPI rank memory allocation (min/avg/max) = 5.441 | 5.816 | 6.074 Mbytes
Step PotEng KinEng TotEng v_fx v_fy v_fz 
    5428   -1152448.9            0   -1152448.9 0.0034963765 0.00028012038 -0.0042578559 
    5674   -1152448.9            0   -1152448.9 1.978171e-07 -5.9233635e-08 -2.4599786e-07 
Loop time of 2.91931 on 104 procs for 246 steps with 288751 atoms

99.9% CPU use with 104 MPI tasks x 1 OpenMP threads

Minimization stats:
  Stopping criterion = energy tolerance
  Energy initial, next-to-last, final = 
      -1152448.8637451  -1152448.86535505  -1152448.86535505
  Force two-norm initial, final = 0.17826375 1.6047425e-05
  Force max component initial, final = 0.14675298 7.6909557e-07
  Final line search alpha, max atom move = 1.0000000 7.6909557e-07
  Iterations, force evaluations = 246 492

MPI task timing breakdown:
Section |  min time  |  avg time  |  max time  |%varavg| %total
---------------------------------------------------------------
Pair    | 0.74849    | 2.076      | 2.7366     |  38.9 | 71.11
Neigh   | 0          | 0          | 0          |   0.0 |  0.00
Comm    | 0.056952   | 0.47721    | 1.4178     |  56.3 | 16.35
Output  | 0          | 0          | 0          |   0.0 |  0.00
Modify  | 3.0101e-05 | 0.0040658  | 0.008597   |   3.0 |  0.14
Other   |            | 0.362      |            |       | 12.40

Nlocal:        2776.45 ave        3956 max           0 min
Histogram: 8 4 4 0 4 12 8 0 30 34
Nghost:        3878.88 ave        5425 max         232 min
Histogram: 8 0 8 0 16 0 8 8 16 40
Neighs:        79213.6 ave      115344 max           0 min
Histogram: 8 4 4 0 10 6 8 8 24 32

Total # of neighbors = 8238214
Ave neighs/atom = 28.530512
Neighbor list builds = 0
Dangerous builds = 0
The dot product: -1.10956141313571e-09
Setting atom values ...
  1 settings made for x
  1 settings made for y
  1 settings made for z
Setting up cg style minimization ...
  Unit style    : metal
  Current step  : 5674
Per MPI rank memory allocation (min/avg/max) = 5.441 | 5.816 | 6.074 Mbytes
Step PotEng KinEng TotEng v_fx v_fy v_fz 
    5674   -1152448.8            0   -1152448.8 0.0060371472 0.00022771166 -0.007283053 
    5881   -1152448.8            0   -1152448.8 -5.9590679e-06 -1.9416722e-06 7.0722417e-06 
Loop time of 2.42795 on 104 procs for 207 steps with 288751 atoms

99.9% CPU use with 104 MPI tasks x 1 OpenMP threads

Minimization stats:
  Stopping criterion = energy tolerance
  Energy initial, next-to-last, final = 
     -1152448.82743215  -1152448.82914513  -1152448.82914513
  Force two-norm initial, final = 0.17957927 8.9326509e-05
  Force max component initial, final = 0.14838076 1.4228453e-05
  Final line search alpha, max atom move = 1.0000000 1.4228453e-05
  Iterations, force evaluations = 207 414

MPI task timing breakdown:
Section |  min time  |  avg time  |  max time  |%varavg| %total
---------------------------------------------------------------
Pair    | 0.62807    | 1.7354     | 2.2728     |  35.6 | 71.48
Neigh   | 0          | 0          | 0          |   0.0 |  0.00
Comm    | 0.038967   | 0.392      | 1.1744     |  52.1 | 16.15
Output  | 0          | 0          | 0          |   0.0 |  0.00
Modify  | 2.4678e-05 | 0.0034199  | 0.0072445  |   2.7 |  0.14
Other   |            | 0.2971     |            |       | 12.24

Nlocal:        2776.45 ave        3956 max           0 min
Histogram: 8 4 4 0 4 12 8 0 30 34
Nghost:        3878.83 ave        5425 max         232 min
Histogram: 8 0 8 0 16 0 8 8 16 40
Neighs:        79213.6 ave      115346 max           0 min
Histogram: 8 4 4 0 10 6 8 8 24 32

Total # of neighbors = 8238216
Ave neighs/atom = 28.530519
Neighbor list builds = 0
Dangerous builds = 0
The dot product: 3.06012904232128e-08
Setting atom values ...
  1 settings made for x
  1 settings made for y
  1 settings made for z
Setting up cg style minimization ...
  Unit style    : metal
  Current step  : 5881
Per MPI rank memory allocation (min/avg/max) = 5.441 | 5.816 | 6.074 Mbytes
Step PotEng KinEng TotEng v_fx v_fy v_fz 
    5881   -1152448.8            0   -1152448.8 0.0078025018 0.00047531606 -0.0093031329 
    6000   -1152448.8            0   -1152448.8 -3.7357191e-05 -2.3312166e-05 4.3103383e-05 
    6116   -1152448.8            0   -1152448.8 7.3630227e-06 1.2870666e-06 -8.7217867e-06 
Loop time of 2.79619 on 104 procs for 235 steps with 288751 atoms

99.9% CPU use with 104 MPI tasks x 1 OpenMP threads

Minimization stats:
  Stopping criterion = energy tolerance
  Energy initial, next-to-last, final = 
     -1152448.79040645  -1152448.79203015  -1152448.79203015
  Force two-norm initial, final = 0.18013714 3.3458180e-05
  Force max component initial, final = 0.14940267 8.7217867e-06
  Final line search alpha, max atom move = 1.0000000 8.7217867e-06
  Iterations, force evaluations = 235 470

MPI task timing breakdown:
Section |  min time  |  avg time  |  max time  |%varavg| %total
---------------------------------------------------------------
Pair    | 0.71424    | 1.9882     | 2.6377     |  38.2 | 71.11
Neigh   | 0          | 0          | 0          |   0.0 |  0.00
Comm    | 0.045204   | 0.45868    | 1.3535     |  55.3 | 16.40
Output  | 0.0002441  | 0.00025425 | 0.00037348 |   0.0 |  0.01
Modify  | 2.8e-05    | 0.0038774  | 0.0083095  |   2.9 |  0.14
Other   |            | 0.3451     |            |       | 12.34

Nlocal:        2776.45 ave        3955 max           0 min
Histogram: 8 4 4 0 4 12 8 0 30 34
Nghost:        3878.84 ave        5425 max         232 min
Histogram: 8 0 8 0 16 0 8 8 16 40
Neighs:        79213.6 ave      115320 max           0 min
Histogram: 8 4 4 0 10 6 8 8 24 32

Total # of neighbors = 8238213
Ave neighs/atom = 28.530509
Neighbor list builds = 0
Dangerous builds = 0
The dot product: -2.59542152375528e-08
Setting atom values ...
  1 settings made for x
  1 settings made for y
  1 settings made for z
Setting up cg style minimization ...
  Unit style    : metal
  Current step  : 6116
Per MPI rank memory allocation (min/avg/max) = 5.441 | 5.816 | 6.074 Mbytes
Step PotEng KinEng TotEng v_fx v_fy v_fz 
    6116   -1152448.8            0   -1152448.8  0.010834694  0.001031953  -0.01280333 
    6281   -1152448.8            0   -1152448.8 2.8605808e-05 7.4731555e-06 -3.3474781e-05 
Loop time of 1.93903 on 104 procs for 165 steps with 288751 atoms

99.9% CPU use with 104 MPI tasks x 1 OpenMP threads

Minimization stats:
  Stopping criterion = energy tolerance
  Energy initial, next-to-last, final = 
     -1152448.75227441  -1152448.75390334  -1152448.75390334
  Force two-norm initial, final = 0.18118792 0.000284942
  Force max component initial, final = 0.15078936 5.4075984e-05
  Final line search alpha, max atom move = 1.0000000 5.4075984e-05
  Iterations, force evaluations = 165 330

MPI task timing breakdown:
Section |  min time  |  avg time  |  max time  |%varavg| %total
---------------------------------------------------------------
Pair    | 0.50033    | 1.3861     | 1.8294     |  31.9 | 71.48
Neigh   | 0          | 0          | 0          |   0.0 |  0.00
Comm    | 0.031274   | 0.31596    | 0.9311     |  46.2 | 16.29
Output  | 0          | 0          | 0          |   0.0 |  0.00
Modify  | 1.9842e-05 | 0.0027289  | 0.0057833  |   2.4 |  0.14
Other   |            | 0.2343     |            |       | 12.08

Nlocal:        2776.45 ave        3954 max           0 min
Histogram: 8 4 4 0 4 12 8 0 30 34
Nghost:        3878.84 ave        5425 max         232 min
Histogram: 8 0 8 0 16 0 8 8 16 40
Neighs:        79213.6 ave      115288 max           0 min
Histogram: 8 4 4 0 10 6 8 8 24 32

Total # of neighbors = 8238212
Ave neighs/atom = 28.530506
Neighbor list builds = 0
Dangerous builds = 0
The dot product: -6.06761723068712e-08
Setting atom values ...
  1 settings made for x
  1 settings made for y
  1 settings made for z
Setting up cg style minimization ...
  Unit style    : metal
  Current step  : 6281
Per MPI rank memory allocation (min/avg/max) = 5.441 | 5.816 | 6.074 Mbytes
Step PotEng KinEng TotEng v_fx v_fy v_fz 
    6281   -1152448.7            0   -1152448.7   0.01369482 0.0018896711 -0.016077915 
    6454   -1152448.7            0   -1152448.7 3.7698984e-05 6.4287826e-06 -4.4172863e-05 
Loop time of 2.05887 on 104 procs for 173 steps with 288751 atoms

99.9% CPU use with 104 MPI tasks x 1 OpenMP threads

Minimization stats:
  Stopping criterion = energy tolerance
  Energy initial, next-to-last, final = 
     -1152448.71320951  -1152448.71499957  -1152448.71499957
  Force two-norm initial, final = 0.18174157 0.00016311201
  Force max component initial, final = 0.15193991 4.4172863e-05
  Final line search alpha, max atom move = 1.0000000 4.4172863e-05
  Iterations, force evaluations = 173 346

MPI task timing breakdown:
Section |  min time  |  avg time  |  max time  |%varavg| %total
---------------------------------------------------------------
Pair    | 0.52719    | 1.4646     | 1.9254     |  32.7 | 71.14
Neigh   | 0          | 0          | 0          |   0.0 |  0.00
Comm    | 0.033603   | 0.33685    | 0.99436    |  47.2 | 16.36
Output  | 0          | 0          | 0          |   0.0 |  0.00
Modify  | 2.1527e-05 | 0.0028643  | 0.0060697  |   2.5 |  0.14
Other   |            | 0.2545     |            |       | 12.36

Nlocal:        2776.45 ave        3953 max           0 min
Histogram: 8 4 4 0 4 12 8 0 30 34
Nghost:        3878.81 ave        5425 max         232 min
Histogram: 8 0 8 0 16 0 8 8 16 40
Neighs:        79213.6 ave      115256 max           0 min
Histogram: 8 4 4 0 10 6 8 8 24 32

Total # of neighbors = 8238212
Ave neighs/atom = 28.530506
Neighbor list builds = 0
Dangerous builds = 0
The dot product: -5.28531984574941e-08
Setting atom values ...
  1 settings made for x
  1 settings made for y
  1 settings made for z
Setting up cg style minimization ...
  Unit style    : metal
  Current step  : 6454
Per MPI rank memory allocation (min/avg/max) = 5.441 | 5.816 | 6.074 Mbytes
Step PotEng KinEng TotEng v_fx v_fy v_fz 
    6454   -1152448.7            0   -1152448.7  0.015617018 0.0025560569 -0.018257886 
    6593   -1152448.7            0   -1152448.7 -1.074456e-05 -4.2601652e-06 1.2381092e-05 
Loop time of 1.62167 on 104 procs for 139 steps with 288751 atoms

99.9% CPU use with 104 MPI tasks x 1 OpenMP threads

Minimization stats:
  Stopping criterion = energy tolerance
  Energy initial, next-to-last, final = 
     -1152448.67383496  -1152448.67557936  -1152448.67557936
  Force two-norm initial, final = 0.18061537 0.00023184698
  Force max component initial, final = 0.15193553 1.2381092e-05
  Final line search alpha, max atom move = 1.0000000 1.2381092e-05
  Iterations, force evaluations = 139 278

MPI task timing breakdown:
Section |  min time  |  avg time  |  max time  |%varavg| %total
---------------------------------------------------------------
Pair    | 0.42215    | 1.1696     | 1.5301     |  29.2 | 72.13
Neigh   | 0          | 0          | 0          |   0.0 |  0.00
Comm    | 0.026007   | 0.26461    | 0.78961    |  42.8 | 16.32
Output  | 0          | 0          | 0          |   0.0 |  0.00
Modify  | 1.7461e-05 | 0.0023005  | 0.0048948  |   2.3 |  0.14
Other   |            | 0.1851     |            |       | 11.42

Nlocal:        2776.45 ave        3953 max           0 min
Histogram: 8 4 4 0 4 12 8 0 30 34
Nghost:        3878.75 ave        5425 max         232 min
Histogram: 8 0 8 0 16 0 8 8 16 40
Neighs:        79213.5 ave      115259 max           0 min
Histogram: 8 4 4 0 10 6 8 8 24 32

Total # of neighbors = 8238205
Ave neighs/atom = 28.530481
Neighbor list builds = 0
Dangerous builds = 0
The dot product: -4.67966835269655e-10
Setting atom values ...
  1 settings made for x
  1 settings made for y
  1 settings made for z
Setting up cg style minimization ...
  Unit style    : metal
  Current step  : 6593
Per MPI rank memory allocation (min/avg/max) = 5.441 | 5.816 | 6.074 Mbytes
Step PotEng KinEng TotEng v_fx v_fy v_fz 
    6593   -1152448.6            0   -1152448.6   0.01829548 0.0037636255 -0.021343806 
    6919   -1152448.6            0   -1152448.6 -3.3390296e-06 -5.1075545e-07 3.9084846e-06 
Loop time of 3.87847 on 104 procs for 326 steps with 288751 atoms

99.9% CPU use with 104 MPI tasks x 1 OpenMP threads

Minimization stats:
  Stopping criterion = energy tolerance
  Energy initial, next-to-last, final = 
     -1152448.63408385  -1152448.63607079  -1152448.63607079
  Force two-norm initial, final = 0.17965457 1.5428033e-05
  Force max component initial, final = 0.15169572 3.9503936e-06
  Final line search alpha, max atom move = 1.0000000 3.9503936e-06
  Iterations, force evaluations = 326 652

MPI task timing breakdown:
Section |  min time  |  avg time  |  max time  |%varavg| %total
---------------------------------------------------------------
Pair    | 0.9921     | 2.7473     | 3.6605     |  44.8 | 70.83
Neigh   | 0          | 0          | 0          |   0.0 |  0.00
Comm    | 0.057673   | 0.63706    | 1.8786     |  64.1 | 16.43
Output  | 0          | 0          | 0          |   0.0 |  0.00
Modify  | 3.885e-05  | 0.0053861  | 0.01143    |   3.4 |  0.14
Other   |            | 0.4888     |            |       | 12.60

Nlocal:        2776.45 ave        3953 max           0 min
Histogram: 8 4 4 0 4 12 8 0 30 34
Nghost:        3878.73 ave        5425 max         232 min
Histogram: 8 0 8 0 16 0 8 8 16 40
Neighs:        79213.5 ave      115255 max           0 min
Histogram: 8 4 4 0 10 6 8 8 24 32

Total # of neighbors = 8238200
Ave neighs/atom = 28.530464
Neighbor list builds = 0
Dangerous builds = 0
The dot product: -2.93796387413035e-09
Setting atom values ...
  1 settings made for x
  1 settings made for y
  1 settings made for z
Setting up cg style minimization ...
  Unit style    : metal
  Current step  : 6919
Per MPI rank memory allocation (min/avg/max) = 5.441 | 5.816 | 6.074 Mbytes
Step PotEng KinEng TotEng v_fx v_fy v_fz 
    6919   -1152448.6            0   -1152448.6  0.020961792  0.001418794 -0.024714687 
    7000   -1152448.6            0   -1152448.6 -0.00026358204 -3.1891141e-05 0.00030967915 
    7115   -1152448.6            0   -1152448.6 -2.9036911e-05 -5.6508291e-06 3.394876e-05 
Loop time of 2.30506 on 104 procs for 196 steps with 288751 atoms

99.9% CPU use with 104 MPI tasks x 1 OpenMP threads

Minimization stats:
  Stopping criterion = energy tolerance
  Energy initial, next-to-last, final = 
     -1152448.59530667  -1152448.59745093  -1152448.59745093
  Force two-norm initial, final = 0.17780149 0.0001757926
  Force max component initial, final = 0.14921675 3.9157490e-05
  Final line search alpha, max atom move = 1.0000000 3.9157490e-05
  Iterations, force evaluations = 196 392

MPI task timing breakdown:
Section |  min time  |  avg time  |  max time  |%varavg| %total
---------------------------------------------------------------
Pair    | 0.59299    | 1.6493     | 2.1642     |  34.8 | 71.55
Neigh   | 0          | 0          | 0          |   0.0 |  0.00
Comm    | 0.03514    | 0.37509    | 1.1085     |  50.5 | 16.27
Output  | 0.00018748 | 0.00019556 | 0.00030376 |   0.0 |  0.01
Modify  | 2.38e-05   | 0.0032434  | 0.0069162  |   2.7 |  0.14
Other   |            | 0.2772     |            |       | 12.02

Nlocal:        2776.45 ave        3952 max           0 min
Histogram: 8 4 4 0 4 12 8 0 30 34
Nghost:        3878.73 ave        5425 max         232 min
Histogram: 8 0 8 0 16 0 8 8 16 40
Neighs:        79213.5 ave      115208 max           0 min
Histogram: 8 4 4 0 10 6 8 8 24 32

Total # of neighbors = 8238205
Ave neighs/atom = 28.530481
Neighbor list builds = 0
Dangerous builds = 0
The dot product: -1.64897945371949e-08
Setting atom values ...
  1 settings made for x
  1 settings made for y
  1 settings made for z
Setting up cg style minimization ...
  Unit style    : metal
  Current step  : 7115
Per MPI rank memory allocation (min/avg/max) = 5.441 | 5.816 | 6.074 Mbytes
Step PotEng KinEng TotEng v_fx v_fy v_fz 
    7115   -1152448.6            0   -1152448.6   0.02197449 -0.00050253782 -0.026107997 
    7396   -1152448.6            0   -1152448.6 6.6416261e-07 2.9194034e-07 -7.6398569e-07 
Loop time of 3.32168 on 104 procs for 281 steps with 288751 atoms

99.9% CPU use with 104 MPI tasks x 1 OpenMP threads

Minimization stats:
  Stopping criterion = energy tolerance
  Energy initial, next-to-last, final = 
     -1152448.55834538  -1152448.57009575  -1152448.57009575
  Force two-norm initial, final = 0.18450446 1.6363169e-05
  Force max component initial, final = 0.14661632 1.2007079e-06
  Final line search alpha, max atom move = 1.0000000 1.2007079e-06
  Iterations, force evaluations = 281 562

MPI task timing breakdown:
Section |  min time  |  avg time  |  max time  |%varavg| %total
---------------------------------------------------------------
Pair    | 0.85728    | 2.3756     | 3.1161     |  41.5 | 71.52
Neigh   | 1.0282e-05 | 0.0029377  | 0.0042914  |   2.2 |  0.09
Comm    | 0.063693   | 0.54565    | 1.6156     |  60.4 | 16.43
Output  | 0          | 0          | 0          |   0.0 |  0.00
Modify  | 3.5894e-05 | 0.0046385  | 0.0099043  |   3.2 |  0.14
Other   |            | 0.3929     |            |       | 11.83

Nlocal:        2776.45 ave        3951 max           0 min
Histogram: 8 4 4 0 4 12 8 0 30 34
Nghost:        3878.76 ave        5425 max         232 min
Histogram: 8 0 8 0 16 0 8 8 16 40
Neighs:        79213.4 ave      115196 max           0 min
Histogram: 8 4 4 0 10 6 8 8 24 32

Total # of neighbors = 8238195
Ave neighs/atom = 28.530447
Neighbor list builds = 1
Dangerous builds = 0
The dot product: -1.49271018383645e-08
Setting atom values ...
  1 settings made for x
  1 settings made for y
  1 settings made for z
Setting up cg style minimization ...
  Unit style    : metal
  Current step  : 7396
Per MPI rank memory allocation (min/avg/max) = 5.441 | 5.816 | 6.074 Mbytes
Step PotEng KinEng TotEng v_fx v_fy v_fz 
    7396   -1152448.5            0   -1152448.5  0.014513272 0.0020526343 -0.016423205 
    7747   -1152448.5            0   -1152448.5 -2.975407e-05 -3.9703696e-06 3.3689883e-05 
[...]

Nlocal:        2776.45 ave        3951 max           0 min
Histogram: 8 4 4 0 4 12 8 0 30 34
Nghost:        3879.12 ave        5424 max         232 min
Histogram: 8 0 8 0 16 0 8 8 16 40
Neighs:        79213.4 ave      115134 max           0 min
Histogram: 8 4 4 0 10 6 8 8 24 32

Total # of neighbors = 8238189
Ave neighs/atom = 28.530426
Neighbor list builds = 0
Dangerous builds = 0
The dot product: -1.65874400337756e-07
Setting atom values ...
  1 settings made for x
  1 settings made for y
  1 settings made for z
Setting up cg style minimization ...
  Unit style    : metal
  Current step  : 12310
Per MPI rank memory allocation (min/avg/max) = 5.441 | 5.816 | 6.074 Mbytes
Step PotEng KinEng TotEng v_fx v_fy v_fz 
   12310   -1152448.8            0   -1152448.8 0.0072095415 -0.006506577 -0.011541581 
   12479   -1152448.8            0   -1152448.8 -2.7351816e-05 -6.0893632e-05 -4.6820055e-05 
Loop time of 1.98025 on 104 procs for 169 steps with 288751 atoms

99.9% CPU use with 104 MPI tasks x 1 OpenMP threads

Minimization stats:
  Stopping criterion = energy tolerance
  Energy initial, next-to-last, final = 
     -1152448.77077873  -1152448.77189535  -1152448.77189535
  Force two-norm initial, final = 0.14082968 0.00017739471
  Force max component initial, final = 0.062687841 6.0893632e-05
  Final line search alpha, max atom move = 1.0000000 6.0893632e-05
  Iterations, force evaluations = 169 338

MPI task timing breakdown:
Section |  min time  |  avg time  |  max time  |%varavg| %total
---------------------------------------------------------------
Pair    | 0.51181    | 1.4219     | 1.843      |  32.0 | 71.81
Neigh   | 0          | 0          | 0          |   0.0 |  0.00
Comm    | 0.035321   | 0.32267    | 0.97183    |  47.4 | 16.29
Output  | 0          | 0          | 0          |   0.0 |  0.00
Modify  | 2.0535e-05 | 0.0027978  | 0.0059281  |   2.5 |  0.14
Other   |            | 0.2328     |            |       | 11.76

Nlocal:        2776.45 ave        3951 max           0 min
Histogram: 8 4 4 0 4 12 8 0 30 34
Nghost:        3879.14 ave        5424 max         232 min
Histogram: 8 0 8 0 16 0 8 8 16 40
Neighs:        79213.3 ave      115143 max           0 min
Histogram: 8 4 4 0 10 6 8 8 24 32

Total # of neighbors = 8238188
Ave neighs/atom = 28.530422
Neighbor list builds = 0
Dangerous builds = 0
The dot product: 1.36278554543127e-07
Setting atom values ...
  1 settings made for x
  1 settings made for y
  1 settings made for z
Setting up cg style minimization ...
  Unit style    : metal
  Current step  : 12479
Per MPI rank memory allocation (min/avg/max) = 5.441 | 5.816 | 6.074 Mbytes
Step PotEng KinEng TotEng v_fx v_fy v_fz 
   12479   -1152448.8            0   -1152448.8 0.0070529686 -0.0059449527 -0.010795097 
   12633   -1152448.8            0   -1152448.8 -5.9090804e-06 -8.0917743e-06 -4.7440077e-06 
Loop time of 1.81451 on 104 procs for 154 steps with 288751 atoms

99.9% CPU use with 104 MPI tasks x 1 OpenMP threads

Minimization stats:
  Stopping criterion = energy tolerance
  Energy initial, next-to-last, final = 
     -1152448.76669458  -1152448.76781041  -1152448.76781041
  Force two-norm initial, final = 0.14088351 0.00024140167
  Force max component initial, final = 0.062899312 2.3856851e-05
  Final line search alpha, max atom move = 1.0000000 2.3856851e-05
  Iterations, force evaluations = 154 308

MPI task timing breakdown:
Section |  min time  |  avg time  |  max time  |%varavg| %total
---------------------------------------------------------------
Pair    | 0.46518    | 1.3007     | 1.7055     |  31.1 | 71.68
Neigh   | 0          | 0          | 0          |   0.0 |  0.00
Comm    | 0.02656    | 0.29969    | 0.88577    |  44.8 | 16.52
Output  | 0          | 0          | 0          |   0.0 |  0.00
Modify  | 1.8804e-05 | 0.0025521  | 0.0054291  |   2.4 |  0.14
Other   |            | 0.2116     |            |       | 11.66

Nlocal:        2776.45 ave        3951 max           0 min
Histogram: 8 4 4 0 4 12 8 0 30 34
Nghost:        3879.12 ave        5424 max         232 min
Histogram: 8 0 8 0 16 0 8 8 16 40
Neighs:        79213.4 ave      115143 max           0 min
Histogram: 8 4 4 0 10 6 8 8 24 32

Total # of neighbors = 8238190
Ave neighs/atom = 28.530429
Neighbor list builds = 0
Dangerous builds = 0
The dot product: 8.31983909995673e-09
Setting atom values ...
  1 settings made for x
  1 settings made for y
  1 settings made for z
Setting up cg style minimization ...
  Unit style    : metal
  Current step  : 12633
Per MPI rank memory allocation (min/avg/max) = 5.441 | 5.816 | 6.074 Mbytes
Step PotEng KinEng TotEng v_fx v_fy v_fz 
   12633   -1152448.8            0   -1152448.8 0.0069507504 -0.0052054698 -0.0099050896 
   12792   -1152448.8            0   -1152448.8 4.0443577e-05 9.3319793e-05 7.228661e-05 
Loop time of 1.8406 on 104 procs for 159 steps with 288751 atoms

99.9% CPU use with 104 MPI tasks x 1 OpenMP threads

Minimization stats:
  Stopping criterion = energy tolerance
  Energy initial, next-to-last, final = 
     -1152448.76163338  -1152448.76275412  -1152448.76275412
  Force two-norm initial, final = 0.14102864 0.00025754648
  Force max component initial, final = 0.063098355 9.3319793e-05
  Final line search alpha, max atom move = 1.0000000 9.3319793e-05
  Iterations, force evaluations = 159 318

MPI task timing breakdown:
Section |  min time  |  avg time  |  max time  |%varavg| %total
---------------------------------------------------------------
Pair    | 0.48213    | 1.3356     | 1.735      |  31.2 | 72.56
Neigh   | 0          | 0          | 0          |   0.0 |  0.00
Comm    | 0.02782    | 0.30072    | 0.90654    |  45.9 | 16.34
Output  | 0          | 0          | 0          |   0.0 |  0.00
Modify  | 1.9465e-05 | 0.0026298  | 0.0055675  |   2.4 |  0.14
Other   |            | 0.2016     |            |       | 10.96

Nlocal:        2776.45 ave        3951 max           0 min
Histogram: 8 4 4 0 4 12 8 0 30 34
Nghost:        3879.12 ave        5424 max         232 min
Histogram: 8 0 8 0 16 0 8 8 16 40
Neighs:        79213.4 ave      115142 max           0 min
Histogram: 8 4 4 0 10 6 8 8 24 32

Total # of neighbors = 8238189
Ave neighs/atom = 28.530426
Neighbor list builds = 0
Dangerous builds = 0
The dot product: -1.86896076621813e-07
Setting atom values ...
  1 settings made for x
  1 settings made for y
  1 settings made for z
Setting up cg style minimization ...
  Unit style    : metal
  Current step  : 12792
Per MPI rank memory allocation (min/avg/max) = 5.441 | 5.816 | 6.074 Mbytes
Step PotEng KinEng TotEng v_fx v_fy v_fz 
   12792   -1152448.8            0   -1152448.8 0.0068427394 -0.0044334532 -0.0089847093 
   12987   -1152448.8            0   -1152448.8 4.6286756e-06 1.2748895e-05 1.0418837e-05 
Loop time of 2.29202 on 104 procs for 195 steps with 288751 atoms

99.9% CPU use with 104 MPI tasks x 1 OpenMP threads

Minimization stats:
  Stopping criterion = energy tolerance
  Energy initial, next-to-last, final = 
     -1152448.75555345   -1152448.7566849   -1152448.7566849
  Force two-norm initial, final = 0.14126744 8.2050316e-05
  Force max component initial, final = 0.063230152 2.2550799e-05
  Final line search alpha, max atom move = 1.0000000 2.2550799e-05
  Iterations, force evaluations = 195 390

MPI task timing breakdown:
Section |  min time  |  avg time  |  max time  |%varavg| %total
---------------------------------------------------------------
Pair    | 0.59069    | 1.6456     | 2.144      |  34.8 | 71.80
Neigh   | 0          | 0          | 0          |   0.0 |  0.00
Comm    | 0.033897   | 0.37637    | 1.1363     |  51.0 | 16.42
Output  | 0          | 0          | 0          |   0.0 |  0.00
Modify  | 2.3459e-05 | 0.0032192  | 0.0068225  |   2.7 |  0.14
Other   |            | 0.2668     |            |       | 11.64

Nlocal:        2776.45 ave        3953 max           0 min
Histogram: 8 4 4 0 4 12 8 0 30 34
Nghost:        3879.12 ave        5424 max         232 min
Histogram: 8 0 8 0 16 0 8 8 16 40
Neighs:        79213.3 ave      115193 max           0 min
Histogram: 8 4 4 0 10 6 8 8 24 32

Total # of neighbors = 8238187
Ave neighs/atom = 28.530419
Neighbor list builds = 0
Dangerous builds = 0
The dot product: -2.80857781379042e-08
Setting atom values ...
  1 settings made for x
  1 settings made for y
  1 settings made for z
Setting up cg style minimization ...
  Unit style    : metal
  Current step  : 12987
Per MPI rank memory allocation (min/avg/max) = 5.441 | 5.816 | 6.074 Mbytes
Step PotEng KinEng TotEng v_fx v_fy v_fz 
   12987   -1152448.7            0   -1152448.7 0.0070659461 -0.0028389166 -0.007421112 
   13000   -1152448.7            0   -1152448.7 0.0012432283  0.002108375 0.0014171495 
   13175   -1152448.7            0   -1152448.7 1.892268e-07 -3.0245051e-06 -3.2772316e-06 
Loop time of 2.1739 on 104 procs for 188 steps with 288751 atoms

99.9% CPU use with 104 MPI tasks x 1 OpenMP threads

Minimization stats:
  Stopping criterion = energy tolerance
  Energy initial, next-to-last, final = 
     -1152448.74843094  -1152448.74955331  -1152448.74955331
  Force two-norm initial, final = 0.14137593 0.00010798289
  Force max component initial, final = 0.063334959 2.4254293e-05
  Final line search alpha, max atom move = 1.0000000 2.4254293e-05
  Iterations, force evaluations = 188 376

MPI task timing breakdown:
Section |  min time  |  avg time  |  max time  |%varavg| %total
---------------------------------------------------------------
Pair    | 0.56918    | 1.5788     | 2.0477     |  33.9 | 72.62
Neigh   | 0          | 0          | 0          |   0.0 |  0.00
Comm    | 0.032645   | 0.35507    | 1.0737     |  50.0 | 16.33
Output  | 0.00014166 | 0.0001464  | 0.0002294  |   0.0 |  0.01
Modify  | 2.3267e-05 | 0.0031009  | 0.0065855  |   2.6 |  0.14
Other   |            | 0.2368     |            |       | 10.89

Nlocal:        2776.45 ave        3953 max           0 min
Histogram: 8 4 4 0 4 12 8 0 30 34
Nghost:        3879.12 ave        5424 max         232 min
Histogram: 8 0 8 0 16 0 8 8 16 40
Neighs:        79213.4 ave      115194 max           0 min
Histogram: 8 4 4 0 10 6 8 8 24 32

Total # of neighbors = 8238190
Ave neighs/atom = 28.530429
Neighbor list builds = 0
Dangerous builds = 0
The dot product: 9.9995582419467e-09
Setting atom values ...
  1 settings made for x
  1 settings made for y
  1 settings made for z
Setting up cg style minimization ...
  Unit style    : metal
  Current step  : 13175
Per MPI rank memory allocation (min/avg/max) = 5.441 | 5.816 | 6.074 Mbytes
Step PotEng KinEng TotEng v_fx v_fy v_fz 
   13175   -1152448.7            0   -1152448.7 0.0085273344  0.001651038 -0.0036319481 
   13393   -1152448.7            0   -1152448.7 4.1111624e-06 8.8174656e-06 6.600291e-06 
Loop time of 2.54043 on 104 procs for 218 steps with 288751 atoms

99.9% CPU use with 104 MPI tasks x 1 OpenMP threads

Minimization stats:
  Stopping criterion = energy tolerance
  Energy initial, next-to-last, final = 
     -1152448.74026362  -1152448.74135734  -1152448.74135734
  Force two-norm initial, final = 0.141395 4.2220848e-05
  Force max component initial, final = 0.064172413 8.8174656e-06
  Final line search alpha, max atom move = 1.0000000 8.8174656e-06
  Iterations, force evaluations = 218 436

MPI task timing breakdown:
Section |  min time  |  avg time  |  max time  |%varavg| %total
---------------------------------------------------------------
Pair    | 0.65993    | 1.8342     | 2.3833     |  36.7 | 72.20
Neigh   | 0          | 0          | 0          |   0.0 |  0.00
Comm    | 0.039214   | 0.41709    | 1.2356     |  53.3 | 16.42
Output  | 0          | 0          | 0          |   0.0 |  0.00
Modify  | 2.6255e-05 | 0.0036001  | 0.0076576  |   2.8 |  0.14
Other   |            | 0.2855     |            |       | 11.24

Nlocal:        2776.45 ave        3953 max           0 min
Histogram: 8 4 4 0 4 12 8 0 30 34
Nghost:        3879.12 ave        5424 max         232 min
Histogram: 8 0 8 0 16 0 8 8 16 40
Neighs:        79213.4 ave      115194 max           0 min
Histogram: 8 4 4 0 10 6 8 8 24 32

Total # of neighbors = 8238193
Ave neighs/atom = 28.530440
Neighbor list builds = 0
Dangerous builds = 0
The dot product: -2.96361531433271e-09
Setting atom values ...
  1 settings made for x
  1 settings made for y
  1 settings made for z
Setting up cg style minimization ...
  Unit style    : metal
  Current step  : 13393
Per MPI rank memory allocation (min/avg/max) = 5.441 | 5.816 | 6.074 Mbytes
Step PotEng KinEng TotEng v_fx v_fy v_fz 
   13393   -1152448.7            0   -1152448.7  0.010246481 0.0067822997 0.00065066845 
   13552   -1152448.7            0   -1152448.7 -8.1027504e-06 -1.2401333e-05 -7.8298306e-06 
Loop time of 1.85396 on 104 procs for 159 steps with 288751 atoms

99.9% CPU use with 104 MPI tasks x 1 OpenMP threads

Minimization stats:
  Stopping criterion = energy tolerance
  Energy initial, next-to-last, final = 
     -1152448.73111399   -1152448.7322028   -1152448.7322028
  Force two-norm initial, final = 0.14241753 0.00021973523
  Force max component initial, final = 0.065311076 5.1459947e-05
  Final line search alpha, max atom move = 1.0000000 5.1459947e-05
  Iterations, force evaluations = 159 318

MPI task timing breakdown:
Section |  min time  |  avg time  |  max time  |%varavg| %total
---------------------------------------------------------------
Pair    | 0.48074    | 1.3368     | 1.7361     |  31.3 | 72.10
Neigh   | 0          | 0          | 0          |   0.0 |  0.00
Comm    | 0.030801   | 0.30194    | 0.90387    |  45.6 | 16.29
Output  | 0          | 0          | 0          |   0.0 |  0.00
Modify  | 1.9476e-05 | 0.0026309  | 0.0055651  |   2.4 |  0.14
Other   |            | 0.2126     |            |       | 11.47

Nlocal:        2776.45 ave        3953 max           0 min
Histogram: 8 4 4 0 4 12 8 0 30 34
Nghost:        3879.12 ave        5424 max         232 min
Histogram: 8 0 8 0 16 0 8 8 16 40
Neighs:        79213.4 ave      115184 max           0 min
Histogram: 8 4 4 0 10 6 8 8 24 32

Total # of neighbors = 8238193
Ave neighs/atom = 28.530440
Neighbor list builds = 0
Dangerous builds = 0
The dot product: -2.42172700989918e-08
Setting atom values ...
  1 settings made for x
  1 settings made for y
  1 settings made for z
Setting up cg style minimization ...
  Unit style    : metal
  Current step  : 13552
Per MPI rank memory allocation (min/avg/max) = 5.441 | 5.816 | 6.074 Mbytes
Step PotEng KinEng TotEng v_fx v_fy v_fz 
   13552   -1152448.7            0   -1152448.7  0.010250111 0.0079285785 0.0018684531 
   13719   -1152448.7            0   -1152448.7 1.5460525e-05 3.4973015e-05 2.6739405e-05 
Loop time of 1.96196 on 104 procs for 167 steps with 288751 atoms

99.9% CPU use with 104 MPI tasks x 1 OpenMP threads

Minimization stats:
  Stopping criterion = energy tolerance
  Energy initial, next-to-last, final = 
     -1152448.72105681  -1152448.72215029  -1152448.72215029
  Force two-norm initial, final = 0.14299647 0.00017663328
  Force max component initial, final = 0.066480501 3.4973015e-05
  Final line search alpha, max atom move = 1.0000000 3.4973015e-05
  Iterations, force evaluations = 167 334

MPI task timing breakdown:
Section |  min time  |  avg time  |  max time  |%varavg| %total
---------------------------------------------------------------
Pair    | 0.50773    | 1.4109     | 1.8446     |  32.2 | 71.91
Neigh   | 0          | 0          | 0          |   0.0 |  0.00
Comm    | 0.029655   | 0.32424    | 0.95995    |  46.6 | 16.53
Output  | 0          | 0          | 0          |   0.0 |  0.00
Modify  | 2.029e-05  | 0.002765   | 0.0058766  |   2.5 |  0.14
Other   |            | 0.2241     |            |       | 11.42

Nlocal:        2776.45 ave        3953 max           0 min
Histogram: 8 4 4 0 4 12 8 0 30 34
Nghost:        3879.16 ave        5425 max         232 min
Histogram: 8 0 8 0 16 0 8 8 16 40
Neighs:        79213.4 ave      115176 max           0 min
Histogram: 8 4 4 0 10 6 8 8 24 32

Total # of neighbors = 8238193
Ave neighs/atom = 28.530440
Neighbor list builds = 0
Dangerous builds = 0
The dot product: 5.50329643543385e-08
Setting atom values ...
  1 settings made for x
  1 settings made for y
  1 settings made for z
Setting up cg style minimization ...
  Unit style    : metal
  Current step  : 13719
Per MPI rank memory allocation (min/avg/max) = 5.441 | 5.816 | 6.074 Mbytes
Step PotEng KinEng TotEng v_fx v_fy v_fz 
   13719   -1152448.7            0   -1152448.7 0.0098384595 0.0079634437 0.0021892426 
   14000   -1152448.7            0   -1152448.7 -9.5096893e-08 -1.0444426e-07 -4.97218e-08 
   14039   -1152448.7            0   -1152448.7 3.3065452e-08 4.603343e-08 2.7391866e-08 
Loop time of 3.70844 on 104 procs for 320 steps with 288751 atoms

99.9% CPU use with 104 MPI tasks x 1 OpenMP threads

Minimization stats:
  Stopping criterion = energy tolerance
  Energy initial, next-to-last, final = 
     -1152448.71002696  -1152448.71112663  -1152448.71112663
  Force two-norm initial, final = 0.14338749 1.3542475e-06
  Force max component initial, final = 0.067540046 1.7258157e-07
  Final line search alpha, max atom move = 1.0000000 1.7258157e-07
  Iterations, force evaluations = 320 640

MPI task timing breakdown:
Section |  min time  |  avg time  |  max time  |%varavg| %total
---------------------------------------------------------------
Pair    | 0.9652     | 2.6844     | 3.4891     |  44.3 | 72.39
Neigh   | 0          | 0          | 0          |   0.0 |  0.00
Comm    | 0.056517   | 0.60426    | 1.8163     |  65.1 | 16.29
Output  | 0.00023586 | 0.00024486 | 0.00046674 |   0.0 |  0.01
Modify  | 3.8384e-05 | 0.0052792  | 0.011178   |   3.4 |  0.14
Other   |            | 0.4143     |            |       | 11.17

Nlocal:        2776.45 ave        3953 max           0 min
Histogram: 8 4 4 0 4 12 8 0 30 34
Nghost:        3879.16 ave        5426 max         232 min
Histogram: 8 0 8 0 16 0 8 8 16 40
Neighs:        79213.4 ave      115183 max           0 min
Histogram: 8 4 4 0 10 6 8 8 24 32

Total # of neighbors = 8238197
Ave neighs/atom = 28.530454
Neighbor list builds = 0
Dangerous builds = 0
The dot product: 9.4879857517759e-11
Setting up cg style minimization ...
  Unit style    : metal
  Current step  : 14039
Per MPI rank memory allocation (min/avg/max) = 5.441 | 5.816 | 6.074 Mbytes
Step PotEng KinEng TotEng v_fx v_fy v_fz 
   14039   -1152448.7            0   -1152448.7   0.22741659   -0.3819603   0.36738331 
   14298   -1152448.8            0   -1152448.8 1.5857084e-05 3.4917806e-05 2.7460588e-05 
Loop time of 3.05612 on 104 procs for 259 steps with 288751 atoms

99.9% CPU use with 104 MPI tasks x 1 OpenMP threads

Minimization stats:
  Stopping criterion = energy tolerance
  Energy initial, next-to-last, final = 
     -1152448.71112663  -1152448.77903516  -1152448.77903516
  Force two-norm initial, final = 0.57669963 0.00011639685
  Force max component initial, final = 0.3819603 3.4917806e-05
  Final line search alpha, max atom move = 1.0000000 3.4917806e-05
  Iterations, force evaluations = 259 518

MPI task timing breakdown:
Section |  min time  |  avg time  |  max time  |%varavg| %total
---------------------------------------------------------------
Pair    | 0.79534    | 2.1864     | 2.8435     |  39.9 | 71.54
Neigh   | 2.2079e-05 | 0.0058598  | 0.0085523  |   3.2 |  0.19
Comm    | 0.04703    | 0.49958    | 1.4953     |  58.4 | 16.35
Output  | 0          | 0          | 0          |   0.0 |  0.00
Modify  | 2.9976e-05 | 0.0027905  | 0.007145   |   3.3 |  0.09
Other   |            | 0.3614     |            |       | 11.83

Nlocal:        2776.45 ave        3952 max           0 min
Histogram: 8 4 4 0 4 12 8 0 30 34
Nghost:        3879.16 ave        5427 max         232 min
Histogram: 8 0 8 0 16 0 8 8 16 40
Neighs:        79213.5 ave      115161 max           0 min
Histogram: 8 4 4 0 10 6 8 8 24 32

Total # of neighbors = 8238205
Ave neighs/atom = 28.530481
Neighbor list builds = 2
Dangerous builds = 1
