LAMMPS (29 Oct 2020)
OMP_NUM_THREADS environment is not set. Defaulting to 1 thread. (../comm.cpp:94)
  using 1 OpenMP thread(s) per MPI task
OMP_NUM_THREADS environment is not set. Defaulting to 1 thread. (../comm.cpp:94)
  using 1 OpenMP thread(s) per MPI task
Reading data file ...
  orthogonal box = (-122.39241 -121.13707 -37.090501) to (122.39241 121.13707 37.090501)
  13 by 4 by 1 MPI processor grid
  reading atoms ...
  288751 atoms
  read_data CPU = 0.443 seconds
199981 atoms in group inner
88770 atoms in group outer
1 atoms in group carbon
Neighbor list info ...
  update every 1 steps, delay 0 steps, check yes
  max neighbors/atom: 2000, page size: 100000
  master list distance cutoff = 5.6
  ghost atom cutoff = 5.6
  binsize = 2.8, bins = 88 87 27
  1 neighbor lists, perpetual/occasional/extra = 1 0 0
  (1) pair eam/alloy, perpetual
      attributes: half, newton on
      pair build: half/bin/atomonly/newton
      stencil: half/bin/3d/newton
      bin: standard
Setting up cg style minimization ...
  Unit style    : metal
  Current step  : 0
Per MPI rank memory allocation (min/avg/max) = 5.465 | 6.344 | 6.728 Mbytes
Step v_fx v_fy v_fz PotEng KinEng TotEng 
       0  -0.20283339    1.9361352   -2.5979113   -1152447.8            0   -1152447.8 
     175 4.2951476e-06 -6.6427825e-06 1.9105667e-05   -1152449.5            0   -1152449.5 
Loop time of 3.91533 on 52 procs for 175 steps with 288751 atoms

99.9% CPU use with 52 MPI tasks x 1 OpenMP threads

Minimization stats:
  Stopping criterion = linesearch alpha is zero
  Energy initial, next-to-last, final = 
     -1152447.77511633   -1152449.4503526   -1152449.4503526
  Force two-norm initial, final = 10.239544 5.9042472e-05
  Force max component initial, final = 6.2708179 1.9105667e-05
  Final line search alpha, max atom move = 0.5 9.5528334e-06
  Iterations, force evaluations = 175 350

MPI task timing breakdown:
Section |  min time  |  avg time  |  max time  |%varavg| %total
---------------------------------------------------------------
Pair    | 1.0146     | 2.8052     | 3.6597     |  45.8 | 71.65
Neigh   | 6.4084e-05 | 0.018967   | 0.026857   |   5.8 |  0.48
Comm    | 0.055586   | 0.6328     | 1.991      |  70.3 | 16.16
Output  | 0          | 0          | 0          |   0.0 |  0.00
Modify  | 5.9336e-05 | 0.0038159  | 0.009683   |   3.8 |  0.10
Other   |            | 0.4546     |            |       | 11.61

Nlocal:        5552.90 ave        7912 max           0 min
Histogram: 4 2 2 0 2 6 4 0 15 17
Nghost:        6213.54 ave        8769 max         412 min
Histogram: 4 0 4 0 8 0 4 5 7 20
Neighs:       158427.0 ave      230655 max           0 min
Histogram: 4 2 2 0 5 3 4 4 12 16

Total # of neighbors = 8238203
Ave neighs/atom = 28.530474
Neighbor list builds = 3
Dangerous builds = 0
Setting atom values ...
  1 settings made for x
  1 settings made for y
  1 settings made for z
Setting up cg style minimization ...
  Unit style    : metal
  Current step  : 175
Per MPI rank memory allocation (min/avg/max) = 5.465 | 6.344 | 6.728 Mbytes
Step PotEng KinEng TotEng v_fx v_fy v_fz 
     175   -1152449.4            0   -1152449.4  0.015509558 0.0058651171 -0.019389447 
     320   -1152449.5            0   -1152449.5 2.2509361e-05 -1.6618417e-05 -4.963837e-05 
Loop time of 3.24077 on 52 procs for 145 steps with 288751 atoms

99.8% CPU use with 52 MPI tasks x 1 OpenMP threads

Minimization stats:
  Stopping criterion = energy tolerance
  Energy initial, next-to-last, final = 
     -1152449.44949205  -1152449.45006447  -1152449.45006447
  Force two-norm initial, final = 0.11246942 0.00023858578
  Force max component initial, final = 0.0500614 5.3391225e-05
  Final line search alpha, max atom move = 1.0000000 5.3391225e-05
  Iterations, force evaluations = 145 290

MPI task timing breakdown:
Section |  min time  |  avg time  |  max time  |%varavg| %total
---------------------------------------------------------------
Pair    | 0.8247     | 2.3198     | 3.039      |  42.1 | 71.58
Neigh   | 0          | 0          | 0          |   0.0 |  0.00
Comm    | 0.047158   | 0.51891    | 1.6322     |  64.0 | 16.01
Output  | 0          | 0          | 0          |   0.0 |  0.00
Modify  | 5.5412e-05 | 0.0048553  | 0.010269   |   3.2 |  0.15
Other   |            | 0.3972     |            |       | 12.26

Nlocal:        5552.90 ave        7910 max           0 min
Histogram: 4 2 2 0 2 6 4 0 15 17
Nghost:        6213.54 ave        8769 max         412 min
Histogram: 4 0 4 0 8 0 4 5 7 20
Neighs:       158427.0 ave      230570 max           0 min
Histogram: 4 2 2 0 5 3 4 4 12 16

Total # of neighbors = 8238197
Ave neighs/atom = 28.530454
Neighbor list builds = 0
Dangerous builds = 0
Setting atom values ...
  1 settings made for x
  1 settings made for y
  1 settings made for z
Setting up cg style minimization ...
  Unit style    : metal
  Current step  : 320
Per MPI rank memory allocation (min/avg/max) = 5.465 | 6.344 | 6.728 Mbytes
Step PotEng KinEng TotEng v_fx v_fy v_fz 
     320   -1152449.4            0   -1152449.4  0.027287354 0.0091379213 -0.042803826 
     553   -1152449.4            0   -1152449.4 1.0832166e-06 7.1009334e-08 -2.0487284e-06 
Loop time of 5.18007 on 52 procs for 233 steps with 288751 atoms

99.9% CPU use with 52 MPI tasks x 1 OpenMP threads

Minimization stats:
  Stopping criterion = linesearch alpha is zero
  Energy initial, next-to-last, final = 
     -1152449.44631906  -1152449.44815023  -1152449.44815023
  Force two-norm initial, final = 0.20346888 1.7010564e-05
  Force max component initial, final = 0.090328091 2.0487284e-06
  Final line search alpha, max atom move = 0.5 1.0243642e-06
  Iterations, force evaluations = 233 467

MPI task timing breakdown:
Section |  min time  |  avg time  |  max time  |%varavg| %total
---------------------------------------------------------------
Pair    | 1.3021     | 3.7124     | 4.8734     |  53.6 | 71.67
Neigh   | 0          | 0          | 0          |   0.0 |  0.00
Comm    | 0.073692   | 0.83459    | 2.6345     |  81.3 | 16.11
Output  | 0          | 0          | 0          |   0.0 |  0.00
Modify  | 8.6741e-05 | 0.0077306  | 0.016438   |   4.1 |  0.15
Other   |            | 0.6253     |            |       | 12.07

Nlocal:        5552.90 ave        7909 max           0 min
Histogram: 4 2 2 0 2 6 4 0 15 17
Nghost:        6213.54 ave        8769 max         412 min
Histogram: 4 0 4 0 8 0 4 5 7 20
Neighs:       158427.0 ave      230535 max           0 min
Histogram: 4 2 2 0 5 3 4 4 12 16

Total # of neighbors = 8238197
Ave neighs/atom = 28.530454
Neighbor list builds = 0
Dangerous builds = 0
The dot product: 6.75037323616858e-09
Setting atom values ...
  1 settings made for x
  1 settings made for y
  1 settings made for z
Setting up cg style minimization ...
  Unit style    : metal
  Current step  : 553
Per MPI rank memory allocation (min/avg/max) = 5.465 | 6.344 | 6.728 Mbytes
Step PotEng KinEng TotEng v_fx v_fy v_fz 
     553   -1152449.4            0   -1152449.4  0.027260517  0.011917457 -0.052080214 
     667   -1152449.4            0   -1152449.4 9.0815553e-06 -9.9731879e-07 -2.5994618e-05 
Loop time of 2.53455 on 52 procs for 114 steps with 288751 atoms

99.9% CPU use with 52 MPI tasks x 1 OpenMP threads

Minimization stats:
  Stopping criterion = energy tolerance
  Energy initial, next-to-last, final = 
     -1152449.44288647  -1152449.44469077  -1152449.44469077
  Force two-norm initial, final = 0.20374165 0.00018020635
  Force max component initial, final = 0.08926275 2.7865151e-05
  Final line search alpha, max atom move = 1.0000000 2.7865151e-05
  Iterations, force evaluations = 114 228

MPI task timing breakdown:
Section |  min time  |  avg time  |  max time  |%varavg| %total
---------------------------------------------------------------
Pair    | 0.63862    | 1.8233     | 2.3836     |  37.6 | 71.94
Neigh   | 0          | 0          | 0          |   0.0 |  0.00
Comm    | 0.038965   | 0.4072     | 1.2847     |  57.3 | 16.07
Output  | 0          | 0          | 0          |   0.0 |  0.00
Modify  | 3.9268e-05 | 0.0037901  | 0.0080839  |   2.9 |  0.15
Other   |            | 0.3003     |            |       | 11.85

Nlocal:        5552.90 ave        7909 max           0 min
Histogram: 4 2 2 0 2 6 4 0 15 17
Nghost:        6213.54 ave        8769 max         412 min
Histogram: 4 0 4 0 8 0 4 5 7 20
Neighs:       158427.0 ave      230531 max           0 min
Histogram: 4 2 2 0 5 3 4 4 12 16

Total # of neighbors = 8238196
Ave neighs/atom = 28.530450
Neighbor list builds = 0
Dangerous builds = 0
The dot product: 1.51415731729586e-07
Setting atom values ...
  1 settings made for x
  1 settings made for y
  1 settings made for z
Setting up cg style minimization ...
  Unit style    : metal
  Current step  : 667
Per MPI rank memory allocation (min/avg/max) = 5.465 | 6.344 | 6.728 Mbytes
Step PotEng KinEng TotEng v_fx v_fy v_fz 
     667   -1152449.4            0   -1152449.4   0.02631864  0.020462835 -0.054752543 
     764   -1152449.4            0   -1152449.4 -5.7011102e-06 5.2794798e-07 2.5517716e-05 
Loop time of 2.15211 on 52 procs for 97 steps with 288751 atoms

99.9% CPU use with 52 MPI tasks x 1 OpenMP threads

Minimization stats:
  Stopping criterion = energy tolerance
  Energy initial, next-to-last, final = 
     -1152449.43813202  -1152449.43991392  -1152449.43991392
  Force two-norm initial, final = 0.20168949 0.00029300068
  Force max component initial, final = 0.085621901 2.5517716e-05
  Final line search alpha, max atom move = 1.0000000 2.5517716e-05
  Iterations, force evaluations = 97 194

MPI task timing breakdown:
Section |  min time  |  avg time  |  max time  |%varavg| %total
---------------------------------------------------------------
Pair    | 0.54104    | 1.543      | 2.0298     |  34.6 | 71.70
Neigh   | 0          | 0          | 0          |   0.0 |  0.00
Comm    | 0.029196   | 0.34672    | 1.0936     |  52.5 | 16.11
Output  | 0          | 0          | 0          |   0.0 |  0.00
Modify  | 3.4568e-05 | 0.0032162  | 0.0068069  |   2.6 |  0.15
Other   |            | 0.2591     |            |       | 12.04

Nlocal:        5552.90 ave        7908 max           0 min
Histogram: 4 2 2 0 2 6 4 0 15 17
Nghost:        6213.54 ave        8769 max         412 min
Histogram: 4 0 4 0 8 0 4 5 7 20
Neighs:       158427.0 ave      230497 max           0 min
Histogram: 4 2 2 0 5 3 4 4 12 16

Total # of neighbors = 8238201
Ave neighs/atom = 28.530467
Neighbor list builds = 0
Dangerous builds = 0
The dot product: -1.73011071772268e-07
Setting atom values ...
  1 settings made for x
  1 settings made for y
  1 settings made for z
Setting up cg style minimization ...
  Unit style    : metal
  Current step  : 764
Per MPI rank memory allocation (min/avg/max) = 5.465 | 6.344 | 6.728 Mbytes
Step PotEng KinEng TotEng v_fx v_fy v_fz 
     764   -1152449.4            0   -1152449.4  0.023507916  0.027395192 -0.051012093 
     930   -1152449.4            0   -1152449.4 8.5447521e-06 3.3518301e-06 -5.1785753e-05 
Loop time of 3.7033 on 52 procs for 166 steps with 288751 atoms

99.9% CPU use with 52 MPI tasks x 1 OpenMP threads

Minimization stats:
  Stopping criterion = energy tolerance
  Energy initial, next-to-last, final = 
     -1152449.43206726  -1152449.43380251  -1152449.43380251
  Force two-norm initial, final = 0.19747822 0.00020589333
  Force max component initial, final = 0.080735541 5.1785753e-05
  Final line search alpha, max atom move = 1.0000000 5.1785753e-05
  Iterations, force evaluations = 166 332

MPI task timing breakdown:
Section |  min time  |  avg time  |  max time  |%varavg| %total
---------------------------------------------------------------
Pair    | 0.94117    | 2.6473     | 3.4774     |  45.0 | 71.49
Neigh   | 0          | 0          | 0          |   0.0 |  0.00
Comm    | 0.052596   | 0.59186    | 1.8743     |  68.7 | 15.98
Output  | 0          | 0          | 0          |   0.0 |  0.00
Modify  | 6.8758e-05 | 0.0055398  | 0.011679   |   3.5 |  0.15
Other   |            | 0.4586     |            |       | 12.38

Nlocal:        5552.90 ave        7907 max           0 min
Histogram: 4 2 2 0 2 6 4 0 15 17
Nghost:        6213.54 ave        8769 max         412 min
Histogram: 4 0 4 0 8 0 4 5 7 20
Neighs:       158427.0 ave      230462 max           0 min
Histogram: 4 2 2 0 5 3 4 4 12 16

Total # of neighbors = 8238198
Ave neighs/atom = 28.530457
Neighbor list builds = 0
Dangerous builds = 0
The dot product: 3.51041422750679e-07
Setting atom values ...
  1 settings made for x
  1 settings made for y
  1 settings made for z
Setting up cg style minimization ...
  Unit style    : metal
  Current step  : 930
Per MPI rank memory allocation (min/avg/max) = 5.465 | 6.344 | 6.728 Mbytes
Step PotEng KinEng TotEng v_fx v_fy v_fz 
     930   -1152449.4            0   -1152449.4  0.019971266  0.030497394 -0.044492859 
    1000   -1152449.4            0   -1152449.4 3.3668003e-05 2.6379294e-05 -0.00044042558 
    1114   -1152449.4            0   -1152449.4 -4.0839195e-07 7.6743785e-07 2.1215341e-05 
Loop time of 4.1187 on 52 procs for 184 steps with 288751 atoms

99.9% CPU use with 52 MPI tasks x 1 OpenMP threads

Minimization stats:
  Stopping criterion = linesearch alpha is zero
  Energy initial, next-to-last, final = 
     -1152449.42463361  -1152449.42631299  -1152449.42631299
  Force two-norm initial, final = 0.19278802 0.00010183304
  Force max component initial, final = 0.075851869 2.1215341e-05
  Final line search alpha, max atom move = 0.5 1.0607670e-05
  Iterations, force evaluations = 184 371

MPI task timing breakdown:
Section |  min time  |  avg time  |  max time  |%varavg| %total
---------------------------------------------------------------
Pair    | 1.0363     | 2.9476     | 3.8766     |  47.7 | 71.57
Neigh   | 0          | 0          | 0          |   0.0 |  0.00
Comm    | 0.060404   | 0.6624     | 2.097      |  72.3 | 16.08
Output  | 0.00013575 | 0.0001398  | 0.00029372 |   0.0 |  0.00
Modify  | 6.4921e-05 | 0.0061449  | 0.01302    |   3.7 |  0.15
Other   |            | 0.5025     |            |       | 12.20

Nlocal:        5552.90 ave        7905 max           0 min
Histogram: 4 2 2 0 2 6 4 0 15 17
Nghost:        6213.54 ave        8769 max         412 min
Histogram: 4 0 4 0 8 0 4 5 7 20
Neighs:       158427.0 ave      230400 max           0 min
Histogram: 4 2 2 0 5 3 4 4 12 16

Total # of neighbors = 8238199
Ave neighs/atom = 28.530461
Neighbor list builds = 0
Dangerous builds = 0
The dot product: -1.24759693150925e-07
Setting atom values ...
  1 settings made for x
  1 settings made for y
  1 settings made for z
Setting up cg style minimization ...
  Unit style    : metal
  Current step  : 1114
Per MPI rank memory allocation (min/avg/max) = 5.465 | 6.344 | 6.728 Mbytes
Step PotEng KinEng TotEng v_fx v_fy v_fz 
    1114   -1152449.4            0   -1152449.4  0.016444283  0.030182132 -0.037395324 
    1265   -1152449.4            0   -1152449.4 8.8570243e-08 6.8360706e-07 -1.4755597e-05 
Loop time of 3.35754 on 52 procs for 151 steps with 288751 atoms

99.9% CPU use with 52 MPI tasks x 1 OpenMP threads

Minimization stats:
  Stopping criterion = energy tolerance
  Energy initial, next-to-last, final = 
     -1152449.41577959  -1152449.41740694  -1152449.41740694
  Force two-norm initial, final = 0.18842149 0.0002730314
  Force max component initial, final = 0.071639766 6.0111311e-05
  Final line search alpha, max atom move = 1.0000000 6.0111311e-05
  Iterations, force evaluations = 151 302

MPI task timing breakdown:
Section |  min time  |  avg time  |  max time  |%varavg| %total
---------------------------------------------------------------
Pair    | 0.85956    | 2.4102     | 3.1623     |  42.9 | 71.78
Neigh   | 0          | 0          | 0          |   0.0 |  0.00
Comm    | 0.047142   | 0.53797    | 1.7055     |  65.7 | 16.02
Output  | 0          | 0          | 0          |   0.0 |  0.00
Modify  | 5.5009e-05 | 0.0050392  | 0.010702   |   3.3 |  0.15
Other   |            | 0.4044     |            |       | 12.04

Nlocal:        5552.90 ave        7905 max           0 min
Histogram: 4 2 2 0 2 6 4 0 15 17
Nghost:        6213.54 ave        8769 max         412 min
Histogram: 4 0 4 0 8 0 4 5 7 20
Neighs:       158427.0 ave      230389 max           0 min
Histogram: 4 2 2 0 5 3 4 4 12 16

Total # of neighbors = 8238200
Ave neighs/atom = 28.530464
Neighbor list builds = 0
Dangerous builds = 0
The dot product: 7.87657473299364e-08
Setting atom values ...
  1 settings made for x
  1 settings made for y
  1 settings made for z
Setting up cg style minimization ...
  Unit style    : metal
  Current step  : 1265
Per MPI rank memory allocation (min/avg/max) = 5.465 | 6.344 | 6.728 Mbytes
Step PotEng KinEng TotEng v_fx v_fy v_fz 
    1265   -1152449.4            0   -1152449.4  0.012872504   0.02690159 -0.031244804 
    1443   -1152449.4            0   -1152449.4 -1.652512e-07 2.307191e-06 -2.194224e-05 
Loop time of 3.92794 on 52 procs for 178 steps with 288751 atoms

99.9% CPU use with 52 MPI tasks x 1 OpenMP threads

Minimization stats:
  Stopping criterion = energy tolerance
  Energy initial, next-to-last, final = 
     -1152449.40547101    -1152449.407066    -1152449.407066
  Force two-norm initial, final = 0.18476198 0.00014193982
  Force max component initial, final = 0.068387146 2.1942240e-05
  Final line search alpha, max atom move = 1.0000000 2.1942240e-05
  Iterations, force evaluations = 178 356

MPI task timing breakdown:
Section |  min time  |  avg time  |  max time  |%varavg| %total
---------------------------------------------------------------
Pair    | 0.9934     | 2.8343     | 3.7112     |  46.8 | 72.16
Neigh   | 0          | 0          | 0          |   0.0 |  0.00
Comm    | 0.053391   | 0.63255    | 2.0149     |  71.5 | 16.10
Output  | 0          | 0          | 0          |   0.0 |  0.00
Modify  | 6.7493e-05 | 0.0058823  | 0.012489   |   3.6 |  0.15
Other   |            | 0.4552     |            |       | 11.59

Nlocal:        5552.90 ave        7903 max           0 min
Histogram: 4 2 2 0 2 6 4 0 15 17
Nghost:        6213.54 ave        8769 max         412 min
Histogram: 4 0 4 0 8 0 4 5 7 20
Neighs:       158427.0 ave      230322 max           0 min
Histogram: 4 2 2 0 5 3 4 4 12 16

Total # of neighbors = 8238204
Ave neighs/atom = 28.530478
Neighbor list builds = 0
Dangerous builds = 0
The dot product: 1.0717088324626e-07
Setting atom values ...
  1 settings made for x
  1 settings made for y
  1 settings made for z
Setting up cg style minimization ...
  Unit style    : metal
  Current step  : 1443
Per MPI rank memory allocation (min/avg/max) = 5.465 | 6.344 | 6.728 Mbytes
Step PotEng KinEng TotEng v_fx v_fy v_fz 
    1443   -1152449.4            0   -1152449.4 0.0085321518  0.020385663 -0.027005884 
    1609   -1152449.4            0   -1152449.4 5.5956061e-07 8.5639593e-06 -4.0826228e-05 
Loop time of 3.68591 on 52 procs for 166 steps with 288751 atoms

99.9% CPU use with 52 MPI tasks x 1 OpenMP threads

Minimization stats:
  Stopping criterion = energy tolerance
  Energy initial, next-to-last, final = 
     -1152449.39371417  -1152449.39531125  -1152449.39531125
  Force two-norm initial, final = 0.18184788 0.00021887361
  Force max component initial, final = 0.07089876 4.0826228e-05
  Final line search alpha, max atom move = 1.0000000 4.0826228e-05
  Iterations, force evaluations = 166 332

MPI task timing breakdown:
Section |  min time  |  avg time  |  max time  |%varavg| %total
---------------------------------------------------------------
Pair    | 0.94498    | 2.6558     | 3.4764     |  45.1 | 72.05
Neigh   | 0          | 0          | 0          |   0.0 |  0.00
Comm    | 0.050307   | 0.59004    | 1.8693     |  69.1 | 16.01
Output  | 0          | 0          | 0          |   0.0 |  0.00
Modify  | 5.7528e-05 | 0.0055373  | 0.011713   |   3.5 |  0.15
Other   |            | 0.4345     |            |       | 11.79

Nlocal:        5552.90 ave        7902 max           0 min
Histogram: 4 2 2 0 2 6 4 0 15 17
Nghost:        6213.54 ave        8769 max         412 min
Histogram: 4 0 4 0 8 0 4 5 7 20
Neighs:       158427.0 ave      230285 max           0 min
Histogram: 4 2 2 0 5 3 4 4 12 16

Total # of neighbors = 8238203
Ave neighs/atom = 28.530474
Neighbor list builds = 0
Dangerous builds = 0
The dot product: 1.80090069042434e-07
Setting atom values ...
  1 settings made for x
  1 settings made for y
  1 settings made for z
Setting up cg style minimization ...
  Unit style    : metal
  Current step  : 1609
Per MPI rank memory allocation (min/avg/max) = 5.465 | 6.344 | 6.728 Mbytes
Step PotEng KinEng TotEng v_fx v_fy v_fz 
    1609   -1152449.4            0   -1152449.4 0.0033852454  0.011804013 -0.024780452 
    1794   -1152449.4            0   -1152449.4 2.4937738e-07 -5.4252464e-06 2.4664093e-05 
Loop time of 4.09698 on 52 procs for 185 steps with 288751 atoms

99.9% CPU use with 52 MPI tasks x 1 OpenMP threads

Minimization stats:
  Stopping criterion = energy tolerance
  Energy initial, next-to-last, final = 
       -1152449.380552  -1152449.38220231  -1152449.38220231
  Force two-norm initial, final = 0.18002031 0.00010776419
  Force max component initial, final = 0.074573997 2.4664093e-05
  Final line search alpha, max atom move = 1.0000000 2.4664093e-05
  Iterations, force evaluations = 185 370

MPI task timing breakdown:
Section |  min time  |  avg time  |  max time  |%varavg| %total
---------------------------------------------------------------
Pair    | 1.031      | 2.9462     | 3.8619     |  47.8 | 71.91
Neigh   | 0          | 0          | 0          |   0.0 |  0.00
Comm    | 0.061457   | 0.66007    | 2.0909     |  72.7 | 16.11
Output  | 0          | 0          | 0          |   0.0 |  0.00
Modify  | 6.278e-05  | 0.0061342  | 0.013022   |   3.7 |  0.15
Other   |            | 0.4846     |            |       | 11.83

Nlocal:        5552.90 ave        7898 max           0 min
Histogram: 4 2 2 0 2 6 4 0 14 18
Nghost:        6213.54 ave        8769 max         412 min
Histogram: 4 0 4 0 8 0 4 5 7 20
Neighs:       158427.0 ave      230146 max           0 min
Histogram: 4 2 2 0 5 3 4 4 12 16

Total # of neighbors = 8238203
Ave neighs/atom = 28.530474
Neighbor list builds = 0
Dangerous builds = 0
The dot product: -1.15156251826711e-07
Setting atom values ...
  1 settings made for x
  1 settings made for y
  1 settings made for z
Setting up cg style minimization ...
  Unit style    : metal
  Current step  : 1794
Per MPI rank memory allocation (min/avg/max) = 5.465 | 6.344 | 6.728 Mbytes
Step PotEng KinEng TotEng v_fx v_fy v_fz 
    1794   -1152449.4            0   -1152449.4 -0.0036340272 0.0013498161 -0.025787659 
    2000   -1152449.4            0   -1152449.4 1.2862115e-06 -4.4188557e-06 2.3022902e-05 
    2025   -1152449.4            0   -1152449.4 6.5956382e-07 1.2928138e-08 3.771005e-06 
Loop time of 5.12589 on 52 procs for 231 steps with 288751 atoms

99.9% CPU use with 52 MPI tasks x 1 OpenMP threads

Minimization stats:
  Stopping criterion = linesearch alpha is zero
  Energy initial, next-to-last, final = 
     -1152449.36608514  -1152449.36800204  -1152449.36800204
  Force two-norm initial, final = 0.17952211 2.9394829e-05
  Force max component initial, final = 0.078982319 4.4620546e-06
  Final line search alpha, max atom move = 0.5 2.2310273e-06
  Iterations, force evaluations = 231 463

MPI task timing breakdown:
Section |  min time  |  avg time  |  max time  |%varavg| %total
---------------------------------------------------------------
Pair    | 1.2918     | 3.6856     | 4.824      |  53.3 | 71.90
Neigh   | 0          | 0          | 0          |   0.0 |  0.00
Comm    | 0.069702   | 0.82278    | 2.6138     |  81.5 | 16.05
Output  | 0.00022106 | 0.0002256  | 0.00038322 |   0.0 |  0.00
Modify  | 7.8661e-05 | 0.0076517  | 0.016336   |   4.1 |  0.15
Other   |            | 0.6096     |            |       | 11.89

Nlocal:        5552.90 ave        7895 max           0 min
Histogram: 4 2 2 0 2 6 4 0 14 18
Nghost:        6213.54 ave        8769 max         412 min
Histogram: 4 0 4 0 8 0 4 5 7 20
Neighs:       158427.0 ave      230049 max           0 min
Histogram: 4 2 2 0 5 3 4 4 12 16

Total # of neighbors = 8238202
Ave neighs/atom = 28.530471
Neighbor list builds = 0
Dangerous builds = 0
The dot product: -4.00341988426283e-08
Setting atom values ...
  1 settings made for x
  1 settings made for y
  1 settings made for z
Setting up cg style minimization ...
  Unit style    : metal
  Current step  : 2025
Per MPI rank memory allocation (min/avg/max) = 5.465 | 6.344 | 6.728 Mbytes
Step PotEng KinEng TotEng v_fx v_fy v_fz 
    2025   -1152449.4            0   -1152449.4 -0.017398089 -0.013020493 -0.036753593 
    2218   -1152449.4            0   -1152449.4 4.0121508e-06 -8.4095131e-06 4.1479052e-05 
Loop time of 4.2818 on 52 procs for 193 steps with 288751 atoms

99.9% CPU use with 52 MPI tasks x 1 OpenMP threads

Minimization stats:
  Stopping criterion = energy tolerance
  Energy initial, next-to-last, final = 
     -1152449.35079661  -1152449.35298204  -1152449.35298204
  Force two-norm initial, final = 0.18208822 0.00013131253
  Force max component initial, final = 0.085080065 4.1479052e-05
  Final line search alpha, max atom move = 1.0000000 4.1479052e-05
  Iterations, force evaluations = 193 386

MPI task timing breakdown:
Section |  min time  |  avg time  |  max time  |%varavg| %total
---------------------------------------------------------------
Pair    | 1.0751     | 3.0739     | 4.0272     |  48.8 | 71.79
Neigh   | 0          | 0          | 0          |   0.0 |  0.00
Comm    | 0.058451   | 0.69079    | 2.1768     |  74.1 | 16.13
Output  | 0          | 0          | 0          |   0.0 |  0.00
Modify  | 7.2217e-05 | 0.0063838  | 0.013563   |   3.7 |  0.15
Other   |            | 0.5108     |            |       | 11.93

Nlocal:        5552.90 ave        7894 max           0 min
Histogram: 4 2 2 0 2 6 4 0 14 18
Nghost:        6213.58 ave        8769 max         412 min
Histogram: 4 0 4 0 8 0 4 5 7 20
Neighs:       158427.0 ave      230026 max           0 min
Histogram: 4 2 2 0 5 3 4 4 12 16

Total # of neighbors = 8238203
Ave neighs/atom = 28.530474
Neighbor list builds = 0
Dangerous builds = 0
The dot product: -4.61778548208443e-07
Setting atom values ...
  1 settings made for x
  1 settings made for y
  1 settings made for z
Setting up cg style minimization ...
  Unit style    : metal
  Current step  : 2218
Per MPI rank memory allocation (min/avg/max) = 5.465 | 6.344 | 6.728 Mbytes
Step PotEng KinEng TotEng v_fx v_fy v_fz 
    2218   -1152449.3            0   -1152449.3 -0.029490956 -0.021508621 -0.041509647 
    2427   -1152449.3            0   -1152449.3 3.4998283e-07 4.3802547e-07 4.6571314e-08 
Loop time of 4.65597 on 52 procs for 209 steps with 288751 atoms

99.9% CPU use with 52 MPI tasks x 1 OpenMP threads

Minimization stats:
  Stopping criterion = linesearch alpha is zero
  Energy initial, next-to-last, final = 
     -1152449.33479898  -1152449.33716057  -1152449.33716057
  Force two-norm initial, final = 0.18488815 0.00010201292
  Force max component initial, final = 0.092356155 1.2679468e-05
  Final line search alpha, max atom move = 0.5 6.3397338e-06
  Iterations, force evaluations = 209 421

MPI task timing breakdown:
Section |  min time  |  avg time  |  max time  |%varavg| %total
---------------------------------------------------------------
Pair    | 1.1993     | 3.3551     | 4.3957     |  50.6 | 72.06
Neigh   | 0          | 0          | 0          |   0.0 |  0.00
Comm    | 0.065032   | 0.74561    | 2.3715     |  77.7 | 16.01
Output  | 0          | 0          | 0          |   0.0 |  0.00
Modify  | 7.4734e-05 | 0.0070272  | 0.01489    |   3.9 |  0.15
Other   |            | 0.5482     |            |       | 11.77

Nlocal:        5552.90 ave        7891 max           0 min
Histogram: 4 2 2 0 2 6 4 0 14 18
Nghost:        6213.58 ave        8769 max         412 min
Histogram: 4 0 4 0 8 0 4 5 7 20
Neighs:       158427.0 ave      229959 max           0 min
Histogram: 4 2 2 0 5 3 4 4 12 16

Total # of neighbors = 8238205
Ave neighs/atom = 28.530481
Neighbor list builds = 0
Dangerous builds = 0
The dot product: -8.54358275041826e-09
Setting atom values ...
  1 settings made for x
  1 settings made for y
  1 settings made for z
Setting up cg style minimization ...
  Unit style    : metal
  Current step  : 2427
Per MPI rank memory allocation (min/avg/max) = 5.465 | 6.344 | 6.728 Mbytes
Step PotEng KinEng TotEng v_fx v_fy v_fz 
    2427   -1152449.3            0   -1152449.3 -0.033897913 -0.022470151 -0.036519469 
    2624   -1152449.3            0   -1152449.3 8.7227111e-06 -9.9291238e-06 4.3474495e-05 
Loop time of 4.35524 on 52 procs for 197 steps with 288751 atoms

99.9% CPU use with 52 MPI tasks x 1 OpenMP threads

Minimization stats:
  Stopping criterion = energy tolerance
  Energy initial, next-to-last, final = 
     -1152449.31793013  -1152449.32014213  -1152449.32014213
  Force two-norm initial, final = 0.18420961 0.00014034589
  Force max component initial, final = 0.099164409 4.3474495e-05
  Final line search alpha, max atom move = 1.0000000 4.3474495e-05
  Iterations, force evaluations = 197 394

MPI task timing breakdown:
Section |  min time  |  avg time  |  max time  |%varavg| %total
---------------------------------------------------------------
Pair    | 1.0974     | 3.1311     | 4.1093     |  49.2 | 71.89
Neigh   | 0          | 0          | 0          |   0.0 |  0.00
Comm    | 0.059026   | 0.70105    | 2.2198     |  74.8 | 16.10
Output  | 0          | 0          | 0          |   0.0 |  0.00
Modify  | 6.8596e-05 | 0.0065076  | 0.013832   |   3.8 |  0.15
Other   |            | 0.5166     |            |       | 11.86

Nlocal:        5552.90 ave        7888 max           0 min
Histogram: 4 2 2 0 2 6 4 0 14 18
Nghost:        6213.69 ave        8769 max         412 min
Histogram: 4 0 4 0 8 0 4 5 7 20
Neighs:       158427.0 ave      229870 max           0 min
Histogram: 4 2 2 0 5 3 4 4 11 17

Total # of neighbors = 8238204
Ave neighs/atom = 28.530478
Neighbor list builds = 0
Dangerous builds = 0
The dot product: -4.60388161817968e-07
Setting atom values ...
  1 settings made for x
  1 settings made for y
  1 settings made for z
Setting up cg style minimization ...
  Unit style    : metal
  Current step  : 2624
Per MPI rank memory allocation (min/avg/max) = 5.465 | 6.344 | 6.728 Mbytes
Step PotEng KinEng TotEng v_fx v_fy v_fz 
    2624   -1152449.3            0   -1152449.3 -0.031662691 -0.019602195 -0.027327242 
    2811   -1152449.3            0   -1152449.3 -6.7759854e-06 4.9343527e-06 -2.4188099e-05 
Loop time of 4.19085 on 52 procs for 187 steps with 288751 atoms

99.9% CPU use with 52 MPI tasks x 1 OpenMP threads

Minimization stats:
  Stopping criterion = linesearch alpha is zero
  Energy initial, next-to-last, final = 
     -1152449.29973015  -1152449.30179722  -1152449.30179722
  Force two-norm initial, final = 0.18142103 0.00016259887
  Force max component initial, final = 0.10481044 2.4188099e-05
  Final line search alpha, max atom move = 0.25 6.0470247e-06
  Iterations, force evaluations = 187 379

MPI task timing breakdown:
Section |  min time  |  avg time  |  max time  |%varavg| %total
---------------------------------------------------------------
Pair    | 1.0606     | 3.012      | 3.9555     |  48.2 | 71.87
Neigh   | 0          | 0          | 0          |   0.0 |  0.00
Comm    | 0.057187   | 0.67408    | 2.1334     |  73.4 | 16.08
Output  | 0          | 0          | 0          |   0.0 |  0.00
Modify  | 6.4687e-05 | 0.0062863  | 0.013398   |   3.7 |  0.15
Other   |            | 0.4985     |            |       | 11.90

Nlocal:        5552.90 ave        7885 max           0 min
Histogram: 4 2 2 0 2 6 4 0 14 18
Nghost:        6213.73 ave        8770 max         412 min
Histogram: 4 0 4 0 8 0 4 5 7 20
Neighs:       158427.0 ave      229766 max           0 min
Histogram: 4 2 2 0 5 3 4 4 11 17

Total # of neighbors = 8238208
Ave neighs/atom = 28.530492
Neighbor list builds = 0
Dangerous builds = 0
The dot product: 2.50272746165406e-07
Setting atom values ...
  1 settings made for x
  1 settings made for y
  1 settings made for z
Setting up cg style minimization ...
  Unit style    : metal
  Current step  : 2811
Per MPI rank memory allocation (min/avg/max) = 5.465 | 6.344 | 6.728 Mbytes
Step PotEng KinEng TotEng v_fx v_fy v_fz 
    2811   -1152449.3            0   -1152449.3 -0.027492433 -0.015689316  -0.02067871 
    2975   -1152449.3            0   -1152449.3 1.0228519e-05 9.8284741e-08 1.8583101e-05 
Loop time of 3.63517 on 52 procs for 164 steps with 288751 atoms

99.9% CPU use with 52 MPI tasks x 1 OpenMP threads

Minimization stats:
  Stopping criterion = energy tolerance
  Energy initial, next-to-last, final = 
     -1152449.28018305   -1152449.2821859   -1152449.2821859
  Force two-norm initial, final = 0.17884505 0.00031861011
  Force max component initial, final = 0.1092044 7.3454645e-05
  Final line search alpha, max atom move = 1.0000000 7.3454645e-05
  Iterations, force evaluations = 164 328

MPI task timing breakdown:
Section |  min time  |  avg time  |  max time  |%varavg| %total
---------------------------------------------------------------
Pair    | 0.91438    | 2.6089     | 3.4214     |  44.9 | 71.77
Neigh   | 0          | 0          | 0          |   0.0 |  0.00
Comm    | 0.049745   | 0.58289    | 1.8454     |  68.4 | 16.03
Output  | 0          | 0          | 0          |   0.0 |  0.00
Modify  | 5.3164e-05 | 0.0054292  | 0.011479   |   3.4 |  0.15
Other   |            | 0.4379     |            |       | 12.05

Nlocal:        5552.90 ave        7881 max           0 min
Histogram: 4 2 2 0 2 6 4 0 14 18
Nghost:        6213.69 ave        8770 max         412 min
Histogram: 4 0 4 0 8 0 4 5 7 20
Neighs:       158427.0 ave      229618 max           0 min
Histogram: 4 2 2 0 5 3 4 4 11 17

Total # of neighbors = 8238213
Ave neighs/atom = 28.530509
Neighbor list builds = 0
Dangerous builds = 0
The dot product: -2.47136971136272e-07
Setting atom values ...
  1 settings made for x
  1 settings made for y
  1 settings made for z
Setting up cg style minimization ...
  Unit style    : metal
  Current step  : 2975
Per MPI rank memory allocation (min/avg/max) = 5.465 | 6.344 | 6.728 Mbytes
Step PotEng KinEng TotEng v_fx v_fy v_fz 
    2975   -1152449.3            0   -1152449.3 -0.023527082 -0.011503068 -0.017705309 
    3000   -1152449.3            0   -1152449.3 -0.00013628475 0.00022109859 -0.0006206701 
    3163   -1152449.3            0   -1152449.3 -4.607257e-06 8.485667e-06 -2.2803244e-05 
Loop time of 4.17136 on 52 procs for 188 steps with 288751 atoms

99.9% CPU use with 52 MPI tasks x 1 OpenMP threads

Minimization stats:
  Stopping criterion = linesearch alpha is zero
  Energy initial, next-to-last, final = 
     -1152449.25944034  -1152449.26135888  -1152449.26135888
  Force two-norm initial, final = 0.17671557 0.00014471935
  Force max component initial, final = 0.11267142 2.2803244e-05
  Final line search alpha, max atom move = 0.5 1.1401622e-05
  Iterations, force evaluations = 188 377

MPI task timing breakdown:
Section |  min time  |  avg time  |  max time  |%varavg| %total
---------------------------------------------------------------
Pair    | 1.073      | 3.0094     | 3.9373     |  47.9 | 72.14
Neigh   | 0          | 0          | 0          |   0.0 |  0.00
Comm    | 0.062597   | 0.66888    | 2.1183     |  73.6 | 16.04
Output  | 0.00013816 | 0.00014211 | 0.00029023 |   0.0 |  0.00
Modify  | 6.8955e-05 | 0.0062734  | 0.013272   |   3.7 |  0.15
Other   |            | 0.4867     |            |       | 11.67

Nlocal:        5552.90 ave        7874 max           0 min
Histogram: 4 2 2 0 2 6 4 0 14 18
Nghost:        6213.69 ave        8770 max         412 min
Histogram: 4 0 4 0 8 0 4 5 7 20
Neighs:       158427.0 ave      229392 max           0 min
Histogram: 4 2 2 0 4 4 4 4 11 17

Total # of neighbors = 8238216
Ave neighs/atom = 28.530519
Neighbor list builds = 0
Dangerous builds = 0
The dot product: 1.95869206950205e-07
Setting atom values ...
  1 settings made for x
  1 settings made for y
  1 settings made for z
Setting up cg style minimization ...
  Unit style    : metal
  Current step  : 3163
Per MPI rank memory allocation (min/avg/max) = 5.465 | 6.344 | 6.728 Mbytes
Step PotEng KinEng TotEng v_fx v_fy v_fz 
    3163   -1152449.2            0   -1152449.2 -0.020030274 -0.0079138746 -0.016056339 
    3380   -1152449.2            0   -1152449.2 2.6928272e-06 -7.0799964e-06 1.6119227e-05 
Loop time of 4.80778 on 52 procs for 217 steps with 288751 atoms

99.9% CPU use with 52 MPI tasks x 1 OpenMP threads

Minimization stats:
  Stopping criterion = linesearch alpha is zero
  Energy initial, next-to-last, final = 
     -1152449.23745053  -1152449.23933659  -1152449.23933659
  Force two-norm initial, final = 0.17514564 6.6132476e-05
  Force max component initial, final = 0.11583791 1.6119227e-05
  Final line search alpha, max atom move = 0.5 8.0596134e-06
  Iterations, force evaluations = 217 435

MPI task timing breakdown:
Section |  min time  |  avg time  |  max time  |%varavg| %total
---------------------------------------------------------------
Pair    | 1.2123     | 3.4602     | 4.5358     |  51.6 | 71.97
Neigh   | 0          | 0          | 0          |   0.0 |  0.00
Comm    | 0.064812   | 0.77322    | 2.4565     |  78.8 | 16.08
Output  | 0          | 0          | 0          |   0.0 |  0.00
Modify  | 8.2975e-05 | 0.0071827  | 0.015227   |   3.9 |  0.15
Other   |            | 0.5672     |            |       | 11.80

Nlocal:        5552.90 ave        7871 max           0 min
Histogram: 4 2 2 0 2 6 4 0 14 18
Nghost:        6213.69 ave        8770 max         412 min
Histogram: 4 0 4 0 8 0 4 5 7 20
Neighs:       158427.0 ave      229317 max           0 min
Histogram: 4 2 2 0 4 4 4 4 11 17

Total # of neighbors = 8238212
Ave neighs/atom = 28.530506
Neighbor list builds = 0
Dangerous builds = 0
The dot product: -1.44472535939047e-07
Setting atom values ...
  1 settings made for x
  1 settings made for y
  1 settings made for z
Setting up cg style minimization ...
  Unit style    : metal
  Current step  : 3380
Per MPI rank memory allocation (min/avg/max) = 5.465 | 6.344 | 6.728 Mbytes
Step PotEng KinEng TotEng v_fx v_fy v_fz 
    3380   -1152449.2            0   -1152449.2 -0.018862013 -0.0050691744 -0.017194216 
    3592   -1152449.2            0   -1152449.2 -6.6535726e-07 3.3474634e-07 -1.4433083e-06 
Loop time of 4.73021 on 52 procs for 212 steps with 288751 atoms

99.9% CPU use with 52 MPI tasks x 1 OpenMP threads

Minimization stats:
  Stopping criterion = linesearch alpha is zero
  Energy initial, next-to-last, final = 
     -1152449.21432292   -1152449.2163629   -1152449.2163629
  Force two-norm initial, final = 0.17421236 8.9473230e-05
  Force max component initial, final = 0.11868454 1.0103117e-05
  Final line search alpha, max atom move = 0.5 5.0515584e-06
  Iterations, force evaluations = 212 429

MPI task timing breakdown:
Section |  min time  |  avg time  |  max time  |%varavg| %total
---------------------------------------------------------------
Pair    | 1.1956     | 3.4238     | 4.4711     |  51.4 | 72.38
Neigh   | 0          | 0          | 0          |   0.0 |  0.00
Comm    | 0.064388   | 0.76028    | 2.4185     |  78.8 | 16.07
Output  | 0          | 0          | 0          |   0.0 |  0.00
Modify  | 7.2666e-05 | 0.0070855  | 0.015042   |   3.9 |  0.15
Other   |            | 0.539      |            |       | 11.40

Nlocal:        5552.90 ave        7869 max           0 min
Histogram: 4 2 2 0 2 6 4 0 14 18
Nghost:        6213.69 ave        8770 max         412 min
Histogram: 4 0 4 0 8 0 4 5 7 20
Neighs:       158427.0 ave      229239 max           0 min
Histogram: 4 2 2 0 4 4 4 4 10 18

Total # of neighbors = 8238211
Ave neighs/atom = 28.530502
Neighbor list builds = 0
Dangerous builds = 0
The dot product: 2.0753072934712e-08
Setting atom values ...
  1 settings made for x
  1 settings made for y
  1 settings made for z
Setting up cg style minimization ...
  Unit style    : metal
  Current step  : 3592
Per MPI rank memory allocation (min/avg/max) = 5.465 | 6.344 | 6.728 Mbytes
Step PotEng KinEng TotEng v_fx v_fy v_fz 
    3592   -1152449.2            0   -1152449.2 -0.023098193 -0.002384364 -0.024470944 
    3768   -1152449.2            0   -1152449.2 -1.6301229e-06 1.6667016e-05 -2.7487235e-05 
Loop time of 3.89487 on 52 procs for 176 steps with 288751 atoms

99.9% CPU use with 52 MPI tasks x 1 OpenMP threads

Minimization stats:
  Stopping criterion = energy tolerance
  Energy initial, next-to-last, final = 
     -1152449.19055191  -1152449.19278892  -1152449.19278892
  Force two-norm initial, final = 0.17446153 0.0002033543
  Force max component initial, final = 0.12127578 4.1707924e-05
  Final line search alpha, max atom move = 1.0000000 4.1707924e-05
  Iterations, force evaluations = 176 352

MPI task timing breakdown:
Section |  min time  |  avg time  |  max time  |%varavg| %total
---------------------------------------------------------------
Pair    | 0.97966    | 2.8042     | 3.6732     |  46.6 | 72.00
Neigh   | 0          | 0          | 0          |   0.0 |  0.00
Comm    | 0.052775   | 0.6285     | 1.9895     |  71.0 | 16.14
Output  | 0          | 0          | 0          |   0.0 |  0.00
Modify  | 5.989e-05  | 0.0058238  | 0.012352   |   3.6 |  0.15
Other   |            | 0.4564     |            |       | 11.72

Nlocal:        5552.90 ave        7870 max           0 min
Histogram: 4 2 2 0 2 6 4 0 14 18
Nghost:        6213.67 ave        8770 max         412 min
Histogram: 4 0 4 0 8 0 4 5 7 20
Neighs:       158427.0 ave      229276 max           0 min
Histogram: 4 2 2 0 4 4 4 4 10 18

Total # of neighbors = 8238211
Ave neighs/atom = 28.530502
Neighbor list builds = 0
Dangerous builds = 0
The dot product: 3.84652260092699e-07
Setting atom values ...
  1 settings made for x
  1 settings made for y
  1 settings made for z
Setting up cg style minimization ...
  Unit style    : metal
  Current step  : 3768
Per MPI rank memory allocation (min/avg/max) = 5.465 | 6.344 | 6.728 Mbytes
Step PotEng KinEng TotEng v_fx v_fy v_fz 
    3768   -1152449.2            0   -1152449.2  -0.02819991 -3.8473698e-05 -0.030504497 
    3923   -1152449.2            0   -1152449.2 1.6959368e-05 -2.5620287e-05 5.4860351e-05 
Loop time of 3.43982 on 52 procs for 155 steps with 288751 atoms

99.9% CPU use with 52 MPI tasks x 1 OpenMP threads

Minimization stats:
  Stopping criterion = energy tolerance
  Energy initial, next-to-last, final = 
      -1152449.1663392  -1152449.16852053  -1152449.16852053
  Force two-norm initial, final = 0.17521785 0.00030995742
  Force max component initial, final = 0.12397205 8.6928043e-05
  Final line search alpha, max atom move = 1.0000000 8.6928043e-05
  Iterations, force evaluations = 155 310

MPI task timing breakdown:
Section |  min time  |  avg time  |  max time  |%varavg| %total
---------------------------------------------------------------
Pair    | 0.88718    | 2.4723     | 3.2377     |  43.3 | 71.87
Neigh   | 0          | 0          | 0          |   0.0 |  0.00
Comm    | 0.047869   | 0.55087    | 1.7456     |  66.4 | 16.01
Output  | 0          | 0          | 0          |   0.0 |  0.00
Modify  | 4.9793e-05 | 0.0051747  | 0.011003   |   3.3 |  0.15
Other   |            | 0.4115     |            |       | 11.96

Nlocal:        5552.90 ave        7870 max           0 min
Histogram: 4 2 2 0 2 6 4 0 14 18
Nghost:        6213.67 ave        8770 max         412 min
Histogram: 4 0 4 0 8 0 4 5 7 20
Neighs:       158427.0 ave      229268 max           0 min
Histogram: 4 2 2 0 4 4 4 4 10 18

Total # of neighbors = 8238215
Ave neighs/atom = 28.530516
Neighbor list builds = 0
Dangerous builds = 0
The dot product: -8.99015081090754e-07
Setting atom values ...
  1 settings made for x
  1 settings made for y
  1 settings made for z
Setting up cg style minimization ...
  Unit style    : metal
  Current step  : 3923
Per MPI rank memory allocation (min/avg/max) = 5.465 | 6.344 | 6.728 Mbytes
Step PotEng KinEng TotEng v_fx v_fy v_fz 
    3923   -1152449.1            0   -1152449.1 -0.027493408 0.0011562127 -0.028314128 
    4000   -1152449.1            0   -1152449.1 -1.9928917e-06 -3.9323024e-05 5.0525573e-05 
    4092   -1152449.1            0   -1152449.1 1.172368e-05 -1.5771513e-05 3.2458729e-05 
Loop time of 3.73942 on 52 procs for 169 steps with 288751 atoms

99.9% CPU use with 52 MPI tasks x 1 OpenMP threads

Minimization stats:
  Stopping criterion = energy tolerance
  Energy initial, next-to-last, final = 
     -1152449.14120546  -1152449.14325754  -1152449.14325754
  Force two-norm initial, final = 0.17463226 0.00020655268
  Force max component initial, final = 0.12708476 6.2303746e-05
  Final line search alpha, max atom move = 1.0000000 6.2303746e-05
  Iterations, force evaluations = 169 338

MPI task timing breakdown:
Section |  min time  |  avg time  |  max time  |%varavg| %total
---------------------------------------------------------------
Pair    | 0.94421    | 2.6903     | 3.5245     |  45.6 | 71.94
Neigh   | 0          | 0          | 0          |   0.0 |  0.00
Comm    | 0.053973   | 0.59998    | 1.9052     |  69.7 | 16.04
Output  | 0.0001336  | 0.00013819 | 0.00029425 |   0.0 |  0.00
Modify  | 5.7782e-05 | 0.0055924  | 0.011854   |   3.5 |  0.15
Other   |            | 0.4434     |            |       | 11.86

Nlocal:        5552.90 ave        7871 max           0 min
Histogram: 4 2 2 0 2 6 4 0 14 18
Nghost:        6213.67 ave        8770 max         412 min
Histogram: 4 0 4 0 8 0 4 5 7 20
Neighs:       158427.0 ave      229288 max           0 min
Histogram: 4 2 2 0 4 4 4 4 10 18

Total # of neighbors = 8238215
Ave neighs/atom = 28.530516
Neighbor list builds = 0
Dangerous builds = 0
The dot product: -5.04033044317343e-07
Setting atom values ...
  1 settings made for x
  1 settings made for y
  1 settings made for z
Setting up cg style minimization ...
  Unit style    : metal
  Current step  : 4092
Per MPI rank memory allocation (min/avg/max) = 5.465 | 6.344 | 6.728 Mbytes
Step PotEng KinEng TotEng v_fx v_fy v_fz 
    4092   -1152449.1            0   -1152449.1 -0.023925325 0.0018810043 -0.023650245 
    4299   -1152449.1            0   -1152449.1 6.5840217e-06 -1.6195164e-05 2.6302413e-05 
Loop time of 4.59177 on 52 procs for 207 steps with 288751 atoms

99.9% CPU use with 52 MPI tasks x 1 OpenMP threads

Minimization stats:
  Stopping criterion = linesearch alpha is zero
  Energy initial, next-to-last, final = 
     -1152449.11494858  -1152449.11680758  -1152449.11680758
  Force two-norm initial, final = 0.17378105 8.4415715e-05
  Force max component initial, final = 0.13006577 2.6302413e-05
  Final line search alpha, max atom move = 0.5 1.3151206e-05
  Iterations, force evaluations = 207 415

MPI task timing breakdown:
Section |  min time  |  avg time  |  max time  |%varavg| %total
---------------------------------------------------------------
Pair    | 1.1778     | 3.3104     | 4.3351     |  50.3 | 72.09
Neigh   | 0          | 0          | 0          |   0.0 |  0.00
Comm    | 0.063654   | 0.73591    | 2.3382     |  77.4 | 16.03
Output  | 0          | 0          | 0          |   0.0 |  0.00
Modify  | 7.1879e-05 | 0.0069162  | 0.014655   |   3.9 |  0.15
Other   |            | 0.5385     |            |       | 11.73

Nlocal:        5552.90 ave        7871 max           0 min
Histogram: 4 2 2 0 2 6 4 0 14 18
Nghost:        6213.73 ave        8771 max         412 min
Histogram: 4 0 4 0 8 0 4 5 7 20
Neighs:       158427.0 ave      229269 max           0 min
Histogram: 4 2 2 0 4 4 4 4 10 18

Total # of neighbors = 8238213
Ave neighs/atom = 28.530509
Neighbor list builds = 0
Dangerous builds = 0
The dot product: -3.32621709281936e-07
Setting atom values ...
  1 settings made for x
  1 settings made for y
  1 settings made for z
Setting up cg style minimization ...
  Unit style    : metal
  Current step  : 4299
Per MPI rank memory allocation (min/avg/max) = 5.465 | 6.344 | 6.728 Mbytes
Step PotEng KinEng TotEng v_fx v_fy v_fz 
    4299   -1152449.1            0   -1152449.1 -0.018779536 0.0017355882 -0.017638725 
    4487   -1152449.1            0   -1152449.1 2.2270529e-06 -1.3244536e-05 1.7842701e-05 
Loop time of 4.14881 on 52 procs for 188 steps with 288751 atoms

99.9% CPU use with 52 MPI tasks x 1 OpenMP threads

Minimization stats:
  Stopping criterion = energy tolerance
  Energy initial, next-to-last, final = 
     -1152449.08734308  -1152449.08907359  -1152449.08907359
  Force two-norm initial, final = 0.17327037 0.00011972907
  Force max component initial, final = 0.13297854 2.4725718e-05
  Final line search alpha, max atom move = 1.0000000 2.4725718e-05
  Iterations, force evaluations = 188 376

MPI task timing breakdown:
Section |  min time  |  avg time  |  max time  |%varavg| %total
---------------------------------------------------------------
Pair    | 1.048      | 2.9911     | 3.921      |  48.0 | 72.09
Neigh   | 0          | 0          | 0          |   0.0 |  0.00
Comm    | 0.056114   | 0.66622    | 2.1166     |  73.5 | 16.06
Output  | 0          | 0          | 0          |   0.0 |  0.00
Modify  | 6.8811e-05 | 0.0062137  | 0.013156   |   3.7 |  0.15
Other   |            | 0.4853     |            |       | 11.70

Nlocal:        5552.90 ave        7871 max           0 min
Histogram: 4 2 2 0 2 6 4 0 14 18
Nghost:        6213.73 ave        8771 max         412 min
Histogram: 4 0 4 0 8 0 4 5 7 20
Neighs:       158427.0 ave      229266 max           0 min
Histogram: 4 2 2 0 4 4 4 4 10 18

Total # of neighbors = 8238213
Ave neighs/atom = 28.530509
Neighbor list builds = 0
Dangerous builds = 0
The dot product: -1.81197736105265e-07
Setting atom values ...
  1 settings made for x
  1 settings made for y
  1 settings made for z
Setting up cg style minimization ...
  Unit style    : metal
  Current step  : 4487
Per MPI rank memory allocation (min/avg/max) = 5.465 | 6.344 | 6.728 Mbytes
Step PotEng KinEng TotEng v_fx v_fy v_fz 
    4487   -1152449.1            0   -1152449.1 -0.013519075 0.0014335845 -0.012260673 
    4664   -1152449.1            0   -1152449.1 2.816595e-06 3.2127632e-06 -1.5401584e-06 
Loop time of 3.911 on 52 procs for 177 steps with 288751 atoms

99.9% CPU use with 52 MPI tasks x 1 OpenMP threads

Minimization stats:
  Stopping criterion = energy tolerance
  Energy initial, next-to-last, final = 
      -1152449.0583974  -1152449.06005316  -1152449.06005316
  Force two-norm initial, final = 0.17335701 0.0001676141
  Force max component initial, final = 0.13565525 2.7210095e-05
  Final line search alpha, max atom move = 1.0000000 2.7210095e-05
  Iterations, force evaluations = 177 354

MPI task timing breakdown:
Section |  min time  |  avg time  |  max time  |%varavg| %total
---------------------------------------------------------------
Pair    | 0.98456    | 2.8229     | 3.693      |  46.8 | 72.18
Neigh   | 0          | 0          | 0          |   0.0 |  0.00
Comm    | 0.053331   | 0.6293     | 1.9901     |  71.5 | 16.09
Output  | 0          | 0          | 0          |   0.0 |  0.00
Modify  | 6.2202e-05 | 0.0058597  | 0.012459   |   3.6 |  0.15
Other   |            | 0.4529     |            |       | 11.58

Nlocal:        5552.90 ave        7870 max           0 min
Histogram: 4 2 2 0 2 6 4 0 14 18
Nghost:        6213.77 ave        8771 max         412 min
Histogram: 4 0 4 0 8 0 4 5 7 20
Neighs:       158427.0 ave      229242 max           0 min
Histogram: 4 2 2 0 4 4 4 4 10 18

Total # of neighbors = 8238214
Ave neighs/atom = 28.530512
Neighbor list builds = 0
Dangerous builds = 0
The dot product: 4.77034401522773e-09
Setting atom values ...
  1 settings made for x
  1 settings made for y
  1 settings made for z
Setting up cg style minimization ...
  Unit style    : metal
  Current step  : 4664
Per MPI rank memory allocation (min/avg/max) = 5.465 | 6.344 | 6.728 Mbytes
Step PotEng KinEng TotEng v_fx v_fy v_fz 
    4664     -1152449            0     -1152449 -0.0089458079 0.0011188884 -0.0079868287 
    4855     -1152449            0     -1152449 -7.5824781e-06 1.9117083e-05 -2.7351958e-05 
Loop time of 4.2443 on 52 procs for 191 steps with 288751 atoms

99.9% CPU use with 52 MPI tasks x 1 OpenMP threads

Minimization stats:
  Stopping criterion = energy tolerance
  Energy initial, next-to-last, final = 
     -1152449.02816445  -1152449.02980812  -1152449.02980812
  Force two-norm initial, final = 0.17388655 0.00011550349
  Force max component initial, final = 0.13801822 2.7351958e-05
  Final line search alpha, max atom move = 1.0000000 2.7351958e-05
  Iterations, force evaluations = 191 382

MPI task timing breakdown:
Section |  min time  |  avg time  |  max time  |%varavg| %total
---------------------------------------------------------------
Pair    | 1.0651     | 3.0451     | 3.9844     |  48.5 | 71.75
Neigh   | 0          | 0          | 0          |   0.0 |  0.00
Comm    | 0.06531    | 0.68288    | 2.1483     |  73.7 | 16.09
Output  | 0          | 0          | 0          |   0.0 |  0.00
Modify  | 6.7802e-05 | 0.0063183  | 0.013389   |   3.7 |  0.15
Other   |            | 0.51       |            |       | 12.02

Nlocal:        5552.90 ave        7869 max           0 min
Histogram: 4 2 2 0 2 6 4 0 14 18
Nghost:        6213.71 ave        8771 max         412 min
Histogram: 4 0 4 0 8 0 4 5 7 20
Neighs:       158427.0 ave      229209 max           0 min
Histogram: 4 2 2 0 4 4 4 4 10 18

Total # of neighbors = 8238218
Ave neighs/atom = 28.530526
Neighbor list builds = 0
Dangerous builds = 0
The dot product: 2.25333071365209e-07
Setting atom values ...
  1 settings made for x
  1 settings made for y
  1 settings made for z
Setting up cg style minimization ...
  Unit style    : metal
  Current step  : 4855
Per MPI rank memory allocation (min/avg/max) = 5.465 | 6.344 | 6.728 Mbytes
Step PotEng KinEng TotEng v_fx v_fy v_fz 
    4855     -1152449            0     -1152449 -0.0055803383 0.00093082578 -0.0050834296 
    5000     -1152449            0     -1152449 1.7516441e-06 3.106687e-05 -3.304937e-05 
    5063     -1152449            0     -1152449 -7.2214799e-08 5.325337e-06 -5.9358332e-06 
Loop time of 4.63105 on 52 procs for 208 steps with 288751 atoms

99.9% CPU use with 52 MPI tasks x 1 OpenMP threads

Minimization stats:
  Stopping criterion = linesearch alpha is zero
  Energy initial, next-to-last, final = 
      -1152448.9968026  -1152448.99845016  -1152448.99845016
  Force two-norm initial, final = 0.17464144 9.0908838e-05
  Force max component initial, final = 0.14013265 1.7058948e-05
  Final line search alpha, max atom move = 0.5 8.5294740e-06
  Iterations, force evaluations = 208 419

MPI task timing breakdown:
Section |  min time  |  avg time  |  max time  |%varavg| %total
---------------------------------------------------------------
Pair    | 1.1674     | 3.3462     | 4.3688     |  50.9 | 72.26
Neigh   | 0          | 0          | 0          |   0.0 |  0.00
Comm    | 0.063487   | 0.74399    | 2.3628     |  77.9 | 16.07
Output  | 0.00013488 | 0.00013899 | 0.00029988 |   0.0 |  0.00
Modify  | 7.32e-05   | 0.006922   | 0.014716   |   3.9 |  0.15
Other   |            | 0.5338     |            |       | 11.53

Nlocal:        5552.90 ave        7869 max           0 min
Histogram: 4 2 2 0 2 6 4 0 14 18
Nghost:        6213.71 ave        8771 max         412 min
Histogram: 4 0 4 0 8 0 4 5 7 20
Neighs:       158427.0 ave      229203 max           0 min
Histogram: 4 2 2 0 4 4 4 4 10 18

Total # of neighbors = 8238215
Ave neighs/atom = 28.530516
Neighbor list builds = 0
Dangerous builds = 0
The dot product: 4.26805316113704e-08
Setting atom values ...
  1 settings made for x
  1 settings made for y
  1 settings made for z
Setting up cg style minimization ...
  Unit style    : metal
  Current step  : 5063
Per MPI rank memory allocation (min/avg/max) = 5.465 | 6.344 | 6.728 Mbytes
Step PotEng KinEng TotEng v_fx v_fy v_fz 
    5063     -1152449            0     -1152449 -0.0029961884 0.00034191856  -0.00248993 
    5271     -1152449            0     -1152449 -5.2039828e-06 1.3393224e-05 -1.8156833e-05 
Loop time of 4.61625 on 52 procs for 208 steps with 288751 atoms

99.9% CPU use with 52 MPI tasks x 1 OpenMP threads

Minimization stats:
  Stopping criterion = linesearch alpha is zero
  Energy initial, next-to-last, final = 
     -1152448.96437866  -1152448.96604106  -1152448.96604106
  Force two-norm initial, final = 0.1755123 9.0174605e-05
  Force max component initial, final = 0.14205212 1.8156833e-05
  Final line search alpha, max atom move = 0.5 9.0784167e-06
  Iterations, force evaluations = 208 417

MPI task timing breakdown:
Section |  min time  |  avg time  |  max time  |%varavg| %total
---------------------------------------------------------------
Pair    | 1.1645     | 3.3266     | 4.3489     |  50.7 | 72.06
Neigh   | 0          | 0          | 0          |   0.0 |  0.00
Comm    | 0.068169   | 0.74409    | 2.3542     |  77.3 | 16.12
Output  | 0          | 0          | 0          |   0.0 |  0.00
Modify  | 7.6261e-05 | 0.0068954  | 0.014602   |   3.9 |  0.15
Other   |            | 0.5387     |            |       | 11.67

Nlocal:        5552.90 ave        7868 max           0 min
Histogram: 4 2 2 0 2 6 4 0 14 18
Nghost:        6213.71 ave        8771 max         412 min
Histogram: 4 0 4 0 8 0 4 5 7 20
Neighs:       158427.0 ave      229189 max           0 min
Histogram: 4 2 2 0 4 4 4 4 10 18

Total # of neighbors = 8238219
Ave neighs/atom = 28.530530
Neighbor list builds = 0
Dangerous builds = 0
The dot product: 1.26938793287752e-07
Setting atom values ...
  1 settings made for x
  1 settings made for y
  1 settings made for z
Setting up cg style minimization ...
  Unit style    : metal
  Current step  : 5271
Per MPI rank memory allocation (min/avg/max) = 5.465 | 6.344 | 6.728 Mbytes
Step PotEng KinEng TotEng v_fx v_fy v_fz 
    5271   -1152448.9            0   -1152448.9 -0.0012517035 -0.00035446936 -0.00049108111 
    5500   -1152448.9            0   -1152448.9 9.8935961e-07 -5.3413585e-06 6.3428563e-06 
Loop time of 5.11044 on 52 procs for 229 steps with 288751 atoms

99.9% CPU use with 52 MPI tasks x 1 OpenMP threads

Minimization stats:
  Stopping criterion = linesearch alpha is zero
  Energy initial, next-to-last, final = 
     -1152448.93101009   -1152448.9327207   -1152448.9327207
  Force two-norm initial, final = 0.17634484 5.3104908e-05
  Force max component initial, final = 0.14373009 9.9916249e-06
  Final line search alpha, max atom move = 0.5 4.9958125e-06
  Iterations, force evaluations = 229 461

MPI task timing breakdown:
Section |  min time  |  avg time  |  max time  |%varavg| %total
---------------------------------------------------------------
Pair    | 1.3126     | 3.6754     | 4.8196     |  52.9 | 71.92
Neigh   | 0          | 0          | 0          |   0.0 |  0.00
Comm    | 0.070058   | 0.8192     | 2.6028     |  81.1 | 16.03
Output  | 0          | 0          | 0          |   0.0 |  0.00
Modify  | 7.9968e-05 | 0.007685   | 0.016372   |   4.1 |  0.15
Other   |            | 0.6082     |            |       | 11.90

Nlocal:        5552.90 ave        7869 max           0 min
Histogram: 4 2 2 0 2 6 4 0 14 18
Nghost:        6213.75 ave        8771 max         412 min
Histogram: 4 0 4 0 8 0 4 5 7 20
Neighs:       158427.0 ave      229203 max           0 min
Histogram: 4 2 2 0 4 4 4 4 10 18

Total # of neighbors = 8238215
Ave neighs/atom = 28.530516
Neighbor list builds = 0
Dangerous builds = 0
The dot product: -4.19708561410178e-08
Setting atom values ...
  1 settings made for x
  1 settings made for y
  1 settings made for z
Setting up cg style minimization ...
  Unit style    : metal
  Current step  : 5500
Per MPI rank memory allocation (min/avg/max) = 5.465 | 6.344 | 6.728 Mbytes
Step PotEng KinEng TotEng v_fx v_fy v_fz 
    5500   -1152448.9            0   -1152448.9 3.5649946e-05 -0.0013184382 0.0013953425 
    5656   -1152448.9            0   -1152448.9 2.4222401e-05 -7.1993205e-05 9.1327577e-05 
Loop time of 3.44962 on 52 procs for 156 steps with 288751 atoms

99.9% CPU use with 52 MPI tasks x 1 OpenMP threads

Minimization stats:
  Stopping criterion = energy tolerance
  Energy initial, next-to-last, final = 
     -1152448.89681066   -1152448.8984418   -1152448.8984418
  Force two-norm initial, final = 0.17710778 0.00034380629
  Force max component initial, final = 0.1451839 9.1327577e-05
  Final line search alpha, max atom move = 1.0000000 9.1327577e-05
  Iterations, force evaluations = 156 312

MPI task timing breakdown:
Section |  min time  |  avg time  |  max time  |%varavg| %total
---------------------------------------------------------------
Pair    | 0.87053    | 2.485      | 3.2542     |  43.9 | 72.04
Neigh   | 0          | 0          | 0          |   0.0 |  0.00
Comm    | 0.049531   | 0.55453    | 1.7661     |  67.0 | 16.08
Output  | 0          | 0          | 0          |   0.0 |  0.00
Modify  | 5.4936e-05 | 0.005163   | 0.010954   |   3.3 |  0.15
Other   |            | 0.4049     |            |       | 11.74

Nlocal:        5552.90 ave        7869 max           0 min
Histogram: 4 2 2 0 2 6 4 0 14 18
Nghost:        6213.75 ave        8771 max         412 min
Histogram: 4 0 4 0 8 0 4 5 7 20
Neighs:       158427.0 ave      229198 max           0 min
Histogram: 4 2 2 0 4 4 4 4 10 18

Total # of neighbors = 8238216
Ave neighs/atom = 28.530519
Neighbor list builds = 0
Dangerous builds = 0
The dot product: -5.07045709008288e-07
Setting atom values ...
  1 settings made for x
  1 settings made for y
  1 settings made for z
Setting up cg style minimization ...
  Unit style    : metal
  Current step  : 5656
Per MPI rank memory allocation (min/avg/max) = 5.465 | 6.344 | 6.728 Mbytes
Step PotEng KinEng TotEng v_fx v_fy v_fz 
    5656   -1152448.9            0   -1152448.9 0.0016559871 -0.0034097069 0.0046027323 
    5850   -1152448.9            0   -1152448.9 -7.6054409e-06 1.9758305e-05 -2.5338111e-05 
Loop time of 4.29864 on 52 procs for 194 steps with 288751 atoms

99.9% CPU use with 52 MPI tasks x 1 OpenMP threads

Minimization stats:
  Stopping criterion = linesearch alpha is zero
  Energy initial, next-to-last, final = 
     -1152448.86149729  -1152448.86310875  -1152448.86310875
  Force two-norm initial, final = 0.17839098 0.00010831292
  Force max component initial, final = 0.1469051 2.5338111e-05
  Final line search alpha, max atom move = 0.5 1.2669056e-05
  Iterations, force evaluations = 194 389

MPI task timing breakdown:
Section |  min time  |  avg time  |  max time  |%varavg| %total
---------------------------------------------------------------
Pair    | 1.1158     | 3.1007     | 4.0595     |  48.4 | 72.13
Neigh   | 0          | 0          | 0          |   0.0 |  0.00
Comm    | 0.05937    | 0.68831    | 2.1877     |  74.6 | 16.01
Output  | 0          | 0          | 0          |   0.0 |  0.00
Modify  | 6.6526e-05 | 0.0065036  | 0.013799   |   3.7 |  0.15
Other   |            | 0.5032     |            |       | 11.71

Nlocal:        5552.90 ave        7869 max           0 min
Histogram: 4 2 2 0 2 6 4 0 14 18
Nghost:        6213.77 ave        8771 max         412 min
Histogram: 4 0 4 0 8 0 4 5 7 20
Neighs:       158427.0 ave      229181 max           0 min
Histogram: 4 2 2 0 4 4 4 4 10 18

Total # of neighbors = 8238215
Ave neighs/atom = 28.530516
Neighbor list builds = 0
Dangerous builds = 0
The dot product: 1.15796172889637e-07
Setting atom values ...
  1 settings made for x
  1 settings made for y
  1 settings made for z
Setting up cg style minimization ...
  Unit style    : metal
  Current step  : 5850
Per MPI rank memory allocation (min/avg/max) = 5.465 | 6.344 | 6.728 Mbytes
Step PotEng KinEng TotEng v_fx v_fy v_fz 
    5850   -1152448.8            0   -1152448.8 0.0028916475 -0.0054583557 0.0074426194 
    6000   -1152448.8            0   -1152448.8 -1.1236698e-05 3.5483782e-05 -4.3370562e-05 
    6057   -1152448.8            0   -1152448.8 2.4967972e-06 -2.0861737e-06 3.7670796e-06 
Loop time of 4.58877 on 52 procs for 207 steps with 288751 atoms

99.9% CPU use with 52 MPI tasks x 1 OpenMP threads

Minimization stats:
  Stopping criterion = linesearch alpha is zero
  Energy initial, next-to-last, final = 
      -1152448.8251238  -1152448.82684767  -1152448.82684767
  Force two-norm initial, final = 0.17963955 9.3296068e-05
  Force max component initial, final = 0.14845987 1.7025408e-05
  Final line search alpha, max atom move = 0.5 8.5127040e-06
  Iterations, force evaluations = 207 415

MPI task timing breakdown:
Section |  min time  |  avg time  |  max time  |%varavg| %total
---------------------------------------------------------------
Pair    | 1.1579     | 3.3013     | 4.3256     |  50.5 | 71.94
Neigh   | 0          | 0          | 0          |   0.0 |  0.00
Comm    | 0.062544   | 0.73913    | 2.3442     |  77.1 | 16.11
Output  | 0.00013279 | 0.00013692 | 0.00029638 |   0.0 |  0.00
Modify  | 6.5153e-05 | 0.0068547  | 0.014557   |   3.9 |  0.15
Other   |            | 0.5413     |            |       | 11.80

Nlocal:        5552.90 ave        7867 max           0 min
Histogram: 4 2 2 0 2 6 4 0 14 18
Nghost:        6213.73 ave        8771 max         412 min
Histogram: 4 0 4 0 8 0 4 5 7 20
Neighs:       158427.0 ave      229113 max           0 min
Histogram: 4 2 2 0 4 4 4 4 10 18

Total # of neighbors = 8238217
Ave neighs/atom = 28.530523
Neighbor list builds = 0
Dangerous builds = 0
The dot product: -1.50608440052966e-08
Setting atom values ...
  1 settings made for x
  1 settings made for y
  1 settings made for z
Setting up cg style minimization ...
  Unit style    : metal
  Current step  : 6057
Per MPI rank memory allocation (min/avg/max) = 5.465 | 6.344 | 6.728 Mbytes
Step PotEng KinEng TotEng v_fx v_fy v_fz 
    6057   -1152448.8            0   -1152448.8 0.0035553685 -0.0071427716 0.0094900659 
    6239   -1152448.8            0   -1152448.8 5.3358875e-06 -4.4479744e-06 7.961458e-06 
Loop time of 4.04791 on 52 procs for 182 steps with 288751 atoms

99.9% CPU use with 52 MPI tasks x 1 OpenMP threads

Minimization stats:
  Stopping criterion = linesearch alpha is zero
  Energy initial, next-to-last, final = 
     -1152448.78804719  -1152448.78966825  -1152448.78966825
  Force two-norm initial, final = 0.18020103 0.00018245688
  Force max component initial, final = 0.14948892 3.4019009e-05
  Final line search alpha, max atom move = 0.25 8.5047522e-06
  Iterations, force evaluations = 182 367

MPI task timing breakdown:
Section |  min time  |  avg time  |  max time  |%varavg| %total
---------------------------------------------------------------
Pair    | 1.0305     | 2.9276     | 3.8264     |  47.6 | 72.32
Neigh   | 0          | 0          | 0          |   0.0 |  0.00
Comm    | 0.05505    | 0.65041    | 2.0668     |  73.2 | 16.07
Output  | 0          | 0          | 0          |   0.0 |  0.00
Modify  | 6.2783e-05 | 0.0061143  | 0.012908   |   3.6 |  0.15
Other   |            | 0.4638     |            |       | 11.46

Nlocal:        5552.90 ave        7867 max           0 min
Histogram: 4 2 2 0 2 6 4 0 14 18
Nghost:        6213.73 ave        8771 max         412 min
Histogram: 4 0 4 0 8 0 4 5 7 20
Neighs:       158427.0 ave      229116 max           0 min
Histogram: 4 2 2 0 4 4 4 4 10 18

Total # of neighbors = 8238213
Ave neighs/atom = 28.530509
Neighbor list builds = 0
Dangerous builds = 0
The dot product: -2.10565222171625e-08
Setting atom values ...
  1 settings made for x
  1 settings made for y
  1 settings made for z
Setting up cg style minimization ...
  Unit style    : metal
  Current step  : 6239
Per MPI rank memory allocation (min/avg/max) = 5.465 | 6.344 | 6.728 Mbytes
Step PotEng KinEng TotEng v_fx v_fy v_fz 
    6239   -1152448.7            0   -1152448.7 0.0045867504 -0.010083041  0.013024092 
    6384   -1152448.8            0   -1152448.8 1.8842019e-05 -1.9655957e-05 3.186406e-05 
Loop time of 3.21262 on 52 procs for 145 steps with 288751 atoms

99.9% CPU use with 52 MPI tasks x 1 OpenMP threads

Minimization stats:
  Stopping criterion = energy tolerance
  Energy initial, next-to-last, final = 
     -1152448.74984973  -1152448.75148096  -1152448.75148096
  Force two-norm initial, final = 0.18121769 0.00030646428
  Force max component initial, final = 0.15083608 6.8048483e-05
  Final line search alpha, max atom move = 1.0000000 6.8048483e-05
  Iterations, force evaluations = 145 290

MPI task timing breakdown:
Section |  min time  |  avg time  |  max time  |%varavg| %total
---------------------------------------------------------------
Pair    | 0.80717    | 2.3067     | 3.0327     |  42.3 | 71.80
Neigh   | 0          | 0          | 0          |   0.0 |  0.00
Comm    | 0.043224   | 0.51741    | 1.6335     |  64.3 | 16.11
Output  | 0          | 0          | 0          |   0.0 |  0.00
Modify  | 4.6047e-05 | 0.0047935  | 0.010153   |   3.2 |  0.15
Other   |            | 0.3837     |            |       | 11.94

Nlocal:        5552.90 ave        7867 max           0 min
Histogram: 4 2 2 0 2 6 4 0 14 18
Nghost:        6213.81 ave        8771 max         412 min
Histogram: 4 0 4 0 8 0 4 5 7 20
Neighs:       158427.0 ave      229136 max           0 min
Histogram: 4 2 2 0 4 4 4 4 10 18

Total # of neighbors = 8238213
Ave neighs/atom = 28.530509
Neighbor list builds = 0
Dangerous builds = 0
The dot product: -4.74918727274998e-08
Setting atom values ...
  1 settings made for x
  1 settings made for y
  1 settings made for z
Setting up cg style minimization ...
  Unit style    : metal
  Current step  : 6384
Per MPI rank memory allocation (min/avg/max) = 5.465 | 6.344 | 6.728 Mbytes
Step PotEng KinEng TotEng v_fx v_fy v_fz 
    6384   -1152448.7            0   -1152448.7 0.0052444385 -0.012959189  0.016250636 
    6540   -1152448.7            0   -1152448.7 -4.4832445e-06 4.9407925e-06 -7.8170231e-06 
Loop time of 3.52391 on 52 procs for 156 steps with 288751 atoms

99.8% CPU use with 52 MPI tasks x 1 OpenMP threads

Minimization stats:
  Stopping criterion = linesearch alpha is zero
  Energy initial, next-to-last, final = 
     -1152448.71073531  -1152448.71254367  -1152448.71254367
  Force two-norm initial, final = 0.18167865 0.00017800469
  Force max component initial, final = 0.15190582 2.5371408e-05
  Final line search alpha, max atom move = 0.25 6.3428519e-06
  Iterations, force evaluations = 156 315

MPI task timing breakdown:
Section |  min time  |  avg time  |  max time  |%varavg| %total
---------------------------------------------------------------
Pair    | 0.88337    | 2.523      | 3.287      |  44.0 | 71.60
Neigh   | 0          | 0          | 0          |   0.0 |  0.00
Comm    | 0.050538   | 0.5632     | 1.7816     |  67.4 | 15.98
Output  | 0          | 0          | 0          |   0.0 |  0.00
Modify  | 5.0657e-05 | 0.0052165  | 0.011094   |   3.4 |  0.15
Other   |            | 0.4325     |            |       | 12.27

Nlocal:        5552.90 ave        7867 max           0 min
Histogram: 4 2 2 0 2 6 4 0 14 18
Nghost:        6213.77 ave        8771 max         412 min
Histogram: 4 0 4 0 8 0 4 5 7 20
Neighs:       158427.0 ave      229129 max           0 min
Histogram: 4 2 2 0 4 4 4 4 10 18

Total # of neighbors = 8238212
Ave neighs/atom = 28.530506
Neighbor list builds = 0
Dangerous builds = 0
The dot product: 6.52839582014012e-09
Setting atom values ...
  1 settings made for x
  1 settings made for y
  1 settings made for z
Setting up cg style minimization ...
  Unit style    : metal
  Current step  : 6540
Per MPI rank memory allocation (min/avg/max) = 5.465 | 6.344 | 6.728 Mbytes
Step PotEng KinEng TotEng v_fx v_fy v_fz 
    6540   -1152448.7            0   -1152448.7 0.0055970682 -0.014929928  0.018385565 
    6721   -1152448.7            0   -1152448.7 1.3870048e-05 -3.5071712e-05 4.3660833e-05 
Loop time of 3.99363 on 52 procs for 181 steps with 288751 atoms

99.9% CPU use with 52 MPI tasks x 1 OpenMP threads

Minimization stats:
  Stopping criterion = energy tolerance
  Energy initial, next-to-last, final = 
     -1152448.67134534  -1152448.67309523  -1152448.67309523
  Force two-norm initial, final = 0.18053536 0.0001726654
  Force max component initial, final = 0.15192858 4.3660833e-05
  Final line search alpha, max atom move = 1.0000000 4.3660833e-05
  Iterations, force evaluations = 181 362

MPI task timing breakdown:
Section |  min time  |  avg time  |  max time  |%varavg| %total
---------------------------------------------------------------
Pair    | 1.0096     | 2.8824     | 3.7758     |  47.2 | 72.18
Neigh   | 0          | 0          | 0          |   0.0 |  0.00
Comm    | 0.054327   | 0.64347    | 2.035      |  72.0 | 16.11
Output  | 0          | 0          | 0          |   0.0 |  0.00
Modify  | 6.4391e-05 | 0.0059764  | 0.012697   |   3.6 |  0.15
Other   |            | 0.4617     |            |       | 11.56

Nlocal:        5552.90 ave        7868 max           0 min
Histogram: 4 2 2 0 2 6 4 0 14 18
Nghost:        6213.77 ave        8771 max         412 min
Histogram: 4 0 4 0 8 0 4 5 7 20
Neighs:       158427.0 ave      229170 max           0 min
Histogram: 4 2 2 0 4 4 4 4 10 18

Total # of neighbors = 8238207
Ave neighs/atom = 28.530488
Neighbor list builds = 0
Dangerous builds = 0
The dot product: 1.39286730723257e-08
Setting atom values ...
  1 settings made for x
  1 settings made for y
  1 settings made for z
Setting up cg style minimization ...
  Unit style    : metal
  Current step  : 6721
Per MPI rank memory allocation (min/avg/max) = 5.465 | 6.344 | 6.728 Mbytes
Step PotEng KinEng TotEng v_fx v_fy v_fz 
    6721   -1152448.6            0   -1152448.6 0.0059605949 -0.017882151   0.02154809 
    6905   -1152448.6            0   -1152448.6 -1.4288254e-05 3.5445577e-05 -4.433394e-05 
Loop time of 4.07681 on 52 procs for 184 steps with 288751 atoms

99.9% CPU use with 52 MPI tasks x 1 OpenMP threads

Minimization stats:
  Stopping criterion = energy tolerance
  Energy initial, next-to-last, final = 
       -1152448.631602  -1152448.63362024  -1152448.63362024
  Force two-norm initial, final = 0.1796116 0.00017166407
  Force max component initial, final = 0.15167944 4.4333940e-05
  Final line search alpha, max atom move = 1.0000000 4.4333940e-05
  Iterations, force evaluations = 184 368

MPI task timing breakdown:
Section |  min time  |  avg time  |  max time  |%varavg| %total
---------------------------------------------------------------
Pair    | 1.0454     | 2.9355     | 3.8522     |  47.3 | 72.00
Neigh   | 0          | 0          | 0          |   0.0 |  0.00
Comm    | 0.056326   | 0.65292    | 2.0729     |  72.5 | 16.02
Output  | 0          | 0          | 0          |   0.0 |  0.00
Modify  | 6.1275e-05 | 0.0061324  | 0.012953   |   3.6 |  0.15
Other   |            | 0.4823     |            |       | 11.83

Nlocal:        5552.90 ave        7867 max           0 min
Histogram: 4 2 2 0 2 6 4 0 14 18
Nghost:        6213.85 ave        8771 max         412 min
Histogram: 4 0 4 0 8 0 4 5 7 20
Neighs:       158427.0 ave      229135 max           0 min
Histogram: 4 2 2 0 4 4 4 4 10 18

Total # of neighbors = 8238199
Ave neighs/atom = 28.530461
Neighbor list builds = 0
Dangerous builds = 0
The dot product: -3.34127324915531e-08
Setting atom values ...
  1 settings made for x
  1 settings made for y
  1 settings made for z
Setting up cg style minimization ...
  Unit style    : metal
  Current step  : 6905
Per MPI rank memory allocation (min/avg/max) = 5.465 | 6.344 | 6.728 Mbytes
Step PotEng KinEng TotEng v_fx v_fy v_fz 
    6905   -1152448.6            0   -1152448.6 0.0094160635 -0.018862711  0.024825967 
    7000   -1152448.6            0   -1152448.6 9.5829816e-05 -0.00024789199 0.00030784243 
    7105   -1152448.6            0   -1152448.6 1.1590503e-05 -3.0240096e-05 3.7487622e-05 
Loop time of 4.43175 on 52 procs for 200 steps with 288751 atoms

99.9% CPU use with 52 MPI tasks x 1 OpenMP threads

Minimization stats:
  Stopping criterion = energy tolerance
  Energy initial, next-to-last, final = 
     -1152448.59290878  -1152448.59508382  -1152448.59508382
  Force two-norm initial, final = 0.17781086 0.00015284381
  Force max component initial, final = 0.14903935 3.7487622e-05
  Final line search alpha, max atom move = 1.0000000 3.7487622e-05
  Iterations, force evaluations = 200 400

MPI task timing breakdown:
Section |  min time  |  avg time  |  max time  |%varavg| %total
---------------------------------------------------------------
Pair    | 1.1185     | 3.1843     | 4.1696     |  49.6 | 71.85
Neigh   | 0          | 0          | 0          |   0.0 |  0.00
Comm    | 0.059368   | 0.71223    | 2.2656     |  75.7 | 16.07
Output  | 0.00013376 | 0.00013836 | 0.00029611 |   0.0 |  0.00
Modify  | 6.6604e-05 | 0.0066085  | 0.014044   |   3.8 |  0.15
Other   |            | 0.5285     |            |       | 11.92

Nlocal:        5552.90 ave        7867 max           0 min
Histogram: 4 2 2 0 2 6 4 0 14 18
Nghost:        6213.85 ave        8771 max         412 min
Histogram: 4 0 4 0 8 0 4 5 7 20
Neighs:       158427.0 ave      229136 max           0 min
Histogram: 4 2 2 0 4 4 4 4 10 18

Total # of neighbors = 8238205
Ave neighs/atom = 28.530481
Neighbor list builds = 0
Dangerous builds = 0
The dot product: 1.51489164586853e-08
Setting atom values ...
  1 settings made for x
  1 settings made for y
  1 settings made for z
Setting up cg style minimization ...
  Unit style    : metal
  Current step  : 7105
Per MPI rank memory allocation (min/avg/max) = 5.465 | 6.344 | 6.728 Mbytes
Step PotEng KinEng TotEng v_fx v_fy v_fz 
    7105   -1152448.6            0   -1152448.6  0.011446141 -0.018628364  0.025971717 
    7326   -1152448.6            0   -1152448.6 -1.8495002e-05 3.9563232e-05 -5.1297922e-05 
Loop time of 4.90012 on 52 procs for 221 steps with 288751 atoms

99.9% CPU use with 52 MPI tasks x 1 OpenMP threads

Minimization stats:
  Stopping criterion = energy tolerance
  Energy initial, next-to-last, final = 
     -1152448.55620247   -1152448.5685885   -1152448.5685885
  Force two-norm initial, final = 0.1858919 0.00024979167
  Force max component initial, final = 0.14656545 5.1297922e-05
  Final line search alpha, max atom move = 1.0000000 5.1297922e-05
  Iterations, force evaluations = 221 442

MPI task timing breakdown:
Section |  min time  |  avg time  |  max time  |%varavg| %total
---------------------------------------------------------------
Pair    | 1.2632     | 3.5281     | 4.6156     |  51.8 | 72.00
Neigh   | 2.049e-05  | 0.005844   | 0.0085858  |   3.2 |  0.12
Comm    | 0.067823   | 0.78636    | 2.4948     |  79.6 | 16.05
Output  | 0          | 0          | 0          |   0.0 |  0.00
Modify  | 7.5634e-05 | 0.0073676  | 0.015579   |   4.0 |  0.15
Other   |            | 0.5725     |            |       | 11.68

Nlocal:        5552.90 ave        7867 max           0 min
Histogram: 4 2 2 0 2 6 4 0 14 18
Nghost:        6213.85 ave        8771 max         412 min
Histogram: 4 0 4 0 8 0 4 5 7 20
Neighs:       158427.0 ave      229111 max           0 min
Histogram: 4 2 2 0 4 4 4 4 10 18

Total # of neighbors = 8238192
Ave neighs/atom = 28.530436
Neighbor list builds = 1
Dangerous builds = 0
The dot product: 9.55341649327373e-07
Setting atom values ...
  1 settings made for x
  1 settings made for y
  1 settings made for z
Setting up cg style minimization ...
  Unit style    : metal
  Current step  : 7326
Per MPI rank memory allocation (min/avg/max) = 5.465 | 6.344 | 6.728 Mbytes
Step PotEng KinEng TotEng v_fx v_fy v_fz 
    7326   -1152448.5            0   -1152448.5 0.0053057725 -0.014084945  0.016772315 
    7575   -1152448.5            0   -1152448.5 -8.3277091e-06 2.1820102e-05 -2.6053088e-05 
Loop time of 5.51372 on 52 procs for 249 steps with 288751 atoms

99.9% CPU use with 52 MPI tasks x 1 OpenMP threads

Minimization stats:
  Stopping criterion = energy tolerance
  Energy initial, next-to-last, final = 
[...]

Nlocal:        5552.90 ave        7885 max           0 min
Histogram: 4 2 2 0 2 6 4 0 14 18
Nghost:        6213.19 ave        8772 max         412 min
Histogram: 4 0 4 0 8 0 4 5 7 20
Neighs:       158427.0 ave      229901 max           0 min
Histogram: 4 2 2 0 5 3 4 4 11 17

Total # of neighbors = 8238201
Ave neighs/atom = 28.530467
Neighbor list builds = 0
Dangerous builds = 0
The dot product: 9.50794186203532e-08
Setting atom values ...
  1 settings made for x
  1 settings made for y
  1 settings made for z
Setting up cg style minimization ...
  Unit style    : metal
  Current step  : 25031
Per MPI rank memory allocation (min/avg/max) = 5.465 | 6.344 | 6.730 Mbytes
Step PotEng KinEng TotEng v_fx v_fy v_fz 
   25031   -1152449.4            0   -1152449.4    0.0244606  0.018798828 -0.040606557 
   25234   -1152449.4            0   -1152449.4 -1.6891417e-05 1.0531226e-05 -1.0008449e-06 
Loop time of 4.50855 on 52 procs for 203 steps with 288751 atoms

99.9% CPU use with 52 MPI tasks x 1 OpenMP threads

Minimization stats:
  Stopping criterion = linesearch alpha is zero
  Energy initial, next-to-last, final = 
     -1152449.42823129  -1152449.42963562  -1152449.42963562
  Force two-norm initial, final = 0.17115837 8.3211431e-05
  Force max component initial, final = 0.073633601 1.6891417e-05
  Final line search alpha, max atom move = 0.5 8.4457085e-06
  Iterations, force evaluations = 203 407

MPI task timing breakdown:
Section |  min time  |  avg time  |  max time  |%varavg| %total
---------------------------------------------------------------
Pair    | 1.1639     | 3.2415     | 4.2481     |  49.6 | 71.90
Neigh   | 0          | 0          | 0          |   0.0 |  0.00
Comm    | 0.06451    | 0.73164    | 2.3085     |  75.8 | 16.23
Output  | 0          | 0          | 0          |   0.0 |  0.00
Modify  | 8.8681e-05 | 0.006789   | 0.014279   |   3.8 |  0.15
Other   |            | 0.5286     |            |       | 11.72

Nlocal:        5552.90 ave        7886 max           0 min
Histogram: 4 2 2 0 2 6 4 0 14 18
Nghost:        6213.19 ave        8772 max         412 min
Histogram: 4 0 4 0 8 0 4 5 7 20
Neighs:       158427.0 ave      229957 max           0 min
Histogram: 4 2 2 0 5 3 4 4 12 16

Total # of neighbors = 8238205
Ave neighs/atom = 28.530481
Neighbor list builds = 0
Dangerous builds = 0
The dot product: 1.5726129460885e-08
Setting atom values ...
  1 settings made for x
  1 settings made for y
  1 settings made for z
Setting up cg style minimization ...
  Unit style    : metal
  Current step  : 25234
Per MPI rank memory allocation (min/avg/max) = 5.465 | 6.344 | 6.730 Mbytes
Step PotEng KinEng TotEng v_fx v_fy v_fz 
   25234   -1152449.4            0   -1152449.4  0.027680105  0.015109612 -0.038423781 
   25427   -1152449.4            0   -1152449.4 1.9469872e-05 -2.134328e-05 1.2561986e-05 
Loop time of 4.28169 on 52 procs for 193 steps with 288751 atoms

99.9% CPU use with 52 MPI tasks x 1 OpenMP threads

Minimization stats:
  Stopping criterion = energy tolerance
  Energy initial, next-to-last, final = 
     -1152449.42121226  -1152449.42256254  -1152449.42256254
  Force two-norm initial, final = 0.16843369 0.00010883708
  Force max component initial, final = 0.072786382 2.5500865e-05
  Final line search alpha, max atom move = 1.0000000 2.5500865e-05
  Iterations, force evaluations = 193 386

MPI task timing breakdown:
Section |  min time  |  avg time  |  max time  |%varavg| %total
---------------------------------------------------------------
Pair    | 1.1036     | 3.0726     | 4.0463     |  48.3 | 71.76
Neigh   | 0          | 0          | 0          |   0.0 |  0.00
Comm    | 0.057745   | 0.69306    | 2.1903     |  73.4 | 16.19
Output  | 0          | 0          | 0          |   0.0 |  0.00
Modify  | 8.4842e-05 | 0.0064358  | 0.013695   |   3.7 |  0.15
Other   |            | 0.5096     |            |       | 11.90

Nlocal:        5552.90 ave        7888 max           0 min
Histogram: 4 2 2 0 2 6 4 0 14 18
Nghost:        6213.19 ave        8772 max         412 min
Histogram: 4 0 4 0 8 0 4 5 7 20
Neighs:       158427.0 ave      230012 max           0 min
Histogram: 4 2 2 0 5 3 4 4 12 16

Total # of neighbors = 8238205
Ave neighs/atom = 28.530481
Neighbor list builds = 0
Dangerous builds = 0
The dot product: -4.85284255430181e-08
Setting atom values ...
  1 settings made for x
  1 settings made for y
  1 settings made for z
Setting up cg style minimization ...
  Unit style    : metal
  Current step  : 25427
Per MPI rank memory allocation (min/avg/max) = 5.465 | 6.344 | 6.730 Mbytes
Step PotEng KinEng TotEng v_fx v_fy v_fz 
   25427   -1152449.4            0   -1152449.4  0.031843906  0.010443265 -0.035689173 
   25610   -1152449.4            0   -1152449.4 2.3913146e-05 -4.6967024e-06 -1.1239495e-05 
Loop time of 4.06076 on 52 procs for 183 steps with 288751 atoms

99.9% CPU use with 52 MPI tasks x 1 OpenMP threads

Minimization stats:
  Stopping criterion = linesearch alpha is zero
  Energy initial, next-to-last, final = 
       -1152449.412655  -1152449.41395007  -1152449.41395007
  Force two-norm initial, final = 0.16604341 0.00013649378
  Force max component initial, final = 0.071972684 2.3913146e-05
  Final line search alpha, max atom move = 0.5 1.1956573e-05
  Iterations, force evaluations = 183 367

MPI task timing breakdown:
Section |  min time  |  avg time  |  max time  |%varavg| %total
---------------------------------------------------------------
Pair    | 1.0485     | 2.9219     | 3.8383     |  47.1 | 71.96
Neigh   | 0          | 0          | 0          |   0.0 |  0.00
Comm    | 0.05516    | 0.65608    | 2.07       |  72.1 | 16.16
Output  | 0          | 0          | 0          |   0.0 |  0.00
Modify  | 8.4651e-05 | 0.0061338  | 0.012953   |   3.6 |  0.15
Other   |            | 0.4766     |            |       | 11.74

Nlocal:        5552.90 ave        7889 max           0 min
Histogram: 4 2 2 0 2 6 4 0 14 18
Nghost:        6213.19 ave        8772 max         412 min
Histogram: 4 0 4 0 8 0 4 5 7 20
Neighs:       158427.0 ave      230039 max           0 min
Histogram: 4 2 2 0 5 3 4 4 12 16

Total # of neighbors = 8238207
Ave neighs/atom = 28.530488
Neighbor list builds = 0
Dangerous builds = 0
The dot product: 5.57453331592102e-08
Setting atom values ...
  1 settings made for x
  1 settings made for y
  1 settings made for z
Setting up cg style minimization ...
  Unit style    : metal
  Current step  : 25610
Per MPI rank memory allocation (min/avg/max) = 5.465 | 6.344 | 6.730 Mbytes
Step PotEng KinEng TotEng v_fx v_fy v_fz 
   25610   -1152449.4            0   -1152449.4  0.038126888 0.0034067119 -0.031518411 
   25794   -1152449.4            0   -1152449.4 1.1830629e-05 -9.8100078e-06 3.7311211e-06 
Loop time of 4.11658 on 52 procs for 184 steps with 288751 atoms

99.9% CPU use with 52 MPI tasks x 1 OpenMP threads

Minimization stats:
  Stopping criterion = linesearch alpha is zero
  Energy initial, next-to-last, final = 
     -1152449.40272854  -1152449.40398768  -1152449.40398768
  Force two-norm initial, final = 0.16487713 0.000106605
  Force max component initial, final = 0.071631145 2.1342409e-05
  Final line search alpha, max atom move = 0.5 1.0671204e-05
  Iterations, force evaluations = 184 369

MPI task timing breakdown:
Section |  min time  |  avg time  |  max time  |%varavg| %total
---------------------------------------------------------------
Pair    | 1.0539     | 2.9408     | 3.8793     |  47.3 | 71.44
Neigh   | 0          | 0          | 0          |   0.0 |  0.00
Comm    | 0.055521   | 0.66443    | 2.0817     |  71.8 | 16.14
Output  | 0          | 0          | 0          |   0.0 |  0.00
Modify  | 7.937e-05  | 0.006161   | 0.013058   |   3.7 |  0.15
Other   |            | 0.5051     |            |       | 12.27

Nlocal:        5552.90 ave        7889 max           0 min
Histogram: 4 2 2 0 2 6 4 0 13 19
Nghost:        6213.19 ave        8772 max         412 min
Histogram: 4 0 4 0 8 0 4 5 7 20
Neighs:       158427.0 ave      230040 max           0 min
Histogram: 4 2 2 0 5 3 4 4 12 16

Total # of neighbors = 8238204
Ave neighs/atom = 28.530478
Neighbor list builds = 0
Dangerous builds = 0
The dot product: 3.24836306974023e-08
Setting atom values ...
  1 settings made for x
  1 settings made for y
  1 settings made for z
Setting up cg style minimization ...
  Unit style    : metal
  Current step  : 25794
Per MPI rank memory allocation (min/avg/max) = 5.465 | 6.344 | 6.730 Mbytes
Step PotEng KinEng TotEng v_fx v_fy v_fz 
   25794   -1152449.4            0   -1152449.4  0.045830162 -0.0052040444 -0.026438299 
   25908   -1152449.4            0   -1152449.4 3.055537e-06 6.3906111e-06 -1.014772e-05 
Loop time of 2.53843 on 52 procs for 114 steps with 288751 atoms

99.9% CPU use with 52 MPI tasks x 1 OpenMP threads

Minimization stats:
  Stopping criterion = linesearch alpha is zero
  Energy initial, next-to-last, final = 
     -1152449.39184143  -1152449.39330926  -1152449.39330926
  Force two-norm initial, final = 0.16724561 5.1313937e-05
  Force max component initial, final = 0.071415736 1.1295000e-05
  Final line search alpha, max atom move = 0.5 5.6475000e-06
  Iterations, force evaluations = 114 229

MPI task timing breakdown:
Section |  min time  |  avg time  |  max time  |%varavg| %total
---------------------------------------------------------------
Pair    | 0.65575    | 1.8246     | 2.3988     |  37.1 | 71.88
Neigh   | 0          | 0          | 0          |   0.0 |  0.00
Comm    | 0.034517   | 0.40787    | 1.2831     |  56.9 | 16.07
Output  | 0          | 0          | 0          |   0.0 |  0.00
Modify  | 5.1109e-05 | 0.003843   | 0.0081445  |   2.9 |  0.15
Other   |            | 0.3021     |            |       | 11.90

Nlocal:        5552.90 ave        7889 max           0 min
Histogram: 4 2 2 0 2 6 4 0 13 19
Nghost:        6213.23 ave        8772 max         412 min
Histogram: 4 0 4 0 8 0 4 5 7 20
Neighs:       158427.0 ave      230050 max           0 min
Histogram: 4 2 2 0 5 3 4 4 12 16

Total # of neighbors = 8238204
Ave neighs/atom = 28.530478
Neighbor list builds = 0
Dangerous builds = 0
The dot product: 7.19523083981408e-09
Setting atom values ...
  1 settings made for x
  1 settings made for y
  1 settings made for z
Setting up cg style minimization ...
  Unit style    : metal
  Current step  : 25908
Per MPI rank memory allocation (min/avg/max) = 5.465 | 6.344 | 6.730 Mbytes
Step PotEng KinEng TotEng v_fx v_fy v_fz 
   25908   -1152449.4            0   -1152449.4   0.05334948 -0.013193569  -0.02220241 
   26000   -1152449.4            0   -1152449.4 -5.0368234e-05 0.0001345772 -0.00013079158 
   26048   -1152449.4            0   -1152449.4 -1.4560836e-05 1.3296047e-05 -5.9878068e-06 
Loop time of 3.1125 on 52 procs for 140 steps with 288751 atoms

99.9% CPU use with 52 MPI tasks x 1 OpenMP threads

Minimization stats:
  Stopping criterion = energy tolerance
  Energy initial, next-to-last, final = 
     -1152449.38125775  -1152449.38324743  -1152449.38324743
  Force two-norm initial, final = 0.17127181 0.00028065874
  Force max component initial, final = 0.070119216 5.8247245e-05
  Final line search alpha, max atom move = 1.0000000 5.8247245e-05
  Iterations, force evaluations = 140 280

MPI task timing breakdown:
Section |  min time  |  avg time  |  max time  |%varavg| %total
---------------------------------------------------------------
Pair    | 0.80054    | 2.2305     | 2.9381     |  41.1 | 71.66
Neigh   | 0          | 0          | 0          |   0.0 |  0.00
Comm    | 0.042349   | 0.50217    | 1.5895     |  62.9 | 16.13
Output  | 0.0001383  | 0.00014348 | 0.00033544 |   0.0 |  0.00
Modify  | 6.1532e-05 | 0.0046804  | 0.0099745  |   3.2 |  0.15
Other   |            | 0.375      |            |       | 12.05

Nlocal:        5552.90 ave        7889 max           0 min
Histogram: 4 2 2 0 2 6 4 0 13 19
Nghost:        6213.23 ave        8772 max         412 min
Histogram: 4 0 4 0 8 0 4 5 7 20
Neighs:       158427.0 ave      230052 max           0 min
Histogram: 4 2 2 0 5 3 4 4 12 16

Total # of neighbors = 8238207
Ave neighs/atom = 28.530488
Neighbor list builds = 0
Dangerous builds = 0
The dot product: -3.37129028613838e-07
Setting atom values ...
  1 settings made for x
  1 settings made for y
  1 settings made for z
Setting up cg style minimization ...
  Unit style    : metal
  Current step  : 26048
Per MPI rank memory allocation (min/avg/max) = 5.465 | 6.344 | 6.730 Mbytes
Step PotEng KinEng TotEng v_fx v_fy v_fz 
   26048   -1152449.4            0   -1152449.4  0.052908737 -0.013482589 -0.022051198 
   26129   -1152449.4            0   -1152449.4 -3.0082089e-05 -2.0226329e-05 4.7052724e-05 
Loop time of 1.8128 on 52 procs for 81 steps with 288751 atoms

99.9% CPU use with 52 MPI tasks x 1 OpenMP threads

Minimization stats:
  Stopping criterion = energy tolerance
  Energy initial, next-to-last, final = 
     -1152449.37208369  -1152449.37373187  -1152449.37373187
  Force two-norm initial, final = 0.16740955 0.00021350736
  Force max component initial, final = 0.070136095 4.7052724e-05
  Final line search alpha, max atom move = 1.0000000 4.7052724e-05
  Iterations, force evaluations = 81 162

MPI task timing breakdown:
Section |  min time  |  avg time  |  max time  |%varavg| %total
---------------------------------------------------------------
Pair    | 0.46426    | 1.2956     | 1.7056     |  31.4 | 71.47
Neigh   | 0          | 0          | 0          |   0.0 |  0.00
Comm    | 0.024405   | 0.29207    | 0.91977    |  47.7 | 16.11
Output  | 0          | 0          | 0          |   0.0 |  0.00
Modify  | 3.5827e-05 | 0.002722   | 0.005786   |   2.4 |  0.15
Other   |            | 0.2224     |            |       | 12.27

Nlocal:        5552.90 ave        7889 max           0 min
Histogram: 4 2 2 0 2 6 4 0 13 19
Nghost:        6213.19 ave        8772 max         412 min
Histogram: 4 0 4 0 8 0 4 5 7 20
Neighs:       158427.0 ave      230042 max           0 min
Histogram: 4 2 2 0 5 3 4 4 12 16

Total # of neighbors = 8238205
Ave neighs/atom = 28.530481
Neighbor list builds = 0
Dangerous builds = 0
The dot product: -2.16788253272753e-07
Setting atom values ...
  1 settings made for x
  1 settings made for y
  1 settings made for z
Setting up cg style minimization ...
  Unit style    : metal
  Current step  : 26129
Per MPI rank memory allocation (min/avg/max) = 5.465 | 6.344 | 6.730 Mbytes
Step PotEng KinEng TotEng v_fx v_fy v_fz 
   26129   -1152449.4            0   -1152449.4  0.050119444 -0.011964444 -0.022241977 
   26187   -1152449.4            0   -1152449.4 2.0004094e-05 4.4732326e-05 -6.9981658e-05 
Loop time of 1.29077 on 52 procs for 58 steps with 288751 atoms

99.9% CPU use with 52 MPI tasks x 1 OpenMP threads

Minimization stats:
  Stopping criterion = energy tolerance
  Energy initial, next-to-last, final = 
     -1152449.36268332  -1152449.36412736  -1152449.36412736
  Force two-norm initial, final = 0.16300544 0.0002867531
  Force max component initial, final = 0.069760385 6.9981658e-05
  Final line search alpha, max atom move = 1.0000000 6.9981658e-05
  Iterations, force evaluations = 58 116

MPI task timing breakdown:
Section |  min time  |  avg time  |  max time  |%varavg| %total
---------------------------------------------------------------
Pair    | 0.33403    | 0.92895    | 1.2199     |  26.5 | 71.97
Neigh   | 0          | 0          | 0          |   0.0 |  0.00
Comm    | 0.0176     | 0.20856    | 0.66352    |  40.6 | 16.16
Output  | 0          | 0          | 0          |   0.0 |  0.00
Modify  | 2.7701e-05 | 0.0019452  | 0.0041247  |   2.1 |  0.15
Other   |            | 0.1513     |            |       | 11.72

Nlocal:        5552.90 ave        7889 max           0 min
Histogram: 4 2 2 0 2 6 4 0 13 19
Nghost:        6213.19 ave        8772 max         412 min
Histogram: 4 0 4 0 8 0 4 5 7 20
Neighs:       158427.0 ave      230043 max           0 min
Histogram: 4 2 2 0 5 3 4 4 12 16

Total # of neighbors = 8238206
Ave neighs/atom = 28.530485
Neighbor list builds = 0
Dangerous builds = 0
The dot product: 1.62208942265565e-08
Setting atom values ...
  1 settings made for x
  1 settings made for y
  1 settings made for z
Setting up cg style minimization ...
  Unit style    : metal
  Current step  : 26187
Per MPI rank memory allocation (min/avg/max) = 5.465 | 6.344 | 6.730 Mbytes
Step PotEng KinEng TotEng v_fx v_fy v_fz 
   26187   -1152449.4            0   -1152449.4  0.048736815 -0.011649943 -0.021867896 
   26279   -1152449.4            0   -1152449.4 1.2397525e-05 1.8130447e-05 -3.1556319e-05 
Loop time of 2.03751 on 52 procs for 92 steps with 288751 atoms

99.9% CPU use with 52 MPI tasks x 1 OpenMP threads

Minimization stats:
  Stopping criterion = energy tolerance
  Energy initial, next-to-last, final = 
     -1152449.35275576  -1152449.35413156  -1152449.35413156
  Force two-norm initial, final = 0.1601604 0.00026546995
  Force max component initial, final = 0.069266935 3.6895933e-05
  Final line search alpha, max atom move = 1.0000000 3.6895933e-05
  Iterations, force evaluations = 92 184

MPI task timing breakdown:
Section |  min time  |  avg time  |  max time  |%varavg| %total
---------------------------------------------------------------
Pair    | 0.52774    | 1.4692     | 1.9254     |  33.4 | 72.11
Neigh   | 0          | 0          | 0          |   0.0 |  0.00
Comm    | 0.02776    | 0.33034    | 1.047      |  51.3 | 16.21
Output  | 0          | 0          | 0          |   0.0 |  0.00
Modify  | 4.1286e-05 | 0.0030752  | 0.0064943  |   2.6 |  0.15
Other   |            | 0.2349     |            |       | 11.53

Nlocal:        5552.90 ave        7889 max           0 min
Histogram: 4 2 2 0 2 6 4 0 13 19
Nghost:        6213.19 ave        8772 max         412 min
Histogram: 4 0 4 0 8 0 4 5 7 20
Neighs:       158427.0 ave      230040 max           0 min
Histogram: 4 2 2 0 5 3 4 4 12 16

Total # of neighbors = 8238203
Ave neighs/atom = 28.530474
Neighbor list builds = 0
Dangerous builds = 0
The dot product: 4.35129262080916e-08
Setting atom values ...
  1 settings made for x
  1 settings made for y
  1 settings made for z
Setting up cg style minimization ...
  Unit style    : metal
  Current step  : 26279
Per MPI rank memory allocation (min/avg/max) = 5.465 | 6.344 | 6.730 Mbytes
Step PotEng KinEng TotEng v_fx v_fy v_fz 
   26279   -1152449.3            0   -1152449.3  0.048967775 -0.013366346 -0.020153581 
   26385   -1152449.3            0   -1152449.3 3.092162e-05 -2.6505408e-05 9.5067724e-06 
Loop time of 2.3841 on 52 procs for 106 steps with 288751 atoms

99.9% CPU use with 52 MPI tasks x 1 OpenMP threads

Minimization stats:
  Stopping criterion = linesearch alpha is zero
  Energy initial, next-to-last, final = 
     -1152449.34233398  -1152449.34372335  -1152449.34372335
  Force two-norm initial, final = 0.15856938 0.0002055544
  Force max component initial, final = 0.068574918 3.6342346e-05
  Final line search alpha, max atom move = 0.25 9.0855866e-06
  Iterations, force evaluations = 106 215

MPI task timing breakdown:
Section |  min time  |  avg time  |  max time  |%varavg| %total
---------------------------------------------------------------
Pair    | 0.61704    | 1.7154     | 2.2538     |  36.0 | 71.95
Neigh   | 0          | 0          | 0          |   0.0 |  0.00
Comm    | 0.032478   | 0.3856     | 1.218      |  55.0 | 16.17
Output  | 0          | 0          | 0          |   0.0 |  0.00
Modify  | 4.7804e-05 | 0.003606   | 0.0076508  |   2.8 |  0.15
Other   |            | 0.2795     |            |       | 11.72

Nlocal:        5552.90 ave        7889 max           0 min
Histogram: 4 2 2 0 2 6 4 0 13 19
Nghost:        6213.19 ave        8772 max         412 min
Histogram: 4 0 4 0 8 0 4 5 7 20
Neighs:       158427.0 ave      230049 max           0 min
Histogram: 4 2 2 0 5 3 4 4 12 16

Total # of neighbors = 8238204
Ave neighs/atom = 28.530478
Neighbor list builds = 0
Dangerous builds = 0
The dot product: 3.23672884986842e-07
