LAMMPS (29 Oct 2020)
OMP_NUM_THREADS environment is not set. Defaulting to 1 thread. (../comm.cpp:94)
  using 1 OpenMP thread(s) per MPI task
OMP_NUM_THREADS environment is not set. Defaulting to 1 thread. (../comm.cpp:94)
  using 1 OpenMP thread(s) per MPI task
Reading data file ...
  orthogonal box = (-122.39241 -121.13707 -37.090501) to (122.39241 121.13707 37.090501)
  13 by 4 by 2 MPI processor grid
  reading atoms ...
  288751 atoms
  read_data CPU = 0.372 seconds
199981 atoms in group inner
88770 atoms in group outer
1 atoms in group carbon
Neighbor list info ...
  update every 1 steps, delay 0 steps, check yes
  max neighbors/atom: 2000, page size: 100000
  master list distance cutoff = 5.6
  ghost atom cutoff = 5.6
  binsize = 2.8, bins = 88 87 27
  1 neighbor lists, perpetual/occasional/extra = 1 0 0
  (1) pair eam/alloy, perpetual
      attributes: half, newton on
      pair build: half/bin/atomonly/newton
      stencil: half/bin/3d/newton
      bin: standard
Setting up cg style minimization ...
  Unit style    : metal
  Current step  : 0
Per MPI rank memory allocation (min/avg/max) = 5.441 | 5.816 | 6.074 Mbytes
Step v_fx v_fy v_fz PotEng KinEng TotEng 
       0    1.6693988  -0.72080568   -2.4640125   -1152447.8            0   -1152447.8 
     169 -2.49567e-06 -6.0839792e-07 -1.7448613e-05   -1152449.5            0   -1152449.5 
Loop time of 1.98369 on 104 procs for 169 steps with 288751 atoms

99.8% CPU use with 104 MPI tasks x 1 OpenMP threads

Minimization stats:
  Stopping criterion = energy tolerance
  Energy initial, next-to-last, final = 
     -1152447.79093605  -1152449.45035286  -1152449.45035286
  Force two-norm initial, final = 10.092162 7.9908152e-05
  Force max component initial, final = 6.1260373 1.7448613e-05
  Final line search alpha, max atom move = 1.0000000 1.7448613e-05
  Iterations, force evaluations = 169 337

MPI task timing breakdown:
Section |  min time  |  avg time  |  max time  |%varavg| %total
---------------------------------------------------------------
Pair    | 0.53509    | 1.4215     | 1.8493     |  31.6 | 71.66
Neigh   | 3.1078e-05 | 0.0088352  | 0.012749   |   3.9 |  0.45
Comm    | 0.03265    | 0.31886    | 0.95201    |  46.9 | 16.07
Output  | 0          | 0          | 0          |   0.0 |  0.00
Modify  | 1.9608e-05 | 0.0018184  | 0.0046336  |   2.7 |  0.09
Other   |            | 0.2327     |            |       | 11.73

Nlocal:        2776.45 ave        3960 max           0 min
Histogram: 8 4 4 0 4 12 8 2 28 34
Nghost:        3879.01 ave        5424 max         232 min
Histogram: 8 0 8 0 16 0 8 8 16 40
Neighs:        79213.5 ave      115432 max           0 min
Histogram: 8 4 4 0 10 6 8 8 24 32

Total # of neighbors = 8238206
Ave neighs/atom = 28.530485
Neighbor list builds = 3
Dangerous builds = 0
Setting atom values ...
  1 settings made for x
  1 settings made for y
  1 settings made for z
Setting up cg style minimization ...
  Unit style    : metal
  Current step  : 169
Per MPI rank memory allocation (min/avg/max) = 5.441 | 5.816 | 6.074 Mbytes
Step PotEng KinEng TotEng v_fx v_fy v_fz 
     169   -1152449.4            0   -1152449.4  0.012425553 -0.016212518 -0.020781732 
     302   -1152449.5            0   -1152449.5 -2.1702816e-05 2.5211481e-05 2.6382032e-05 
Loop time of 1.55364 on 104 procs for 133 steps with 288751 atoms

99.9% CPU use with 104 MPI tasks x 1 OpenMP threads

Minimization stats:
  Stopping criterion = energy tolerance
  Energy initial, next-to-last, final = 
     -1152449.44947025  -1152449.45002042  -1152449.45002042
  Force two-norm initial, final = 0.10821857 0.00015344973
  Force max component initial, final = 0.047634094 3.0855920e-05
  Final line search alpha, max atom move = 1.0000000 3.0855920e-05
  Iterations, force evaluations = 133 266

MPI task timing breakdown:
Section |  min time  |  avg time  |  max time  |%varavg| %total
---------------------------------------------------------------
Pair    | 0.40953    | 1.1249     | 1.4612     |  28.5 | 72.40
Neigh   | 0          | 0          | 0          |   0.0 |  0.00
Comm    | 0.027034   | 0.25008    | 0.76019    |  42.1 | 16.10
Output  | 0          | 0          | 0          |   0.0 |  0.00
Modify  | 1.7545e-05 | 0.0022005  | 0.0047578  |   2.2 |  0.14
Other   |            | 0.1765     |            |       | 11.36

Nlocal:        2776.45 ave        3961 max           0 min
Histogram: 8 4 4 0 6 10 8 2 28 34
Nghost:        3879.01 ave        5424 max         232 min
Histogram: 8 0 8 0 16 0 8 8 16 40
Neighs:        79213.4 ave      115455 max           0 min
Histogram: 8 4 4 0 10 6 8 8 24 32

Total # of neighbors = 8238197
Ave neighs/atom = 28.530454
Neighbor list builds = 0
Dangerous builds = 0
Setting atom values ...
  1 settings made for x
  1 settings made for y
  1 settings made for z
Setting up cg style minimization ...
  Unit style    : metal
  Current step  : 302
Per MPI rank memory allocation (min/avg/max) = 5.441 | 5.816 | 6.074 Mbytes
Step PotEng KinEng TotEng v_fx v_fy v_fz 
     302   -1152449.4            0   -1152449.4  0.021647252 -0.023231035 -0.033875982 
     459   -1152449.4            0   -1152449.4 -5.3085753e-06 1.5539955e-05 5.7105751e-05 
Loop time of 1.82219 on 104 procs for 157 steps with 288751 atoms

99.9% CPU use with 104 MPI tasks x 1 OpenMP threads

Minimization stats:
  Stopping criterion = energy tolerance
  Energy initial, next-to-last, final = 
     -1152449.44665803  -1152449.44808495  -1152449.44808495
  Force two-norm initial, final = 0.17470442 0.0001605232
  Force max component initial, final = 0.079531574 5.7105751e-05
  Final line search alpha, max atom move = 1.0000000 5.7105751e-05
  Iterations, force evaluations = 157 314

MPI task timing breakdown:
Section |  min time  |  avg time  |  max time  |%varavg| %total
---------------------------------------------------------------
Pair    | 0.49201    | 1.3203     | 1.7177     |  30.6 | 72.45
Neigh   | 0          | 0          | 0          |   0.0 |  0.00
Comm    | 0.028676   | 0.29462    | 0.89192    |  45.7 | 16.17
Output  | 0          | 0          | 0          |   0.0 |  0.00
Modify  | 2.0021e-05 | 0.0025893  | 0.0055194  |   2.4 |  0.14
Other   |            | 0.2047     |            |       | 11.24

Nlocal:        2776.45 ave        3961 max           0 min
Histogram: 8 4 4 0 6 10 8 2 28 34
Nghost:        3879.01 ave        5424 max         232 min
Histogram: 8 0 8 0 16 0 8 8 16 40
Neighs:        79213.5 ave      115455 max           0 min
Histogram: 8 4 4 0 10 6 8 8 24 32

Total # of neighbors = 8238199
Ave neighs/atom = 28.530461
Neighbor list builds = 0
Dangerous builds = 0
The dot product: -1.44304568208545e-07
Setting atom values ...
  1 settings made for x
  1 settings made for y
  1 settings made for z
Setting up cg style minimization ...
  Unit style    : metal
  Current step  : 459
Per MPI rank memory allocation (min/avg/max) = 5.441 | 5.816 | 6.074 Mbytes
Step PotEng KinEng TotEng v_fx v_fy v_fz 
     459   -1152449.4            0   -1152449.4  0.021020935 -0.019034905 -0.031870891 
     607   -1152449.4            0   -1152449.4 7.9220034e-07 -9.2975561e-07 -3.2367094e-06 
Loop time of 1.74586 on 104 procs for 148 steps with 288751 atoms

99.9% CPU use with 104 MPI tasks x 1 OpenMP threads

Minimization stats:
  Stopping criterion = energy tolerance
  Energy initial, next-to-last, final = 
     -1152449.44328015  -1152449.44466023  -1152449.44466023
  Force two-norm initial, final = 0.17147677 3.0785709e-05
  Force max component initial, final = 0.079146978 3.6644112e-06
  Final line search alpha, max atom move = 1.0000000 3.6644112e-06
  Iterations, force evaluations = 148 296

MPI task timing breakdown:
Section |  min time  |  avg time  |  max time  |%varavg| %total
---------------------------------------------------------------
Pair    | 0.45407    | 1.255      | 1.6336     |  30.1 | 71.88
Neigh   | 0          | 0          | 0          |   0.0 |  0.00
Comm    | 0.029369   | 0.28241    | 0.84861    |  44.4 | 16.18
Output  | 0          | 0          | 0          |   0.0 |  0.00
Modify  | 1.7913e-05 | 0.0024487  | 0.0052245  |   2.3 |  0.14
Other   |            | 0.206      |            |       | 11.80

Nlocal:        2776.45 ave        3961 max           0 min
Histogram: 8 4 4 0 6 10 8 2 28 34
Nghost:        3879.01 ave        5424 max         232 min
Histogram: 8 0 8 0 16 0 8 8 16 40
Neighs:        79213.5 ave      115455 max           0 min
Histogram: 8 4 4 0 10 6 8 8 24 32

Total # of neighbors = 8238199
Ave neighs/atom = 28.530461
Neighbor list builds = 0
Dangerous builds = 0
The dot product: 1.02908657469694e-08
Setting atom values ...
  1 settings made for x
  1 settings made for y
  1 settings made for z
Setting up cg style minimization ...
  Unit style    : metal
  Current step  : 607
Per MPI rank memory allocation (min/avg/max) = 5.441 | 5.816 | 6.074 Mbytes
Step PotEng KinEng TotEng v_fx v_fy v_fz 
     607   -1152449.4            0   -1152449.4  0.019613735 -0.015594887 -0.026222696 
     734   -1152449.4            0   -1152449.4 1.1417447e-05 -8.458053e-06 1.0504358e-05 
Loop time of 1.4765 on 104 procs for 127 steps with 288751 atoms

99.9% CPU use with 104 MPI tasks x 1 OpenMP threads

Minimization stats:
  Stopping criterion = energy tolerance
  Energy initial, next-to-last, final = 
     -1152449.43854604  -1152449.43990959  -1152449.43990959
  Force two-norm initial, final = 0.1688405 0.00016584079
  Force max component initial, final = 0.077246781 3.9217899e-05
  Final line search alpha, max atom move = 1.0000000 3.9217899e-05
  Iterations, force evaluations = 127 254

MPI task timing breakdown:
Section |  min time  |  avg time  |  max time  |%varavg| %total
---------------------------------------------------------------
Pair    | 0.39019    | 1.0654     | 1.3873     |  27.7 | 72.16
Neigh   | 0          | 0          | 0          |   0.0 |  0.00
Comm    | 0.02343    | 0.238      | 0.72746    |  41.4 | 16.12
Output  | 0          | 0          | 0          |   0.0 |  0.00
Modify  | 1.5605e-05 | 0.0021009  | 0.0045414  |   2.2 |  0.14
Other   |            | 0.1709     |            |       | 11.58

Nlocal:        2776.45 ave        3961 max           0 min
Histogram: 8 4 4 0 6 10 8 2 28 34
Nghost:        3879.01 ave        5424 max         232 min
Histogram: 8 0 8 0 16 0 8 8 16 40
Neighs:        79213.5 ave      115455 max           0 min
Histogram: 8 4 4 0 10 6 8 8 24 32

Total # of neighbors = 8238201
Ave neighs/atom = 28.530467
Neighbor list builds = 0
Dangerous builds = 0
The dot product: -5.52207874524518e-08
Setting atom values ...
  1 settings made for x
  1 settings made for y
  1 settings made for z
Setting up cg style minimization ...
  Unit style    : metal
  Current step  : 734
Per MPI rank memory allocation (min/avg/max) = 5.441 | 5.816 | 6.074 Mbytes
Step PotEng KinEng TotEng v_fx v_fy v_fz 
     734   -1152449.4            0   -1152449.4   0.01788981 -0.013498701 -0.019459861 
     940   -1152449.4            0   -1152449.4 -3.8417662e-06 3.0441478e-06 1.002807e-07 
Loop time of 2.39944 on 104 procs for 206 steps with 288751 atoms

99.9% CPU use with 104 MPI tasks x 1 OpenMP threads

Minimization stats:
  Stopping criterion = energy tolerance
  Energy initial, next-to-last, final = 
     -1152449.43244138  -1152449.43379754  -1152449.43379754
  Force two-norm initial, final = 0.16730728 4.5833334e-05
  Force max component initial, final = 0.074571746 9.2139888e-06
  Final line search alpha, max atom move = 1.0000000 9.2139888e-06
  Iterations, force evaluations = 206 412

MPI task timing breakdown:
Section |  min time  |  avg time  |  max time  |%varavg| %total
---------------------------------------------------------------
Pair    | 0.63363    | 1.7349     | 2.2648     |  35.3 | 72.30
Neigh   | 0          | 0          | 0          |   0.0 |  0.00
Comm    | 0.037416   | 0.38739    | 1.1697     |  52.3 | 16.15
Output  | 0          | 0          | 0          |   0.0 |  0.00
Modify  | 2.5411e-05 | 0.003398   | 0.0072359  |   2.8 |  0.14
Other   |            | 0.2738     |            |       | 11.41

Nlocal:        2776.45 ave        3961 max           0 min
Histogram: 8 4 4 0 6 10 8 2 28 34
Nghost:        3879.01 ave        5424 max         232 min
Histogram: 8 0 8 0 16 0 8 8 16 40
Neighs:        79213.5 ave      115455 max           0 min
Histogram: 8 4 4 0 10 6 8 8 24 32

Total # of neighbors = 8238202
Ave neighs/atom = 28.530471
Neighbor list builds = 0
Dangerous builds = 0
The dot product: 9.90872362566239e-09
Setting atom values ...
  1 settings made for x
  1 settings made for y
  1 settings made for z
Setting up cg style minimization ...
  Unit style    : metal
  Current step  : 940
Per MPI rank memory allocation (min/avg/max) = 5.441 | 5.816 | 6.074 Mbytes
Step PotEng KinEng TotEng v_fx v_fy v_fz 
     940   -1152449.4            0   -1152449.4  0.016167936 -0.012360443 -0.013509691 
    1000   -1152449.4            0   -1152449.4 -0.00012475309 9.5065015e-05 0.00010813958 
    1059   -1152449.4            0   -1152449.4 -3.6318553e-05 2.3397939e-05 8.5414042e-05 
Loop time of 1.37526 on 104 procs for 119 steps with 288751 atoms

99.9% CPU use with 104 MPI tasks x 1 OpenMP threads

Minimization stats:
  Stopping criterion = energy tolerance
  Energy initial, next-to-last, final = 
     -1152449.42492683  -1152449.42628335  -1152449.42628335
  Force two-norm initial, final = 0.16674475 0.00024502676
  Force max component initial, final = 0.074414527 8.5414042e-05
  Final line search alpha, max atom move = 1.0000000 8.5414042e-05
  Iterations, force evaluations = 119 238

MPI task timing breakdown:
Section |  min time  |  avg time  |  max time  |%varavg| %total
---------------------------------------------------------------
Pair    | 0.36542    | 0.99902    | 1.3016     |  26.8 | 72.64
Neigh   | 0          | 0          | 0          |   0.0 |  0.00
Comm    | 0.024224   | 0.22229    | 0.67434    |  39.9 | 16.16
Output  | 0.0001258  | 0.00013291 | 0.00023843 |   0.0 |  0.01
Modify  | 1.429e-05  | 0.0019691  | 0.0041879  |   2.1 |  0.14
Other   |            | 0.1518     |            |       | 11.04

Nlocal:        2776.45 ave        3961 max           0 min
Histogram: 8 4 4 0 6 10 8 2 28 34
Nghost:        3879.01 ave        5424 max         232 min
Histogram: 8 0 8 0 16 0 8 8 16 40
Neighs:        79213.5 ave      115455 max           0 min
Histogram: 8 4 4 0 10 6 8 8 24 32

Total # of neighbors = 8238201
Ave neighs/atom = 28.530467
Neighbor list builds = 0
Dangerous builds = 0
The dot product: -1.03236934820575e-07
Setting atom values ...
  1 settings made for x
  1 settings made for y
  1 settings made for z
Setting up cg style minimization ...
  Unit style    : metal
  Current step  : 1059
Per MPI rank memory allocation (min/avg/max) = 5.441 | 5.816 | 6.074 Mbytes
Step PotEng KinEng TotEng v_fx v_fy v_fz 
    1059   -1152449.4            0   -1152449.4  0.014730885 -0.011895142 -0.0084742738 
    1214   -1152449.4            0   -1152449.4 -3.3497204e-06 9.2460237e-06 -5.7098699e-05 
Loop time of 1.78974 on 104 procs for 155 steps with 288751 atoms

99.9% CPU use with 104 MPI tasks x 1 OpenMP threads

Minimization stats:
  Stopping criterion = energy tolerance
  Energy initial, next-to-last, final = 
     -1152449.41597282  -1152449.41733648  -1152449.41733648
  Force two-norm initial, final = 0.16676568 0.00024879613
  Force max component initial, final = 0.074780384 5.7098699e-05
  Final line search alpha, max atom move = 1.0000000 5.7098699e-05
  Iterations, force evaluations = 155 310

MPI task timing breakdown:
Section |  min time  |  avg time  |  max time  |%varavg| %total
---------------------------------------------------------------
Pair    | 0.4769     | 1.3061     | 1.6963     |  30.6 | 72.98
Neigh   | 0          | 0          | 0          |   0.0 |  0.00
Comm    | 0.026743   | 0.28882    | 0.86777    |  45.4 | 16.14
Output  | 0          | 0          | 0          |   0.0 |  0.00
Modify  | 1.8897e-05 | 0.0025492  | 0.0054389  |   2.4 |  0.14
Other   |            | 0.1923     |            |       | 10.74

Nlocal:        2776.45 ave        3960 max           0 min
Histogram: 8 4 4 0 4 12 8 2 28 34
Nghost:        3879.01 ave        5424 max         232 min
Histogram: 8 0 8 0 16 0 8 8 16 40
Neighs:        79213.5 ave      115426 max           0 min
Histogram: 8 4 4 0 10 6 8 8 24 32

Total # of neighbors = 8238203
Ave neighs/atom = 28.530474
Neighbor list builds = 0
Dangerous builds = 0
The dot product: 1.46407744917232e-07
Setting atom values ...
  1 settings made for x
  1 settings made for y
  1 settings made for z
Setting up cg style minimization ...
  Unit style    : metal
  Current step  : 1214
Per MPI rank memory allocation (min/avg/max) = 5.441 | 5.816 | 6.074 Mbytes
Step PotEng KinEng TotEng v_fx v_fy v_fz 
    1214   -1152449.4            0   -1152449.4  0.013918509 -0.012007536 -0.0050648675 
    1390   -1152449.4            0   -1152449.4 -3.8289563e-06 6.5221821e-06 -2.2496053e-05 
Loop time of 2.10763 on 104 procs for 176 steps with 288751 atoms

99.8% CPU use with 104 MPI tasks x 1 OpenMP threads

Minimization stats:
  Stopping criterion = energy tolerance
  Energy initial, next-to-last, final = 
     -1152449.40555927  -1152449.40693101  -1152449.40693101
  Force two-norm initial, final = 0.16712695 0.00014198282
  Force max component initial, final = 0.074733335 2.3044115e-05
  Final line search alpha, max atom move = 1.0000000 2.3044115e-05
  Iterations, force evaluations = 176 352

MPI task timing breakdown:
Section |  min time  |  avg time  |  max time  |%varavg| %total
---------------------------------------------------------------
Pair    | 0.54559    | 1.4977     | 1.9507     |  32.8 | 71.06
Neigh   | 0          | 0          | 0          |   0.0 |  0.00
Comm    | 0.04123    | 0.33953    | 1.0073     |  47.7 | 16.11
Output  | 0          | 0          | 0          |   0.0 |  0.00
Modify  | 2.2946e-05 | 0.0029077  | 0.0062618  |   2.5 |  0.14
Other   |            | 0.2675     |            |       | 12.69

Nlocal:        2776.45 ave        3960 max           0 min
Histogram: 8 4 4 0 4 12 8 2 28 34
Nghost:        3879.01 ave        5424 max         232 min
Histogram: 8 0 8 0 16 0 8 8 16 40
Neighs:        79213.5 ave      115426 max           0 min
Histogram: 8 4 4 0 10 6 8 8 24 32

Total # of neighbors = 8238201
Ave neighs/atom = 28.530467
Neighbor list builds = 0
Dangerous builds = 0
The dot product: 6.28811510723814e-08
Setting atom values ...
  1 settings made for x
  1 settings made for y
  1 settings made for z
Setting up cg style minimization ...
  Unit style    : metal
  Current step  : 1390
Per MPI rank memory allocation (min/avg/max) = 5.441 | 5.816 | 6.074 Mbytes
Step PotEng KinEng TotEng v_fx v_fy v_fz 
    1390   -1152449.4            0   -1152449.4  0.013861387  -0.01277187 -0.0025064287 
    1544   -1152449.4            0   -1152449.4 1.8434326e-05 -1.7568653e-05 4.5982923e-07 
Loop time of 1.79813 on 104 procs for 154 steps with 288751 atoms

99.9% CPU use with 104 MPI tasks x 1 OpenMP threads

Minimization stats:
  Stopping criterion = energy tolerance
  Energy initial, next-to-last, final = 
     -1152449.39366533  -1152449.39504369  -1152449.39504369
  Force two-norm initial, final = 0.16755253 0.00018258068
  Force max component initial, final = 0.074545981 3.0147052e-05
  Final line search alpha, max atom move = 1.0000000 3.0147052e-05
  Iterations, force evaluations = 154 308

MPI task timing breakdown:
Section |  min time  |  avg time  |  max time  |%varavg| %total
---------------------------------------------------------------
Pair    | 0.47575    | 1.3023     | 1.6866     |  30.6 | 72.43
Neigh   | 0          | 0          | 0          |   0.0 |  0.00
Comm    | 0.028704   | 0.29007    | 0.86505    |  45.2 | 16.13
Output  | 0          | 0          | 0          |   0.0 |  0.00
Modify  | 1.9616e-05 | 0.002544   | 0.0054263  |   2.4 |  0.14
Other   |            | 0.2032     |            |       | 11.30

Nlocal:        2776.45 ave        3958 max           0 min
Histogram: 8 4 4 0 4 12 8 2 28 34
Nghost:        3879.01 ave        5424 max         232 min
Histogram: 8 0 8 0 16 0 8 8 16 40
Neighs:        79213.5 ave      115357 max           0 min
Histogram: 8 4 4 0 10 6 8 8 24 32

Total # of neighbors = 8238202
Ave neighs/atom = 28.530471
Neighbor list builds = 0
Dangerous builds = 0
The dot product: -7.36646652316434e-08
Setting atom values ...
  1 settings made for x
  1 settings made for y
  1 settings made for z
Setting up cg style minimization ...
  Unit style    : metal
  Current step  : 1544
Per MPI rank memory allocation (min/avg/max) = 5.441 | 5.816 | 6.074 Mbytes
Step PotEng KinEng TotEng v_fx v_fy v_fz 
    1544   -1152449.4            0   -1152449.4  0.014538973 -0.014160013 -0.00064780498 
    1851   -1152449.4            0   -1152449.4 2.1922694e-08 5.3105294e-08 -4.4061473e-07 
Loop time of 3.56302 on 104 procs for 307 steps with 288751 atoms

99.9% CPU use with 104 MPI tasks x 1 OpenMP threads

Minimization stats:
  Stopping criterion = energy tolerance
  Energy initial, next-to-last, final = 
     -1152449.38027145  -1152449.38165531  -1152449.38165531
  Force two-norm initial, final = 0.16800557 1.4405630e-06
  Force max component initial, final = 0.074368666 4.4061473e-07
  Final line search alpha, max atom move = 1.0000000 4.4061473e-07
  Iterations, force evaluations = 307 614

MPI task timing breakdown:
Section |  min time  |  avg time  |  max time  |%varavg| %total
---------------------------------------------------------------
Pair    | 0.94472    | 2.5798     | 3.353      |  43.2 | 72.41
Neigh   | 0          | 0          | 0          |   0.0 |  0.00
Comm    | 0.058503   | 0.57531    | 1.7462     |  64.3 | 16.15
Output  | 0          | 0          | 0          |   0.0 |  0.00
Modify  | 3.6099e-05 | 0.0050422  | 0.010764   |   3.4 |  0.14
Other   |            | 0.4028     |            |       | 11.31

Nlocal:        2776.45 ave        3955 max           0 min
Histogram: 8 4 4 0 4 12 8 2 28 34
Nghost:        3879.01 ave        5424 max         232 min
Histogram: 8 0 8 0 16 0 8 8 16 40
Neighs:        79213.5 ave      115283 max           0 min
Histogram: 8 4 4 0 10 6 8 8 24 32

Total # of neighbors = 8238203
Ave neighs/atom = 28.530474
Neighbor list builds = 0
Dangerous builds = 0
The dot product: 7.43693088760901e-10
Setting atom values ...
  1 settings made for x
  1 settings made for y
  1 settings made for z
Setting up cg style minimization ...
  Unit style    : metal
  Current step  : 1851
Per MPI rank memory allocation (min/avg/max) = 5.441 | 5.816 | 6.074 Mbytes
Step PotEng KinEng TotEng v_fx v_fy v_fz 
    1851   -1152449.4            0   -1152449.4  0.015564653 -0.015740028 0.00030854095 
    1982   -1152449.4            0   -1152449.4 6.6190378e-06 -8.2220312e-06 8.4741272e-06 
Loop time of 1.52116 on 104 procs for 131 steps with 288751 atoms

99.9% CPU use with 104 MPI tasks x 1 OpenMP threads

Minimization stats:
  Stopping criterion = energy tolerance
  Energy initial, next-to-last, final = 
     -1152449.36536088  -1152449.36674892  -1152449.36674892
  Force two-norm initial, final = 0.16836602 0.00018204505
  Force max component initial, final = 0.074329117 2.6877893e-05
  Final line search alpha, max atom move = 1.0000000 2.6877893e-05
  Iterations, force evaluations = 131 262

MPI task timing breakdown:
Section |  min time  |  avg time  |  max time  |%varavg| %total
---------------------------------------------------------------
Pair    | 0.40408    | 1.1063     | 1.431      |  28.1 | 72.73
Neigh   | 0          | 0          | 0          |   0.0 |  0.00
Comm    | 0.025692   | 0.24505    | 0.74421    |  41.9 | 16.11
Output  | 0          | 0          | 0          |   0.0 |  0.00
Modify  | 1.5399e-05 | 0.0021644  | 0.0046062  |   2.2 |  0.14
Other   |            | 0.1676     |            |       | 11.02

Nlocal:        2776.45 ave        3951 max           0 min
Histogram: 8 4 4 0 4 12 8 2 28 34
Nghost:        3879.01 ave        5424 max         232 min
Histogram: 8 0 8 0 16 0 8 8 16 40
Neighs:        79213.5 ave      115160 max           0 min
Histogram: 8 4 4 0 10 6 8 8 24 32

Total # of neighbors = 8238204
Ave neighs/atom = 28.530478
Neighbor list builds = 0
Dangerous builds = 0
The dot product: -3.66552474154651e-08
Setting atom values ...
  1 settings made for x
  1 settings made for y
  1 settings made for z
Setting up cg style minimization ...
  Unit style    : metal
  Current step  : 1982
Per MPI rank memory allocation (min/avg/max) = 5.441 | 5.816 | 6.074 Mbytes
Step PotEng KinEng TotEng v_fx v_fy v_fz 
    1982   -1152449.3            0   -1152449.3  0.016235887 -0.016840746 0.00069156922 
    2000   -1152449.4            0   -1152449.4 -0.00017182364 0.00021920039 -0.00021633911 
    2130   -1152449.4            0   -1152449.4 1.8314714e-05 -1.7319139e-05 -7.7789075e-06 
Loop time of 1.69833 on 104 procs for 148 steps with 288751 atoms

99.9% CPU use with 104 MPI tasks x 1 OpenMP threads

Minimization stats:
  Stopping criterion = energy tolerance
  Energy initial, next-to-last, final = 
     -1152449.34890996  -1152449.35030262  -1152449.35030262
  Force two-norm initial, final = 0.16861692 0.00025609841
  Force max component initial, final = 0.07437352 5.4758124e-05
  Final line search alpha, max atom move = 1.0000000 5.4758124e-05
  Iterations, force evaluations = 148 296

MPI task timing breakdown:
Section |  min time  |  avg time  |  max time  |%varavg| %total
---------------------------------------------------------------
Pair    | 0.45168    | 1.2392     | 1.61       |  29.9 | 72.96
Neigh   | 0          | 0          | 0          |   0.0 |  0.00
Comm    | 0.027458   | 0.27557    | 0.83938    |  44.6 | 16.23
Output  | 9.6615e-05 | 0.00010357 | 0.00017621 |   0.0 |  0.01
Modify  | 1.7781e-05 | 0.0024409  | 0.0052102  |   2.3 |  0.14
Other   |            | 0.181      |            |       | 10.66

Nlocal:        2776.45 ave        3947 max           0 min
Histogram: 8 4 4 0 4 12 8 2 26 36
Nghost:        3879.05 ave        5424 max         232 min
Histogram: 8 0 8 0 16 0 8 8 16 40
Neighs:        79213.5 ave      115017 max           0 min
Histogram: 8 4 4 0 10 6 8 8 24 32

Total # of neighbors = 8238204
Ave neighs/atom = 28.530478
Neighbor list builds = 0
Dangerous builds = 0
The dot product: -3.8708528228252e-08
Setting atom values ...
  1 settings made for x
  1 settings made for y
  1 settings made for z
Setting up cg style minimization ...
  Unit style    : metal
  Current step  : 2130
Per MPI rank memory allocation (min/avg/max) = 5.441 | 5.816 | 6.074 Mbytes
Step PotEng KinEng TotEng v_fx v_fy v_fz 
    2130   -1152449.3            0   -1152449.3  0.016139952 -0.016896717 -9.437395e-05 
    2324   -1152449.3            0   -1152449.3 -1.1379248e-06 -1.8985009e-06 1.4722142e-05 
Loop time of 2.24403 on 104 procs for 194 steps with 288751 atoms

99.9% CPU use with 104 MPI tasks x 1 OpenMP threads

Minimization stats:
  Stopping criterion = energy tolerance
  Energy initial, next-to-last, final = 
     -1152449.33089138   -1152449.3323036   -1152449.3323036
  Force two-norm initial, final = 0.16877613 7.1332037e-05
  Force max component initial, final = 0.07451681 1.4722142e-05
  Final line search alpha, max atom move = 1.0000000 1.4722142e-05
  Iterations, force evaluations = 194 388

MPI task timing breakdown:
Section |  min time  |  avg time  |  max time  |%varavg| %total
---------------------------------------------------------------
Pair    | 0.5971     | 1.6314     | 2.1247     |  34.1 | 72.70
Neigh   | 0          | 0          | 0          |   0.0 |  0.00
Comm    | 0.03533    | 0.36368    | 1.1034     |  50.9 | 16.21
Output  | 0          | 0          | 0          |   0.0 |  0.00
Modify  | 2.3008e-05 | 0.0031962  | 0.006814   |   2.7 |  0.14
Other   |            | 0.2457     |            |       | 10.95

Nlocal:        2776.45 ave        3943 max           0 min
Histogram: 8 4 4 0 4 12 8 2 26 36
Nghost:        3879.05 ave        5424 max         232 min
Histogram: 8 0 8 0 16 0 8 8 16 40
Neighs:        79213.5 ave      114874 max           0 min
Histogram: 8 4 4 0 10 6 8 8 22 34

Total # of neighbors = 8238202
Ave neighs/atom = 28.530471
Neighbor list builds = 0
Dangerous builds = 0
The dot product: -4.67740928587827e-08
Setting atom values ...
  1 settings made for x
  1 settings made for y
  1 settings made for z
Setting up cg style minimization ...
  Unit style    : metal
  Current step  : 2324
Per MPI rank memory allocation (min/avg/max) = 5.441 | 5.816 | 6.074 Mbytes
Step PotEng KinEng TotEng v_fx v_fy v_fz 
    2324   -1152449.3            0   -1152449.3  0.013851047 -0.013859588 -0.0043180177 
    2528   -1152449.3            0   -1152449.3 -6.0557829e-06 1.635163e-06 2.108166e-05 
Loop time of 2.34638 on 104 procs for 204 steps with 288751 atoms

99.9% CPU use with 104 MPI tasks x 1 OpenMP threads

Minimization stats:
  Stopping criterion = energy tolerance
  Energy initial, next-to-last, final = 
      -1152449.3113034  -1152449.31287172  -1152449.31287172
  Force two-norm initial, final = 0.16864498 7.4856025e-05
  Force max component initial, final = 0.074318083 2.1081660e-05
  Final line search alpha, max atom move = 1.0000000 2.1081660e-05
  Iterations, force evaluations = 204 408

MPI task timing breakdown:
Section |  min time  |  avg time  |  max time  |%varavg| %total
---------------------------------------------------------------
Pair    | 0.62467    | 1.7091     | 2.2219     |  35.1 | 72.84
Neigh   | 0          | 0          | 0          |   0.0 |  0.00
Comm    | 0.036461   | 0.37835    | 1.1546     |  52.5 | 16.12
Output  | 0          | 0          | 0          |   0.0 |  0.00
Modify  | 2.4128e-05 | 0.0033572  | 0.0071648  |   2.7 |  0.14
Other   |            | 0.2556     |            |       | 10.89

Nlocal:        2776.45 ave        3936 max           0 min
Histogram: 8 4 4 0 4 12 8 0 28 36
Nghost:        3879.05 ave        5424 max         232 min
Histogram: 8 0 8 0 16 0 8 8 16 40
Neighs:        79213.4 ave      114629 max           0 min
Histogram: 8 4 4 0 8 8 8 8 20 36

Total # of neighbors = 8238196
Ave neighs/atom = 28.530450
Neighbor list builds = 0
Dangerous builds = 0
The dot product: -1.38224577489022e-07
Setting atom values ...
  1 settings made for x
  1 settings made for y
  1 settings made for z
Setting up cg style minimization ...
  Unit style    : metal
  Current step  : 2528
Per MPI rank memory allocation (min/avg/max) = 5.441 | 5.816 | 6.074 Mbytes
Step PotEng KinEng TotEng v_fx v_fy v_fz 
    2528   -1152449.3            0   -1152449.3 -0.0019216967   0.01017307 -0.027580697 
    2813   -1152449.3            0   -1152449.3 -8.1567182e-07 3.3367833e-07 2.0815801e-06 
Loop time of 3.30202 on 104 procs for 285 steps with 288751 atoms

99.9% CPU use with 104 MPI tasks x 1 OpenMP threads

Minimization stats:
  Stopping criterion = energy tolerance
  Energy initial, next-to-last, final = 
     -1152449.29039247  -1152449.29271553  -1152449.29271553
  Force two-norm initial, final = 0.17086188 7.1210710e-06
  Force max component initial, final = 0.072023657 2.0815801e-06
  Final line search alpha, max atom move = 1.0000000 2.0815801e-06
  Iterations, force evaluations = 285 570

MPI task timing breakdown:
Section |  min time  |  avg time  |  max time  |%varavg| %total
---------------------------------------------------------------
Pair    | 0.87089    | 2.3943     | 3.1227     |  41.5 | 72.51
Neigh   | 0          | 0          | 0          |   0.0 |  0.00
Comm    | 0.051182   | 0.53598    | 1.6144     |  61.5 | 16.23
Output  | 0          | 0          | 0          |   0.0 |  0.00
Modify  | 3.5524e-05 | 0.0046893  | 0.010029   |   3.2 |  0.14
Other   |            | 0.367      |            |       | 11.11

Nlocal:        2776.45 ave        3930 max           0 min
Histogram: 8 4 4 0 4 12 8 0 26 38
Nghost:        3879.05 ave        5424 max         232 min
Histogram: 8 0 8 0 16 0 8 8 16 40
Neighs:        79213.5 ave      114457 max           0 min
Histogram: 8 4 4 0 8 8 8 8 20 36

Total # of neighbors = 8238199
Ave neighs/atom = 28.530461
Neighbor list builds = 0
Dangerous builds = 0
The dot product: -1.9728574383101e-08
Setting atom values ...
  1 settings made for x
  1 settings made for y
  1 settings made for z
Setting up cg style minimization ...
  Unit style    : metal
  Current step  : 2813
Per MPI rank memory allocation (min/avg/max) = 5.441 | 5.816 | 6.074 Mbytes
Step PotEng KinEng TotEng v_fx v_fy v_fz 
    2813   -1152449.3            0   -1152449.3 -0.025333853  0.058458987 -0.059022956 
    3000   -1152449.3            0   -1152449.3 -7.7155772e-07 1.3157397e-06 -6.854731e-07 
    3047   -1152449.3            0   -1152449.3 2.9708663e-06 1.1640769e-06 -1.2271943e-05 
Loop time of 2.7201 on 104 procs for 234 steps with 288751 atoms

99.9% CPU use with 104 MPI tasks x 1 OpenMP threads

Minimization stats:
  Stopping criterion = energy tolerance
  Energy initial, next-to-last, final = 
     -1152449.26908997  -1152449.27260879  -1152449.27260879
  Force two-norm initial, final = 0.19071932 4.6542281e-05
  Force max component initial, final = 0.078983929 1.2271943e-05
  Final line search alpha, max atom move = 1.0000000 1.2271943e-05
  Iterations, force evaluations = 234 468

MPI task timing breakdown:
Section |  min time  |  avg time  |  max time  |%varavg| %total
---------------------------------------------------------------
Pair    | 0.71511    | 1.9602     | 2.5585     |  37.7 | 72.07
Neigh   | 0          | 0          | 0          |   0.0 |  0.00
Comm    | 0.041896   | 0.44057    | 1.322      |  55.3 | 16.20
Output  | 0.00010998 | 0.00011779 | 0.00028737 |   0.0 |  0.00
Modify  | 2.7739e-05 | 0.0038584  | 0.0082635  |   2.9 |  0.14
Other   |            | 0.3153     |            |       | 11.59

Nlocal:        2776.45 ave        3930 max           0 min
Histogram: 8 4 4 0 4 12 8 0 26 38
Nghost:        3879.09 ave        5425 max         232 min
Histogram: 8 0 8 0 16 0 8 8 16 40
Neighs:        79213.4 ave      114453 max           0 min
Histogram: 8 4 4 0 8 8 8 8 20 36

Total # of neighbors = 8238195
Ave neighs/atom = 28.530447
Neighbor list builds = 0
Dangerous builds = 0
The dot product: 2.26137968916509e-07
Setting atom values ...
  1 settings made for x
  1 settings made for y
  1 settings made for z
Setting up cg style minimization ...
  Unit style    : metal
  Current step  : 3047
Per MPI rank memory allocation (min/avg/max) = 5.441 | 5.816 | 6.074 Mbytes
Step PotEng KinEng TotEng v_fx v_fy v_fz 
    3047   -1152449.2            0   -1152449.2 -0.031727967  0.091175813 -0.064389161 
    3240   -1152449.3            0   -1152449.3 1.9806509e-06 5.5704096e-06 -1.4479978e-05 
Loop time of 2.23037 on 104 procs for 193 steps with 288751 atoms

99.9% CPU use with 104 MPI tasks x 1 OpenMP threads

Minimization stats:
  Stopping criterion = energy tolerance
  Energy initial, next-to-last, final = 
     -1152449.24799554  -1152449.25211999  -1152449.25211999
  Force two-norm initial, final = 0.20676825 0.00021938175
  Force max component initial, final = 0.091175813 4.1871527e-05
  Final line search alpha, max atom move = 1.0000000 4.1871527e-05
  Iterations, force evaluations = 193 386

MPI task timing breakdown:
Section |  min time  |  avg time  |  max time  |%varavg| %total
---------------------------------------------------------------
Pair    | 0.59606    | 1.6283     | 2.11       |  34.2 | 73.01
Neigh   | 0          | 0          | 0          |   0.0 |  0.00
Comm    | 0.035547   | 0.36048    | 1.0817     |  50.7 | 16.16
Output  | 0          | 0          | 0          |   0.0 |  0.00
Modify  | 2.272e-05  | 0.0031804  | 0.0067757  |   2.7 |  0.14
Other   |            | 0.2384     |            |       | 10.69

Nlocal:        2776.45 ave        3936 max           0 min
Histogram: 8 4 4 0 4 12 8 0 28 36
Nghost:        3879.11 ave        5425 max         232 min
Histogram: 8 0 8 0 16 0 8 8 16 40
Neighs:        79213.4 ave      114623 max           0 min
Histogram: 8 4 4 0 8 8 8 8 20 36

Total # of neighbors = 8238198
Ave neighs/atom = 28.530457
Neighbor list builds = 0
Dangerous builds = 0
The dot product: 4.16665848052441e-07
Setting atom values ...
  1 settings made for x
  1 settings made for y
  1 settings made for z
Setting up cg style minimization ...
  Unit style    : metal
  Current step  : 3240
Per MPI rank memory allocation (min/avg/max) = 5.441 | 5.816 | 6.074 Mbytes
Step PotEng KinEng TotEng v_fx v_fy v_fz 
    3240   -1152449.2            0   -1152449.2 -0.025512584   0.10294426 -0.056900317 
    3460   -1152449.2            0   -1152449.2 6.5902951e-06 3.8805767e-06 -1.9991632e-05 
Loop time of 2.53681 on 104 procs for 220 steps with 288751 atoms

99.9% CPU use with 104 MPI tasks x 1 OpenMP threads

Minimization stats:
  Stopping criterion = energy tolerance
  Energy initial, next-to-last, final = 
     -1152449.22678723  -1152449.23080836  -1152449.23080836
  Force two-norm initial, final = 0.20959374 8.7192224e-05
  Force max component initial, final = 0.10294426 1.9991632e-05
  Final line search alpha, max atom move = 1.0000000 1.9991632e-05
  Iterations, force evaluations = 220 440

MPI task timing breakdown:
Section |  min time  |  avg time  |  max time  |%varavg| %total
---------------------------------------------------------------
Pair    | 0.67319    | 1.8458     | 2.4026     |  36.6 | 72.76
Neigh   | 0          | 0          | 0          |   0.0 |  0.00
Comm    | 0.04022    | 0.41093    | 1.2483     |  54.5 | 16.20
Output  | 0          | 0          | 0          |   0.0 |  0.00
Modify  | 2.5842e-05 | 0.0036168  | 0.0076959  |   2.8 |  0.14
Other   |            | 0.2764     |            |       | 10.90

Nlocal:        2776.45 ave        3946 max           0 min
Histogram: 8 4 4 0 4 12 8 2 26 36
Nghost:        3879.07 ave        5425 max         232 min
Histogram: 8 0 8 0 16 0 8 8 16 40
Neighs:        79213.5 ave      114969 max           0 min
Histogram: 8 4 4 0 10 6 8 8 24 32

Total # of neighbors = 8238203
Ave neighs/atom = 28.530474
Neighbor list builds = 0
Dangerous builds = 0
The dot product: 3.89280935329538e-07
Setting atom values ...
  1 settings made for x
  1 settings made for y
  1 settings made for z
Setting up cg style minimization ...
  Unit style    : metal
  Current step  : 3460
Per MPI rank memory allocation (min/avg/max) = 5.441 | 5.816 | 6.074 Mbytes
Step PotEng KinEng TotEng v_fx v_fy v_fz 
    3460   -1152449.2            0   -1152449.2 -0.015391552   0.09398073 -0.043199578 
    3707   -1152449.2            0   -1152449.2 -1.6556755e-06 -6.6691665e-07 4.0926774e-06 
Loop time of 2.84678 on 104 procs for 247 steps with 288751 atoms

99.9% CPU use with 104 MPI tasks x 1 OpenMP threads

Minimization stats:
  Stopping criterion = energy tolerance
  Energy initial, next-to-last, final = 
     -1152449.20476709  -1152449.20821124  -1152449.20821124
  Force two-norm initial, final = 0.2008449 2.7554925e-05
  Force max component initial, final = 0.11010928 7.5390647e-06
  Final line search alpha, max atom move = 1.0000000 7.5390647e-06
  Iterations, force evaluations = 247 494

MPI task timing breakdown:
Section |  min time  |  avg time  |  max time  |%varavg| %total
---------------------------------------------------------------
Pair    | 0.75941    | 2.0821     | 2.7015     |  38.7 | 73.14
Neigh   | 0          | 0          | 0          |   0.0 |  0.00
Comm    | 0.046581   | 0.45735    | 1.3904     |  58.0 | 16.07
Output  | 0          | 0          | 0          |   0.0 |  0.00
Modify  | 2.8992e-05 | 0.0040673  | 0.0086425  |   3.0 |  0.14
Other   |            | 0.3032     |            |       | 10.65

Nlocal:        2776.45 ave        3954 max           0 min
Histogram: 8 4 4 0 4 12 8 2 28 34
Nghost:        3879.03 ave        5425 max         232 min
Histogram: 8 0 8 0 16 0 8 8 16 40
Neighs:        79213.5 ave      115239 max           0 min
Histogram: 8 4 4 0 10 6 8 8 24 32

Total # of neighbors = 8238206
Ave neighs/atom = 28.530485
Neighbor list builds = 0
Dangerous builds = 0
The dot product: -7.06361758722313e-08
Setting atom values ...
  1 settings made for x
  1 settings made for y
  1 settings made for z
Setting up cg style minimization ...
  Unit style    : metal
  Current step  : 3707
Per MPI rank memory allocation (min/avg/max) = 5.441 | 5.816 | 6.074 Mbytes
Step PotEng KinEng TotEng v_fx v_fy v_fz 
    3707   -1152449.2            0   -1152449.2 -0.0059687817  0.077620573  -0.03408751 
    3885   -1152449.2            0   -1152449.2 1.0206653e-05 -2.6136663e-06 -1.8633004e-05 
Loop time of 2.06757 on 104 procs for 178 steps with 288751 atoms

99.9% CPU use with 104 MPI tasks x 1 OpenMP threads

Minimization stats:
  Stopping criterion = energy tolerance
  Energy initial, next-to-last, final = 
     -1152449.18156467  -1152449.18465416  -1152449.18465416
  Force two-norm initial, final = 0.1906984 0.00028035916
  Force max component initial, final = 0.11591068 2.8526525e-05
  Final line search alpha, max atom move = 1.0000000 2.8526525e-05
  Iterations, force evaluations = 178 356

MPI task timing breakdown:
Section |  min time  |  avg time  |  max time  |%varavg| %total
---------------------------------------------------------------
Pair    | 0.54395    | 1.4979     | 1.957      |  33.0 | 72.45
Neigh   | 0          | 0          | 0          |   0.0 |  0.00
Comm    | 0.032174   | 0.33369    | 1.0084     |  49.2 | 16.14
Output  | 0          | 0          | 0          |   0.0 |  0.00
Modify  | 2.1096e-05 | 0.0029328  | 0.0062903  |   2.6 |  0.14
Other   |            | 0.233      |            |       | 11.27

Nlocal:        2776.45 ave        3956 max           0 min
Histogram: 8 4 4 0 4 12 8 2 28 34
Nghost:        3878.97 ave        5425 max         232 min
Histogram: 8 0 8 0 16 0 8 8 16 40
Neighs:        79213.5 ave      115296 max           0 min
Histogram: 8 4 4 0 10 6 8 8 24 32

Total # of neighbors = 8238206
Ave neighs/atom = 28.530485
Neighbor list builds = 0
Dangerous builds = 0
The dot product: 2.14700085020659e-07
Setting atom values ...
  1 settings made for x
  1 settings made for y
  1 settings made for z
Setting up cg style minimization ...
  Unit style    : metal
  Current step  : 3885
Per MPI rank memory allocation (min/avg/max) = 5.441 | 5.816 | 6.074 Mbytes
Step PotEng KinEng TotEng v_fx v_fy v_fz 
    3885   -1152449.2            0   -1152449.2  0.002510865  0.063869764 -0.032406749 
    4000   -1152449.2            0   -1152449.2 -6.3586011e-05 3.9105954e-05 9.9057659e-05 
    4097   -1152449.2            0   -1152449.2 2.8012542e-06 -2.7232795e-06 -3.9281184e-06 
Loop time of 2.44473 on 104 procs for 212 steps with 288751 atoms

99.9% CPU use with 104 MPI tasks x 1 OpenMP threads

Minimization stats:
  Stopping criterion = energy tolerance
  Energy initial, next-to-last, final = 
     -1152449.15754392  -1152449.16027819  -1152449.16027819
  Force two-norm initial, final = 0.18402491 9.5043935e-05
  Force max component initial, final = 0.1200035 2.0666389e-05
  Final line search alpha, max atom move = 1.0000000 2.0666389e-05
  Iterations, force evaluations = 212 424

MPI task timing breakdown:
Section |  min time  |  avg time  |  max time  |%varavg| %total
---------------------------------------------------------------
Pair    | 0.65109    | 1.7809     | 2.3194     |  35.8 | 72.84
Neigh   | 0          | 0          | 0          |   0.0 |  0.00
Comm    | 0.037463   | 0.39393    | 1.1884     |  53.1 | 16.11
Output  | 9.2022e-05 | 9.7746e-05 | 0.00022997 |   0.0 |  0.00
Modify  | 2.5079e-05 | 0.0034911  | 0.0074431  |   2.8 |  0.14
Other   |            | 0.2664     |            |       | 10.90

Nlocal:        2776.45 ave        3957 max           0 min
Histogram: 8 4 4 0 4 12 8 2 28 34
Nghost:        3878.97 ave        5425 max         232 min
Histogram: 8 0 8 0 16 0 8 8 16 40
Neighs:        79213.6 ave      115326 max           0 min
Histogram: 8 4 4 0 10 6 8 8 24 32

Total # of neighbors = 8238211
Ave neighs/atom = 28.530502
Neighbor list builds = 0
Dangerous builds = 0
The dot product: 1.46888390744675e-08
Setting atom values ...
  1 settings made for x
  1 settings made for y
  1 settings made for z
Setting up cg style minimization ...
  Unit style    : metal
  Current step  : 4097
Per MPI rank memory allocation (min/avg/max) = 5.441 | 5.816 | 6.074 Mbytes
Step PotEng KinEng TotEng v_fx v_fy v_fz 
    4097   -1152449.1            0   -1152449.1 0.0087507715  0.055995439 -0.032689139 
    4335   -1152449.1            0   -1152449.1 1.7827234e-06 -1.1622564e-07 -2.9730881e-06 
Loop time of 2.74939 on 104 procs for 238 steps with 288751 atoms

99.9% CPU use with 104 MPI tasks x 1 OpenMP threads

Minimization stats:
  Stopping criterion = energy tolerance
  Energy initial, next-to-last, final = 
     -1152449.13244725  -1152449.13491533  -1152449.13491533
  Force two-norm initial, final = 0.18138528 2.5157902e-05
  Force max component initial, final = 0.12420209 4.2018175e-06
  Final line search alpha, max atom move = 1.0000000 4.2018175e-06
  Iterations, force evaluations = 238 476

MPI task timing breakdown:
Section |  min time  |  avg time  |  max time  |%varavg| %total
---------------------------------------------------------------
Pair    | 0.73004    | 1.9948     | 2.6033     |  37.9 | 72.55
Neigh   | 0          | 0          | 0          |   0.0 |  0.00
Comm    | 0.043598   | 0.44313    | 1.3416     |  56.4 | 16.12
Output  | 0          | 0          | 0          |   0.0 |  0.00
Modify  | 2.869e-05  | 0.0039221  | 0.0083175  |   3.0 |  0.14
Other   |            | 0.3076     |            |       | 11.19

Nlocal:        2776.45 ave        3958 max           0 min
Histogram: 8 4 4 0 4 12 8 2 28 34
Nghost:        3878.96 ave        5425 max         232 min
Histogram: 8 0 8 0 16 0 8 8 16 40
Neighs:        79213.6 ave      115363 max           0 min
Histogram: 8 4 4 0 10 6 8 8 24 32

Total # of neighbors = 8238214
Ave neighs/atom = 28.530512
Neighbor list builds = 0
Dangerous builds = 0
The dot product: 4.57926336660203e-08
Setting atom values ...
  1 settings made for x
  1 settings made for y
  1 settings made for z
Setting up cg style minimization ...
  Unit style    : metal
  Current step  : 4335
Per MPI rank memory allocation (min/avg/max) = 5.441 | 5.816 | 6.074 Mbytes
Step PotEng KinEng TotEng v_fx v_fy v_fz 
    4335   -1152449.1            0   -1152449.1  0.011396121   0.04651455 -0.028937044 
    4538   -1152449.1            0   -1152449.1 1.0549528e-05 -2.6108245e-06 -1.598873e-05 
Loop time of 2.37629 on 104 procs for 203 steps with 288751 atoms

99.9% CPU use with 104 MPI tasks x 1 OpenMP threads

Minimization stats:
  Stopping criterion = energy tolerance
  Energy initial, next-to-last, final = 
     -1152449.10616362  -1152449.10830092  -1152449.10830092
  Force two-norm initial, final = 0.17858137 0.00010066034
  Force max component initial, final = 0.12819196 1.5988730e-05
  Final line search alpha, max atom move = 1.0000000 1.5988730e-05
  Iterations, force evaluations = 203 406

MPI task timing breakdown:
Section |  min time  |  avg time  |  max time  |%varavg| %total
---------------------------------------------------------------
Pair    | 0.61816    | 1.7078     | 2.2327     |  35.2 | 71.87
Neigh   | 0          | 0          | 0          |   0.0 |  0.00
Comm    | 0.037236   | 0.38236    | 1.1541     |  51.8 | 16.09
Output  | 0          | 0          | 0          |   0.0 |  0.00
Modify  | 2.3729e-05 | 0.003344   | 0.00711    |   2.7 |  0.14
Other   |            | 0.2828     |            |       | 11.90

Nlocal:        2776.45 ave        3958 max           0 min
Histogram: 8 4 4 0 4 12 8 2 28 34
Nghost:        3878.96 ave        5425 max         232 min
Histogram: 8 0 8 0 16 0 8 8 16 40
Neighs:        79213.6 ave      115359 max           0 min
Histogram: 8 4 4 0 10 6 8 8 24 32

Total # of neighbors = 8238213
Ave neighs/atom = 28.530509
Neighbor list builds = 0
Dangerous builds = 0
The dot product: 2.00360659406945e-07
Setting atom values ...
  1 settings made for x
  1 settings made for y
  1 settings made for z
Setting up cg style minimization ...
  Unit style    : metal
  Current step  : 4538
Per MPI rank memory allocation (min/avg/max) = 5.441 | 5.816 | 6.074 Mbytes
Step PotEng KinEng TotEng v_fx v_fy v_fz 
    4538   -1152449.1            0   -1152449.1  0.010855181  0.035968532 -0.022583788 
    4705   -1152449.1            0   -1152449.1 1.733068e-05 -1.0035772e-05 -2.3956126e-05 
Loop time of 1.9381 on 104 procs for 167 steps with 288751 atoms

99.9% CPU use with 104 MPI tasks x 1 OpenMP threads

Minimization stats:
  Stopping criterion = energy tolerance
  Energy initial, next-to-last, final = 
     -1152449.07843165  -1152449.08033262  -1152449.08033262
  Force two-norm initial, final = 0.17611099 0.0002442177
  Force max component initial, final = 0.13178745 5.6316580e-05
  Final line search alpha, max atom move = 1.0000000 5.6316580e-05
  Iterations, force evaluations = 167 334

MPI task timing breakdown:
Section |  min time  |  avg time  |  max time  |%varavg| %total
---------------------------------------------------------------
Pair    | 0.51272    | 1.4004     | 1.8303     |  31.8 | 72.26
Neigh   | 0          | 0          | 0          |   0.0 |  0.00
Comm    | 0.029838   | 0.3136     | 0.94629    |  47.0 | 16.18
Output  | 0          | 0          | 0          |   0.0 |  0.00
Modify  | 2.0728e-05 | 0.0027583  | 0.0058546  |   2.5 |  0.14
Other   |            | 0.2214     |            |       | 11.42

Nlocal:        2776.45 ave        3958 max           0 min
Histogram: 8 4 4 0 4 12 8 2 28 34
Nghost:        3878.97 ave        5426 max         232 min
Histogram: 8 0 8 0 16 0 8 8 16 40
Neighs:        79213.6 ave      115360 max           0 min
Histogram: 8 4 4 0 10 6 8 8 24 32

Total # of neighbors = 8238212
Ave neighs/atom = 28.530506
Neighbor list builds = 0
Dangerous builds = 0
The dot product: 2.12801428215409e-07
Setting atom values ...
  1 settings made for x
  1 settings made for y
  1 settings made for z
Setting up cg style minimization ...
  Unit style    : metal
  Current step  : 4705
Per MPI rank memory allocation (min/avg/max) = 5.441 | 5.816 | 6.074 Mbytes
Step PotEng KinEng TotEng v_fx v_fy v_fz 
    4705     -1152449            0     -1152449 0.0089140304  0.026448373 -0.016387096 
    4898   -1152449.1            0   -1152449.1 5.1004984e-06 -1.8839998e-06 -6.9755605e-06 
Loop time of 2.25727 on 104 procs for 193 steps with 288751 atoms

99.9% CPU use with 104 MPI tasks x 1 OpenMP threads

Minimization stats:
  Stopping criterion = energy tolerance
  Energy initial, next-to-last, final = 
     -1152449.04927274  -1152449.05102809  -1152449.05102809
  Force two-norm initial, final = 0.17480089 0.00010424254
  Force max component initial, final = 0.13490771 1.0196070e-05
  Final line search alpha, max atom move = 1.0000000 1.0196070e-05
  Iterations, force evaluations = 193 386

MPI task timing breakdown:
Section |  min time  |  avg time  |  max time  |%varavg| %total
---------------------------------------------------------------
Pair    | 0.589      | 1.6303     | 2.1368     |  34.4 | 72.22
Neigh   | 0          | 0          | 0          |   0.0 |  0.00
Comm    | 0.036344   | 0.36617    | 1.0976     |  50.8 | 16.22
Output  | 0          | 0          | 0          |   0.0 |  0.00
Modify  | 2.3029e-05 | 0.0031789  | 0.0068149  |   2.7 |  0.14
Other   |            | 0.2577     |            |       | 11.41

Nlocal:        2776.45 ave        3958 max           0 min
Histogram: 8 4 4 0 4 12 8 2 28 34
Nghost:        3879.01 ave        5426 max         232 min
Histogram: 8 0 8 0 16 0 8 8 16 40
Neighs:        79213.6 ave      115360 max           0 min
Histogram: 8 4 4 0 10 6 8 8 24 32

Total # of neighbors = 8238215
Ave neighs/atom = 28.530516
Neighbor list builds = 0
Dangerous builds = 0
The dot product: 6.29400717013853e-08
Setting atom values ...
  1 settings made for x
  1 settings made for y
  1 settings made for z
Setting up cg style minimization ...
  Unit style    : metal
  Current step  : 4898
Per MPI rank memory allocation (min/avg/max) = 5.441 | 5.816 | 6.074 Mbytes
Step PotEng KinEng TotEng v_fx v_fy v_fz 
    4898     -1152449            0     -1152449 0.0066689736  0.018733765 -0.011294112 
    5000     -1152449            0     -1152449 -4.3838863e-05 1.685701e-05 5.8052764e-05 
    5103     -1152449            0     -1152449 5.6436602e-06 -1.6282233e-06 -7.5361699e-06 
Loop time of 2.39825 on 104 procs for 205 steps with 288751 atoms

99.9% CPU use with 104 MPI tasks x 1 OpenMP threads

Minimization stats:
  Stopping criterion = energy tolerance
  Energy initial, next-to-last, final = 
      -1152449.0187745  -1152449.02049334  -1152449.02049334
  Force two-norm initial, final = 0.17460469 9.3270003e-05
  Force max component initial, final = 0.13771053 8.0384575e-06
  Final line search alpha, max atom move = 1.0000000 8.0384575e-06
  Iterations, force evaluations = 205 410

MPI task timing breakdown:
Section |  min time  |  avg time  |  max time  |%varavg| %total
---------------------------------------------------------------
Pair    | 0.62373    | 1.7202     | 2.2524     |  35.4 | 71.73
Neigh   | 0          | 0          | 0          |   0.0 |  0.00
Comm    | 0.035954   | 0.38683    | 1.1626     |  51.8 | 16.13
Output  | 9.7695e-05 | 0.00010233 | 0.00023292 |   0.0 |  0.00
Modify  | 2.4348e-05 | 0.0033793  | 0.0072051  |   2.7 |  0.14
Other   |            | 0.2877     |            |       | 12.00

Nlocal:        2776.45 ave        3958 max           0 min
Histogram: 8 4 4 0 4 12 8 2 28 34
Nghost:        3879.03 ave        5426 max         232 min
Histogram: 8 0 8 0 16 0 8 8 16 40
Neighs:        79213.6 ave      115362 max           0 min
Histogram: 8 4 4 0 10 6 8 8 24 32

Total # of neighbors = 8238218
Ave neighs/atom = 28.530526
Neighbor list builds = 0
Dangerous builds = 0
The dot product: 6.46942240105695e-08
Setting atom values ...
  1 settings made for x
  1 settings made for y
  1 settings made for z
Setting up cg style minimization ...
  Unit style    : metal
  Current step  : 5103
Per MPI rank memory allocation (min/avg/max) = 5.441 | 5.816 | 6.074 Mbytes
Step PotEng KinEng TotEng v_fx v_fy v_fz 
    5103     -1152449            0     -1152449 0.0048194636  0.012967587 -0.0076761457 
    5295     -1152449            0     -1152449 -1.9479247e-05 3.1344191e-06 2.5546437e-05 
Loop time of 2.22364 on 104 procs for 192 steps with 288751 atoms

99.9% CPU use with 104 MPI tasks x 1 OpenMP threads

Minimization stats:
  Stopping criterion = energy tolerance
  Energy initial, next-to-last, final = 
     -1152448.98715656  -1152448.98883952  -1152448.98883952
  Force two-norm initial, final = 0.17494578 0.00011777914
  Force max component initial, final = 0.14001982 2.5546437e-05
  Final line search alpha, max atom move = 1.0000000 2.5546437e-05
  Iterations, force evaluations = 192 384

MPI task timing breakdown:
Section |  min time  |  avg time  |  max time  |%varavg| %total
---------------------------------------------------------------
Pair    | 0.58523    | 1.6177     | 2.1095     |  34.2 | 72.75
Neigh   | 0          | 0          | 0          |   0.0 |  0.00
Comm    | 0.036622   | 0.35907    | 1.0813     |  50.8 | 16.15
Output  | 0          | 0          | 0          |   0.0 |  0.00
Modify  | 2.282e-05  | 0.0031615  | 0.0067516  |   2.7 |  0.14
Other   |            | 0.2437     |            |       | 10.96

Nlocal:        2776.45 ave        3958 max           0 min
Histogram: 8 4 4 0 4 12 8 2 28 34
Nghost:        3879.05 ave        5426 max         232 min
Histogram: 8 0 8 0 16 0 8 8 16 40
Neighs:        79213.6 ave      115371 max           0 min
Histogram: 8 4 4 0 10 6 8 8 24 32

Total # of neighbors = 8238215
Ave neighs/atom = 28.530516
Neighbor list builds = 0
Dangerous builds = 0
The dot product: -2.06614507129765e-07
Setting atom values ...
  1 settings made for x
  1 settings made for y
  1 settings made for z
Setting up cg style minimization ...
  Unit style    : metal
  Current step  : 5295
Per MPI rank memory allocation (min/avg/max) = 5.441 | 5.816 | 6.074 Mbytes
Step PotEng KinEng TotEng v_fx v_fy v_fz 
    5295     -1152449            0     -1152449 0.0027567044 0.0087777146 -0.0043335348 
    5492     -1152449            0     -1152449 1.4425464e-05 -2.1046728e-06 -1.8476623e-05 
Loop time of 2.29355 on 104 procs for 197 steps with 288751 atoms

99.9% CPU use with 104 MPI tasks x 1 OpenMP threads

Minimization stats:
  Stopping criterion = energy tolerance
  Energy initial, next-to-last, final = 
     -1152448.95445429  -1152448.95616192  -1152448.95616192
  Force two-norm initial, final = 0.17566084 0.00010522975
  Force max component initial, final = 0.14211261 1.8476623e-05
  Final line search alpha, max atom move = 1.0000000 1.8476623e-05
  Iterations, force evaluations = 197 394

MPI task timing breakdown:
Section |  min time  |  avg time  |  max time  |%varavg| %total
---------------------------------------------------------------
Pair    | 0.60195    | 1.6571     | 2.1751     |  34.7 | 72.25
Neigh   | 0          | 0          | 0          |   0.0 |  0.00
Comm    | 0.034777   | 0.37053    | 1.1195     |  51.4 | 16.16
Output  | 0          | 0          | 0          |   0.0 |  0.00
Modify  | 2.3182e-05 | 0.0032489  | 0.0069506  |   2.7 |  0.14
Other   |            | 0.2627     |            |       | 11.45

Nlocal:        2776.45 ave        3957 max           0 min
Histogram: 8 4 4 0 4 12 8 2 28 34
Nghost:        3878.99 ave        5426 max         232 min
Histogram: 8 0 8 0 16 0 8 8 16 40
Neighs:        79213.6 ave      115335 max           0 min
Histogram: 8 4 4 0 10 6 8 8 24 32

Total # of neighbors = 8238219
Ave neighs/atom = 28.530530
Neighbor list builds = 0
Dangerous builds = 0
The dot product: 1.40732756566406e-07
Setting atom values ...
  1 settings made for x
  1 settings made for y
  1 settings made for z
Setting up cg style minimization ...
  Unit style    : metal
  Current step  : 5492
Per MPI rank memory allocation (min/avg/max) = 5.441 | 5.816 | 6.074 Mbytes
Step PotEng KinEng TotEng v_fx v_fy v_fz 
    5492   -1152448.9            0   -1152448.9 0.0011934309 0.0059246805 -0.0019833378 
    5726   -1152448.9            0   -1152448.9 -4.1992054e-06 8.605325e-07 5.2413287e-06 
Loop time of 2.73272 on 104 procs for 234 steps with 288751 atoms

99.9% CPU use with 104 MPI tasks x 1 OpenMP threads

Minimization stats:
  Stopping criterion = energy tolerance
  Energy initial, next-to-last, final = 
     -1152448.92086829  -1152448.92257851  -1152448.92257851
  Force two-norm initial, final = 0.17634366 3.6317634e-05
  Force max component initial, final = 0.14378528 5.2413287e-06
  Final line search alpha, max atom move = 1.0000000 5.2413287e-06
  Iterations, force evaluations = 234 468

MPI task timing breakdown:
Section |  min time  |  avg time  |  max time  |%varavg| %total
---------------------------------------------------------------
Pair    | 0.71196    | 1.9726     | 2.5729     |  37.8 | 72.18
Neigh   | 0          | 0          | 0          |   0.0 |  0.00
Comm    | 0.042778   | 0.43862    | 1.3332     |  55.9 | 16.05
Output  | 0          | 0          | 0          |   0.0 |  0.00
Modify  | 2.7595e-05 | 0.003852   | 0.0082346  |   2.9 |  0.14
Other   |            | 0.3177     |            |       | 11.62

Nlocal:        2776.45 ave        3957 max           0 min
Histogram: 8 4 4 0 4 12 8 2 28 34
Nghost:        3878.99 ave        5426 max         232 min
Histogram: 8 0 8 0 16 0 8 8 16 40
Neighs:        79213.6 ave      115350 max           0 min
Histogram: 8 4 4 0 10 6 8 8 24 32

Total # of neighbors = 8238214
Ave neighs/atom = 28.530512
Neighbor list builds = 0
Dangerous builds = 0
The dot product: -3.59371055003131e-08
Setting atom values ...
  1 settings made for x
  1 settings made for y
  1 settings made for z
Setting up cg style minimization ...
  Unit style    : metal
  Current step  : 5726
Per MPI rank memory allocation (min/avg/max) = 5.441 | 5.816 | 6.074 Mbytes
Step PotEng KinEng TotEng v_fx v_fy v_fz 
    5726   -1152448.9            0   -1152448.9 -0.00084820621 0.0039452232 0.00075478258 
    5941   -1152448.9            0   -1152448.9 -7.7699914e-07 -1.461159e-06 1.073717e-06 
Loop time of 2.50359 on 104 procs for 215 steps with 288751 atoms

99.9% CPU use with 104 MPI tasks x 1 OpenMP threads

Minimization stats:
  Stopping criterion = energy tolerance
  Energy initial, next-to-last, final = 
     -1152448.88637018  -1152448.88799243  -1152448.88799243
  Force two-norm initial, final = 0.17722516 7.1909177e-05
  Force max component initial, final = 0.14540192 1.2843198e-05
  Final line search alpha, max atom move = 1.0000000 1.2843198e-05
  Iterations, force evaluations = 215 430

MPI task timing breakdown:
Section |  min time  |  avg time  |  max time  |%varavg| %total
---------------------------------------------------------------
Pair    | 0.65686    | 1.8087     | 2.3572     |  36.0 | 72.25
Neigh   | 0          | 0          | 0          |   0.0 |  0.00
Comm    | 0.044545   | 0.40406    | 1.2301     |  54.0 | 16.14
Output  | 0          | 0          | 0          |   0.0 |  0.00
Modify  | 2.5738e-05 | 0.0035369  | 0.0075331  |   2.8 |  0.14
Other   |            | 0.2873     |            |       | 11.47

Nlocal:        2776.45 ave        3957 max           0 min
Histogram: 8 4 4 0 4 12 8 2 28 34
Nghost:        3879.02 ave        5426 max         232 min
Histogram: 8 0 8 0 16 0 8 8 16 40
Neighs:        79213.6 ave      115354 max           0 min
Histogram: 8 4 4 0 10 6 8 8 24 32

Total # of neighbors = 8238216
Ave neighs/atom = 28.530519
Neighbor list builds = 0
Dangerous builds = 0
The dot product: -7.04244001013803e-09
Setting atom values ...
  1 settings made for x
  1 settings made for y
  1 settings made for z
Setting up cg style minimization ...
  Unit style    : metal
  Current step  : 5941
Per MPI rank memory allocation (min/avg/max) = 5.441 | 5.816 | 6.074 Mbytes
Step PotEng KinEng TotEng v_fx v_fy v_fz 
    5941   -1152448.9            0   -1152448.9 -0.0036980073 0.0026159644 0.0043275225 
    6000   -1152448.9            0   -1152448.9 -7.7513333e-05 -1.2719814e-05 9.5613772e-05 
    6115   -1152448.9            0   -1152448.9 2.2213455e-05 -3.4318251e-06 -2.6886713e-05 
Loop time of 2.01133 on 104 procs for 174 steps with 288751 atoms

99.9% CPU use with 104 MPI tasks x 1 OpenMP threads

Minimization stats:
  Stopping criterion = energy tolerance
  Energy initial, next-to-last, final = 
     -1152448.85073177   -1152448.8523564   -1152448.8523564
  Force two-norm initial, final = 0.17855319 0.00021710704
  Force max component initial, final = 0.14716941 2.6886713e-05
  Final line search alpha, max atom move = 1.0000000 2.6886713e-05
  Iterations, force evaluations = 174 348

MPI task timing breakdown:
Section |  min time  |  avg time  |  max time  |%varavg| %total
---------------------------------------------------------------
Pair    | 0.53123    | 1.464      | 1.9085     |  32.5 | 72.79
Neigh   | 0          | 0          | 0          |   0.0 |  0.00
Comm    | 0.030852   | 0.32409    | 0.97866    |  48.3 | 16.11
Output  | 9.7949e-05 | 0.00010834 | 0.00021256 |   0.0 |  0.01
Modify  | 2.0734e-05 | 0.0028642  | 0.0061584  |   2.5 |  0.14
Other   |            | 0.2203     |            |       | 10.95

Nlocal:        2776.45 ave        3957 max           0 min
Histogram: 8 4 4 0 4 12 8 2 28 34
Nghost:        3879.02 ave        5426 max         232 min
Histogram: 8 0 8 0 16 0 8 8 16 40
Neighs:        79213.6 ave      115349 max           0 min
Histogram: 8 4 4 0 10 6 8 8 24 32

Total # of neighbors = 8238215
Ave neighs/atom = 28.530516
Neighbor list builds = 0
Dangerous builds = 0
The dot product: 1.252884801069e-07
Setting atom values ...
  1 settings made for x
  1 settings made for y
  1 settings made for z
Setting up cg style minimization ...
  Unit style    : metal
  Current step  : 6115
Per MPI rank memory allocation (min/avg/max) = 5.441 | 5.816 | 6.074 Mbytes
Step PotEng KinEng TotEng v_fx v_fy v_fz 
    6115   -1152448.8            0   -1152448.8 -0.0062741527  0.001935302 0.0074362563 
    6378   -1152448.8            0   -1152448.8  1.35236e-06 -1.384433e-07 -1.6227003e-06 
Loop time of 3.04452 on 104 procs for 263 steps with 288751 atoms

99.9% CPU use with 104 MPI tasks x 1 OpenMP threads

Minimization stats:
  Stopping criterion = energy tolerance
  Energy initial, next-to-last, final = 
     -1152448.81409079  -1152448.81585053  -1152448.81585053
  Force two-norm initial, final = 0.1797551 1.1901871e-05
  Force max component initial, final = 0.14870994 1.6227003e-06
  Final line search alpha, max atom move = 1.0000000 1.6227003e-06
  Iterations, force evaluations = 263 526

MPI task timing breakdown:
Section |  min time  |  avg time  |  max time  |%varavg| %total
---------------------------------------------------------------
Pair    | 0.80353    | 2.2015     | 2.8785     |  39.9 | 72.31
Neigh   | 0          | 0          | 0          |   0.0 |  0.00
Comm    | 0.047353   | 0.49031    | 1.4786     |  59.1 | 16.10
Output  | 0          | 0          | 0          |   0.0 |  0.00
Modify  | 3.0734e-05 | 0.0043425  | 0.0092091  |   3.1 |  0.14
Other   |            | 0.3484     |            |       | 11.44

Nlocal:        2776.45 ave        3956 max           0 min
Histogram: 8 4 4 0 4 12 8 0 30 34
Nghost:        3879.02 ave        5426 max         232 min
Histogram: 8 0 8 0 16 0 8 8 16 40
Neighs:        79213.6 ave      115319 max           0 min
Histogram: 8 4 4 0 10 6 8 8 24 32

Total # of neighbors = 8238213
Ave neighs/atom = 28.530509
Neighbor list builds = 0
Dangerous builds = 0
The dot product: 6.65925385727196e-09
Setting atom values ...
  1 settings made for x
  1 settings made for y
  1 settings made for z
Setting up cg style minimization ...
  Unit style    : metal
  Current step  : 6378
Per MPI rank memory allocation (min/avg/max) = 5.441 | 5.816 | 6.074 Mbytes
Step PotEng KinEng TotEng v_fx v_fy v_fz 
    6378   -1152448.8            0   -1152448.8 -0.0083642471 0.0017416994 0.0098737776 
    6577   -1152448.8            0   -1152448.8 -1.6835875e-05 4.296802e-06 1.9818306e-05 
Loop time of 2.32993 on 104 procs for 199 steps with 288751 atoms

99.9% CPU use with 104 MPI tasks x 1 OpenMP threads

Minimization stats:
  Stopping criterion = energy tolerance
  Energy initial, next-to-last, final = 
     -1152448.77674859  -1152448.77836589  -1152448.77836589
  Force two-norm initial, final = 0.1803778 0.00010024918
  Force max component initial, final = 0.14980609 2.5562185e-05
  Final line search alpha, max atom move = 1.0000000 2.5562185e-05
  Iterations, force evaluations = 199 398

MPI task timing breakdown:
Section |  min time  |  avg time  |  max time  |%varavg| %total
---------------------------------------------------------------
Pair    | 0.6083     | 1.6808     | 2.2051     |  34.8 | 72.14
Neigh   | 0          | 0          | 0          |   0.0 |  0.00
Comm    | 0.039579   | 0.37638    | 1.1378     |  51.5 | 16.15
Output  | 0          | 0          | 0          |   0.0 |  0.00
Modify  | 2.3791e-05 | 0.0032819  | 0.0070283  |   2.7 |  0.14
Other   |            | 0.2695     |            |       | 11.57

Nlocal:        2776.45 ave        3956 max           0 min
Histogram: 8 4 4 0 4 12 8 0 30 34
Nghost:        3878.98 ave        5425 max         232 min
Histogram: 8 0 8 0 16 0 8 8 16 40
Neighs:        79213.6 ave      115333 max           0 min
Histogram: 8 4 4 0 10 6 8 8 24 32

Total # of neighbors = 8238215
Ave neighs/atom = 28.530516
Neighbor list builds = 0
Dangerous builds = 0
The dot product: -5.43313162594277e-08
Setting atom values ...
  1 settings made for x
  1 settings made for y
  1 settings made for z
Setting up cg style minimization ...
  Unit style    : metal
  Current step  : 6577
Per MPI rank memory allocation (min/avg/max) = 5.441 | 5.816 | 6.074 Mbytes
Step PotEng KinEng TotEng v_fx v_fy v_fz 
    6577   -1152448.7            0   -1152448.7  -0.01155157 0.0020591241  0.013573763 
    6813   -1152448.7            0   -1152448.7 -2.4925359e-06 2.1063628e-07 2.9454738e-06 
Loop time of 2.72987 on 104 procs for 236 steps with 288751 atoms

99.9% CPU use with 104 MPI tasks x 1 OpenMP threads

Minimization stats:
  Stopping criterion = energy tolerance
  Energy initial, next-to-last, final = 
      -1152448.7382545  -1152448.73990109  -1152448.73990109
  Force two-norm initial, final = 0.18134256 3.5501960e-05
  Force max component initial, final = 0.15116498 3.5829165e-06
  Final line search alpha, max atom move = 1.0000000 3.5829165e-06
  Iterations, force evaluations = 236 472

MPI task timing breakdown:
Section |  min time  |  avg time  |  max time  |%varavg| %total
---------------------------------------------------------------
Pair    | 0.71838    | 1.9756     | 2.5847     |  37.8 | 72.37
Neigh   | 0          | 0          | 0          |   0.0 |  0.00
Comm    | 0.042496   | 0.44175    | 1.3391     |  56.1 | 16.18
Output  | 0          | 0          | 0          |   0.0 |  0.00
Modify  | 2.8019e-05 | 0.003892   | 0.0083163  |   3.0 |  0.14
Other   |            | 0.3086     |            |       | 11.30

Nlocal:        2776.45 ave        3956 max           0 min
Histogram: 8 4 4 0 4 12 8 0 30 34
Nghost:        3878.96 ave        5425 max         232 min
Histogram: 8 0 8 0 16 0 8 8 16 40
Neighs:        79213.6 ave      115334 max           0 min
Histogram: 8 4 4 0 10 6 8 8 24 32

Total # of neighbors = 8238213
Ave neighs/atom = 28.530509
Neighbor list builds = 0
Dangerous builds = 0
The dot product: -4.56371942393822e-09
Setting atom values ...
  1 settings made for x
  1 settings made for y
  1 settings made for z
Setting up cg style minimization ...
  Unit style    : metal
  Current step  : 6813
Per MPI rank memory allocation (min/avg/max) = 5.441 | 5.816 | 6.074 Mbytes
Step PotEng KinEng TotEng v_fx v_fy v_fz 
    6813   -1152448.7            0   -1152448.7 -0.014262252 0.0027508262  0.016683706 
    6994   -1152448.7            0   -1152448.7 -1.9252706e-05 5.0483644e-06 2.2425558e-05 
Loop time of 2.10837 on 104 procs for 181 steps with 288751 atoms

99.9% CPU use with 104 MPI tasks x 1 OpenMP threads

Minimization stats:
  Stopping criterion = energy tolerance
  Energy initial, next-to-last, final = 
     -1152448.69893004  -1152448.70081573  -1152448.70081573
  Force two-norm initial, final = 0.1815267 0.00011797328
  Force max component initial, final = 0.15208137 3.0450051e-05
  Final line search alpha, max atom move = 1.0000000 3.0450051e-05
  Iterations, force evaluations = 181 362

MPI task timing breakdown:
Section |  min time  |  avg time  |  max time  |%varavg| %total
---------------------------------------------------------------
Pair    | 0.5529     | 1.5269     | 2.0009     |  33.2 | 72.42
Neigh   | 0          | 0          | 0          |   0.0 |  0.00
Comm    | 0.033514   | 0.3398     | 1.033      |  49.6 | 16.12
Output  | 0          | 0          | 0          |   0.0 |  0.00
Modify  | 2.1609e-05 | 0.0029849  | 0.0063799  |   2.6 |  0.14
Other   |            | 0.2387     |            |       | 11.32

Nlocal:        2776.45 ave        3955 max           0 min
Histogram: 8 4 4 0 4 12 8 0 30 34
Nghost:        3878.97 ave        5425 max         232 min
Histogram: 8 0 8 0 16 0 8 8 16 40
Neighs:        79213.6 ave      115301 max           0 min
Histogram: 8 4 4 0 10 6 8 8 24 32

Total # of neighbors = 8238215
Ave neighs/atom = 28.530516
Neighbor list builds = 0
Dangerous builds = 0
The dot product: -2.0536941683803e-08
Setting atom values ...
  1 settings made for x
  1 settings made for y
  1 settings made for z
Setting up cg style minimization ...
  Unit style    : metal
  Current step  : 6994
Per MPI rank memory allocation (min/avg/max) = 5.441 | 5.816 | 6.074 Mbytes
Step PotEng KinEng TotEng v_fx v_fy v_fz 
    6994   -1152448.7            0   -1152448.7 -0.016349041 0.0033002659  0.019077486 
    7000   -1152448.7            0   -1152448.7 0.0013238205 -0.0048424781 -0.0012084651 
    7234   -1152448.7            0   -1152448.7 -2.8117017e-06 6.6023439e-07 3.2741283e-06 
Loop time of 2.77872 on 104 procs for 240 steps with 288751 atoms

99.9% CPU use with 104 MPI tasks x 1 OpenMP threads

Minimization stats:
  Stopping criterion = energy tolerance
  Energy initial, next-to-last, final = 
     -1152448.65947237  -1152448.66126349  -1152448.66126349
  Force two-norm initial, final = 0.18023229 1.4750548e-05
  Force max component initial, final = 0.15193142 4.0702827e-06
  Final line search alpha, max atom move = 1.0000000 4.0702827e-06
  Iterations, force evaluations = 240 480

MPI task timing breakdown:
Section |  min time  |  avg time  |  max time  |%varavg| %total
---------------------------------------------------------------
Pair    | 0.73199    | 2.0116     | 2.637      |  38.2 | 72.39
Neigh   | 0          | 0          | 0          |   0.0 |  0.00
Comm    | 0.044369   | 0.4484     | 1.3572     |  56.8 | 16.14
Output  | 0.00011604 | 0.00012418 | 0.00018393 |   0.0 |  0.00
Modify  | 2.8136e-05 | 0.0039565  | 0.0084262  |   3.0 |  0.14
Other   |            | 0.3146     |            |       | 11.32

Nlocal:        2776.45 ave        3956 max           0 min
Histogram: 8 4 4 0 4 12 8 0 30 34
Nghost:        3878.92 ave        5425 max         232 min
Histogram: 8 0 8 0 16 0 8 8 16 40
Neighs:        79213.5 ave      115344 max           0 min
Histogram: 8 4 4 0 10 6 8 8 24 32

Total # of neighbors = 8238200
Ave neighs/atom = 28.530464
Neighbor list builds = 0
Dangerous builds = 0
The dot product: 1.79986306344611e-09
Setting atom values ...
  1 settings made for x
  1 settings made for y
  1 settings made for z
Setting up cg style minimization ...
  Unit style    : metal
  Current step  : 7234
Per MPI rank memory allocation (min/avg/max) = 5.441 | 5.816 | 6.074 Mbytes
Step PotEng KinEng TotEng v_fx v_fy v_fz 
    7234   -1152448.6            0   -1152448.6  -0.01919532 0.0037440442  0.022436674 
    7458   -1152448.6            0   -1152448.6 2.1120199e-05 -1.2958244e-06 -2.4901345e-05 
Loop time of 2.59622 on 104 procs for 224 steps with 288751 atoms

99.9% CPU use with 104 MPI tasks x 1 OpenMP threads

Minimization stats:
  Stopping criterion = energy tolerance
  Energy initial, next-to-last, final = 
     -1152448.61983688  -1152448.62198732  -1152448.62198732
  Force two-norm initial, final = 0.17913119 0.00011584575
  Force max component initial, final = 0.15122085 2.4901345e-05
  Final line search alpha, max atom move = 1.0000000 2.4901345e-05
  Iterations, force evaluations = 224 448

MPI task timing breakdown:
Section |  min time  |  avg time  |  max time  |%varavg| %total
---------------------------------------------------------------
Pair    | 0.68308    | 1.8854     | 2.4578     |  36.9 | 72.62
Neigh   | 0          | 0          | 0          |   0.0 |  0.00
Comm    | 0.041093   | 0.42027    | 1.2574     |  54.4 | 16.19
Output  | 0          | 0          | 0          |   0.0 |  0.00
Modify  | 2.7198e-05 | 0.0036852  | 0.0078765  |   2.9 |  0.14
Other   |            | 0.2869     |            |       | 11.05

Nlocal:        2776.45 ave        3955 max           0 min
Histogram: 8 4 4 0 4 12 8 0 30 34
Nghost:        3878.91 ave        5425 max         232 min
Histogram: 8 0 8 0 16 0 8 8 16 40
Neighs:        79213.5 ave      115307 max           0 min
Histogram: 8 4 4 0 10 6 8 8 24 32

Total # of neighbors = 8238201
Ave neighs/atom = 28.530467
Neighbor list builds = 0
Dangerous builds = 0
The dot product: -2.06193930712598e-08
Setting atom values ...
  1 settings made for x
  1 settings made for y
  1 settings made for z
Setting up cg style minimization ...
  Unit style    : metal
  Current step  : 7458
Per MPI rank memory allocation (min/avg/max) = 5.441 | 5.816 | 6.074 Mbytes
Step PotEng KinEng TotEng v_fx v_fy v_fz 
    7458   -1152448.6            0   -1152448.6 -0.021536342 0.00084779208  0.025473484 
    7713   -1152448.6            0   -1152448.6 -1.3779494e-05 2.446783e-06 1.614745e-05 
Loop time of 2.95461 on 104 procs for 255 steps with 288751 atoms

99.9% CPU use with 104 MPI tasks x 1 OpenMP threads

Minimization stats:
  Stopping criterion = energy tolerance
  Energy initial, next-to-last, final = 
     -1152448.58159745  -1152448.58610307  -1152448.58610307
  Force two-norm initial, final = 0.17843826 0.00010883787
  Force max component initial, final = 0.14828748 2.0448789e-05
  Final line search alpha, max atom move = 1.0000000 2.0448789e-05
  Iterations, force evaluations = 255 510

MPI task timing breakdown:
Section |  min time  |  avg time  |  max time  |%varavg| %total
---------------------------------------------------------------
Pair    | 0.7792     | 2.1399     | 2.7897     |  39.3 | 72.43
Neigh   | 1.0475e-05 | 0.0029603  | 0.0042954  |   2.2 |  0.10
Comm    | 0.050685   | 0.47591    | 1.4493     |  58.7 | 16.11
Output  | 0          | 0          | 0          |   0.0 |  0.00
Modify  | 3.0239e-05 | 0.0042057  | 0.0089286  |   3.1 |  0.14
Other   |            | 0.3316     |            |       | 11.22

Nlocal:        2776.45 ave        3956 max           0 min
Histogram: 8 4 4 0 4 12 8 0 30 34
Nghost:        3878.97 ave        5425 max         232 min
Histogram: 8 0 8 0 16 0 8 8 16 40
Neighs:        79213.4 ave      115328 max           0 min
Histogram: 8 4 4 0 10 6 8 8 24 32

Total # of neighbors = 8238196
Ave neighs/atom = 28.530450
Neighbor list builds = 1
Dangerous builds = 0
The dot product: -2.68700767955481e-07
Setting atom values ...
  1 settings made for x
  1 settings made for y
  1 settings made for z
Setting up cg style minimization ...
  Unit style    : metal
  Current step  : 7713
Per MPI rank memory allocation (min/avg/max) = 5.441 | 5.816 | 6.074 Mbytes
Step PotEng KinEng TotEng v_fx v_fy v_fz 
    7713   -1152448.6            0   -1152448.6 -0.011715322 -0.0012472846  0.013552754 
    7925   -1152448.6            0   -1152448.6 -1.9949078e-05 2.6979374e-06 2.2671853e-05 
Loop time of 2.45471 on 104 procs for 212 steps with 288751 atoms

99.9% CPU use with 104 MPI tasks x 1 OpenMP threads

Minimization stats:
  Stopping criterion = energy tolerance
  Energy initial, next-to-last, final = 
     -1152448.55848801  -1152448.56158628  -1152448.56158628
  Force two-norm initial, final = 0.1844231 0.0001047518
  Force max component initial, final = 0.14848336 2.8847976e-05
  Final line search alpha, max atom move = 1.0000000 2.8847976e-05
  Iterations, force evaluations = 212 424

MPI task timing breakdown:
Section |  min time  |  avg time  |  max time  |%varavg| %total
---------------------------------------------------------------
Pair    | 0.64843    | 1.7877     | 2.3215     |  35.9 | 72.83
Neigh   | 0          | 0          | 0          |   0.0 |  0.00
Comm    | 0.039041   | 0.39717    | 1.2087     |  53.3 | 16.18
Output  | 0          | 0          | 0          |   0.0 |  0.00
Modify  | 2.5708e-05 | 0.0034934  | 0.007488   |   2.8 |  0.14
Other   |            | 0.2664     |            |       | 10.85

Nlocal:        2776.45 ave        3956 max           0 min
Histogram: 8 4 4 0 4 12 8 0 30 34
Nghost:        3879.03 ave        5426 max         232 min
Histogram: 8 0 8 0 16 0 8 8 16 40
Neighs:        79213.5 ave      115337 max           0 min
Histogram: 8 4 4 0 10 6 8 8 24 32

Total # of neighbors = 8238199
Ave neighs/atom = 28.530461
Neighbor list builds = 0
Dangerous builds = 0
The dot product: -1.85448442342407e-07
Setting atom values ...
  1 settings made for x
  1 settings made for y
  1 settings made for z
Setting up cg style minimization ...
  Unit style    : metal
  Current step  : 7925
Per MPI rank memory allocation (min/avg/max) = 5.441 | 5.816 | 6.074 Mbytes
Step PotEng KinEng TotEng v_fx v_fy v_fz 
    7925   -1152448.5            0   -1152448.5  -0.02470342 0.0041709587  0.027561058 
    8000   -1152448.5            0   -1152448.5 -0.00035995461 4.9351043e-05 0.00040257358 
[...]
Histogram: 8 4 4 0 4 12 8 0 30 34
Nghost:        3879.05 ave        5425 max         232 min
Histogram: 8 0 8 0 16 0 8 8 16 40
Neighs:        79213.4 ave      115291 max           0 min
Histogram: 8 4 4 0 10 6 8 8 24 32

Total # of neighbors = 8238196
Ave neighs/atom = 28.530450
Neighbor list builds = 0
Dangerous builds = 0
The dot product: 2.54352027782177e-08
Setting atom values ...
  1 settings made for x
  1 settings made for y
  1 settings made for z
Setting up cg style minimization ...
  Unit style    : metal
  Current step  : 15453
Per MPI rank memory allocation (min/avg/max) = 5.441 | 5.816 | 6.074 Mbytes
Step PotEng KinEng TotEng v_fx v_fy v_fz 
   15453   -1152448.6            0   -1152448.6 -0.0087587388  0.014942518 -0.0099945154 
   15641   -1152448.6            0   -1152448.6 -8.1587102e-06 2.3081478e-05 -1.8499285e-05 
Loop time of 2.13733 on 104 procs for 188 steps with 288751 atoms

99.9% CPU use with 104 MPI tasks x 1 OpenMP threads

Minimization stats:
  Stopping criterion = energy tolerance
  Energy initial, next-to-last, final = 
     -1152448.60753233  -1152448.60882145  -1152448.60882145
  Force two-norm initial, final = 0.15495924 0.00019174555
  Force max component initial, final = 0.075425511 4.0632057e-05
  Final line search alpha, max atom move = 1.0000000 4.0632057e-05
  Iterations, force evaluations = 188 376

MPI task timing breakdown:
Section |  min time  |  avg time  |  max time  |%varavg| %total
---------------------------------------------------------------
Pair    | 0.56746    | 1.573      | 2.0248     |  33.8 | 73.59
Neigh   | 0          | 0          | 0          |   0.0 |  0.00
Comm    | 0.041256   | 0.35029    | 1.0832     |  50.2 | 16.39
Output  | 0          | 0          | 0          |   0.0 |  0.00
Modify  | 2.3751e-05 | 0.0030969  | 0.0066408  |   2.6 |  0.14
Other   |            | 0.211      |            |       |  9.87

Nlocal:        2776.45 ave        3954 max           0 min
Histogram: 8 4 4 0 4 12 8 0 30 34
Nghost:        3879.06 ave        5425 max         232 min
Histogram: 8 0 8 0 16 0 8 8 16 40
Neighs:        79213.4 ave      115222 max           0 min
Histogram: 8 4 4 0 10 6 8 8 24 32

Total # of neighbors = 8238195
Ave neighs/atom = 28.530447
Neighbor list builds = 0
Dangerous builds = 0
The dot product: 2.94768865067067e-08
Setting atom values ...
  1 settings made for x
  1 settings made for y
  1 settings made for z
Setting up cg style minimization ...
  Unit style    : metal
  Current step  : 15641
Per MPI rank memory allocation (min/avg/max) = 5.441 | 5.816 | 6.074 Mbytes
Step PotEng KinEng TotEng v_fx v_fy v_fz 
   15641   -1152448.6            0   -1152448.6 -0.0076666749  0.016059036 -0.011760138 
   15856   -1152448.6            0   -1152448.6 6.7481228e-06 -1.7500592e-05 1.3726201e-05 
Loop time of 2.46148 on 104 procs for 215 steps with 288751 atoms

99.9% CPU use with 104 MPI tasks x 1 OpenMP threads

Minimization stats:
  Stopping criterion = energy tolerance
  Energy initial, next-to-last, final = 
     -1152448.58860579  -1152448.58990641  -1152448.58990641
  Force two-norm initial, final = 0.15657399 9.0115277e-05
  Force max component initial, final = 0.076391968 2.3078737e-05
  Final line search alpha, max atom move = 1.0000000 2.3078737e-05
  Iterations, force evaluations = 215 430

MPI task timing breakdown:
Section |  min time  |  avg time  |  max time  |%varavg| %total
---------------------------------------------------------------
Pair    | 0.65501    | 1.7998     | 2.318      |  36.1 | 73.12
Neigh   | 0          | 0          | 0          |   0.0 |  0.00
Comm    | 0.037323   | 0.40234    | 1.2234     |  53.4 | 16.35
Output  | 0          | 0          | 0          |   0.0 |  0.00
Modify  | 2.6708e-05 | 0.0035377  | 0.0075565  |   2.8 |  0.14
Other   |            | 0.2558     |            |       | 10.39

Nlocal:        2776.45 ave        3954 max           0 min
Histogram: 8 4 4 0 4 12 8 0 30 34
Nghost:        3879.07 ave        5425 max         232 min
Histogram: 8 0 8 0 16 0 8 8 16 40
Neighs:        79213.4 ave      115221 max           0 min
Histogram: 8 4 4 0 10 6 8 8 24 32

Total # of neighbors = 8238191
Ave neighs/atom = 28.530433
Neighbor list builds = 0
Dangerous builds = 0
The dot product: -3.22030482003194e-08
Setting atom values ...
  1 settings made for x
  1 settings made for y
  1 settings made for z
Setting up cg style minimization ...
  Unit style    : metal
  Current step  : 15856
Per MPI rank memory allocation (min/avg/max) = 5.441 | 5.816 | 6.074 Mbytes
Step PotEng KinEng TotEng v_fx v_fy v_fz 
   15856   -1152448.6            0   -1152448.6 -0.007026702  0.015866805 -0.011956291 
   16000   -1152448.6            0   -1152448.6 -3.4260835e-05 8.4239952e-05 -6.5195104e-05 
   16071   -1152448.6            0   -1152448.6 1.4052469e-05 -3.0084748e-05 2.2258961e-05 
Loop time of 2.44778 on 104 procs for 215 steps with 288751 atoms

99.9% CPU use with 104 MPI tasks x 1 OpenMP threads

Minimization stats:
  Stopping criterion = energy tolerance
  Energy initial, next-to-last, final = 
     -1152448.56813406  -1152448.56944121  -1152448.56944121
  Force two-norm initial, final = 0.15781951 9.5417739e-05
  Force max component initial, final = 0.077357329 3.0084748e-05
  Final line search alpha, max atom move = 1.0000000 3.0084748e-05
  Iterations, force evaluations = 215 430

MPI task timing breakdown:
Section |  min time  |  avg time  |  max time  |%varavg| %total
---------------------------------------------------------------
Pair    | 0.65054    | 1.7995     | 2.3163     |  36.1 | 73.51
Neigh   | 0          | 0          | 0          |   0.0 |  0.00
Comm    | 0.046756   | 0.4008     | 1.2297     |  53.7 | 16.37
Output  | 9.7831e-05 | 0.00010622 | 0.00028294 |   0.0 |  0.00
Modify  | 2.7207e-05 | 0.0035351  | 0.0075395  |   2.8 |  0.14
Other   |            | 0.2439     |            |       |  9.96

Nlocal:        2776.45 ave        3954 max           0 min
Histogram: 8 4 4 0 4 12 8 0 30 34
Nghost:        3879.07 ave        5426 max         232 min
Histogram: 8 0 8 0 16 0 8 8 16 40
Neighs:        79213.4 ave      115209 max           0 min
Histogram: 8 4 4 0 10 6 8 8 24 32

Total # of neighbors = 8238193
Ave neighs/atom = 28.530440
Neighbor list builds = 0
Dangerous builds = 0
The dot product: -5.72844405699877e-08
Setting atom values ...
  1 settings made for x
  1 settings made for y
  1 settings made for z
Setting up cg style minimization ...
  Unit style    : metal
  Current step  : 16071
Per MPI rank memory allocation (min/avg/max) = 5.441 | 5.816 | 6.074 Mbytes
Step PotEng KinEng TotEng v_fx v_fy v_fz 
   16071   -1152448.5            0   -1152448.5 -0.006072118   0.01497097 -0.011616227 
   16294   -1152448.5            0   -1152448.5 4.3881504e-06 -9.8075183e-06 7.3795919e-06 
Loop time of 2.54718 on 104 procs for 223 steps with 288751 atoms

99.9% CPU use with 104 MPI tasks x 1 OpenMP threads

Minimization stats:
  Stopping criterion = energy tolerance
  Energy initial, next-to-last, final = 
     -1152448.54606298  -1152448.54737337  -1152448.54737337
  Force two-norm initial, final = 0.15860196 6.7848621e-05
  Force max component initial, final = 0.078255367 1.3268386e-05
  Final line search alpha, max atom move = 1.0000000 1.3268386e-05
  Iterations, force evaluations = 223 446

MPI task timing breakdown:
Section |  min time  |  avg time  |  max time  |%varavg| %total
---------------------------------------------------------------
Pair    | 0.67398    | 1.8633     | 2.4035     |  36.8 | 73.15
Neigh   | 0          | 0          | 0          |   0.0 |  0.00
Comm    | 0.044628   | 0.41663    | 1.2789     |  54.1 | 16.36
Output  | 0          | 0          | 0          |   0.0 |  0.00
Modify  | 2.8236e-05 | 0.0036662  | 0.0078381  |   2.9 |  0.14
Other   |            | 0.2636     |            |       | 10.35

Nlocal:        2776.45 ave        3954 max           0 min
Histogram: 8 4 4 0 4 12 8 0 30 34
Nghost:        3879.08 ave        5426 max         232 min
Histogram: 8 0 8 0 16 0 8 8 16 40
Neighs:        79213.4 ave      115201 max           0 min
Histogram: 8 4 4 0 10 6 8 8 24 32

Total # of neighbors = 8238190
Ave neighs/atom = 28.530429
Neighbor list builds = 0
Dangerous builds = 0
The dot product: -1.44820813756754e-08
Setting atom values ...
  1 settings made for x
  1 settings made for y
  1 settings made for z
Setting up cg style minimization ...
  Unit style    : metal
  Current step  : 16294
Per MPI rank memory allocation (min/avg/max) = 5.441 | 5.816 | 6.074 Mbytes
Step PotEng KinEng TotEng v_fx v_fy v_fz 
   16294   -1152448.5            0   -1152448.5 -0.0046796048  0.013361099 -0.010794486 
   16544   -1152448.5            0   -1152448.5 -3.6730067e-06 7.4572787e-06 -5.432002e-06 
Loop time of 2.85424 on 104 procs for 250 steps with 288751 atoms

99.9% CPU use with 104 MPI tasks x 1 OpenMP threads

Minimization stats:
  Stopping criterion = energy tolerance
  Energy initial, next-to-last, final = 
     -1152448.52235903   -1152448.5236699   -1152448.5236699
  Force two-norm initial, final = 0.15883805 2.6896036e-05
  Force max component initial, final = 0.079079188 7.4572787e-06
  Final line search alpha, max atom move = 1.0000000 7.4572787e-06
  Iterations, force evaluations = 250 500

MPI task timing breakdown:
Section |  min time  |  avg time  |  max time  |%varavg| %total
---------------------------------------------------------------
Pair    | 0.75508    | 2.0924     | 2.6937     |  39.1 | 73.31
Neigh   | 0          | 0          | 0          |   0.0 |  0.00
Comm    | 0.046061   | 0.47082    | 1.4314     |  57.6 | 16.50
Output  | 0          | 0          | 0          |   0.0 |  0.00
Modify  | 3.1326e-05 | 0.0041099  | 0.0087828  |   3.0 |  0.14
Other   |            | 0.2869     |            |       | 10.05

Nlocal:        2776.45 ave        3954 max           0 min
Histogram: 8 4 4 0 4 12 8 0 30 34
Nghost:        3879.09 ave        5426 max         232 min
Histogram: 8 0 8 0 16 0 8 8 16 40
Neighs:        79213.4 ave      115203 max           0 min
Histogram: 8 4 4 0 10 6 8 8 24 32

Total # of neighbors = 8238193
Ave neighs/atom = 28.530440
Neighbor list builds = 0
Dangerous builds = 0
The dot product: 8.57413700417407e-09
Setting atom values ...
  1 settings made for x
  1 settings made for y
  1 settings made for z
Setting up cg style minimization ...
  Unit style    : metal
  Current step  : 16544
Per MPI rank memory allocation (min/avg/max) = 5.441 | 5.816 | 6.074 Mbytes
Step PotEng KinEng TotEng v_fx v_fy v_fz 
   16544   -1152448.5            0   -1152448.5 -0.0027377526  0.010921552 -0.0094341915 
   16759   -1152448.5            0   -1152448.5 1.917748e-05 -4.1025388e-05 3.0492914e-05 
Loop time of 2.45277 on 104 procs for 215 steps with 288751 atoms

99.9% CPU use with 104 MPI tasks x 1 OpenMP threads

Minimization stats:
  Stopping criterion = energy tolerance
  Energy initial, next-to-last, final = 
     -1152448.49701252  -1152448.49834062  -1152448.49834062
  Force two-norm initial, final = 0.15852381 0.00015433495
  Force max component initial, final = 0.079863387 4.1025388e-05
  Final line search alpha, max atom move = 1.0000000 4.1025388e-05
  Iterations, force evaluations = 215 430

MPI task timing breakdown:
Section |  min time  |  avg time  |  max time  |%varavg| %total
---------------------------------------------------------------
Pair    | 0.65041    | 1.7968     | 2.3193     |  36.2 | 73.26
Neigh   | 0          | 0          | 0          |   0.0 |  0.00
Comm    | 0.048813   | 0.40165    | 1.2227     |  53.4 | 16.38
Output  | 0          | 0          | 0          |   0.0 |  0.00
Modify  | 2.6975e-05 | 0.0035337  | 0.0075716  |   2.8 |  0.14
Other   |            | 0.2508     |            |       | 10.22

Nlocal:        2776.45 ave        3954 max           0 min
Histogram: 8 4 4 0 4 12 8 0 30 34
Nghost:        3879.09 ave        5426 max         232 min
Histogram: 8 0 8 0 16 0 8 8 16 40
Neighs:        79213.4 ave      115201 max           0 min
Histogram: 8 4 4 0 10 6 8 8 24 32

Total # of neighbors = 8238190
Ave neighs/atom = 28.530429
Neighbor list builds = 0
Dangerous builds = 0
The dot product: -2.32882688570775e-09
Setting atom values ...
  1 settings made for x
  1 settings made for y
  1 settings made for z
Setting up cg style minimization ...
  Unit style    : metal
  Current step  : 16759
Per MPI rank memory allocation (min/avg/max) = 5.441 | 5.816 | 6.074 Mbytes
Step PotEng KinEng TotEng v_fx v_fy v_fz 
   16759   -1152448.5            0   -1152448.5 -0.00033124257  0.007502862 -0.0073335446 
   17000   -1152448.5            0   -1152448.5 1.4732105e-05 -3.562952e-05 2.7547495e-05 
   17021   -1152448.5            0   -1152448.5 -6.6377755e-06 2.1787564e-05 -1.8156696e-05 
Loop time of 2.98284 on 104 procs for 262 steps with 288751 atoms

99.9% CPU use with 104 MPI tasks x 1 OpenMP threads

Minimization stats:
  Stopping criterion = energy tolerance
  Energy initial, next-to-last, final = 
     -1152448.47011206  -1152448.47147457  -1152448.47147457
  Force two-norm initial, final = 0.15778091 0.00010619326
  Force max component initial, final = 0.08061409 2.3456751e-05
  Final line search alpha, max atom move = 1.0000000 2.3456751e-05
  Iterations, force evaluations = 262 524

MPI task timing breakdown:
Section |  min time  |  avg time  |  max time  |%varavg| %total
---------------------------------------------------------------
Pair    | 0.7924     | 2.1924     | 2.8219     |  40.0 | 73.50
Neigh   | 0          | 0          | 0          |   0.0 |  0.00
Comm    | 0.052481   | 0.48812    | 1.4932     |  59.3 | 16.36
Output  | 9.2542e-05 | 0.00010412 | 0.00029635 |   0.0 |  0.00
Modify  | 3.322e-05  | 0.0043087  | 0.0091863  |   3.1 |  0.14
Other   |            | 0.2979     |            |       |  9.99

Nlocal:        2776.45 ave        3953 max           0 min
Histogram: 8 4 4 0 4 12 8 0 30 34
Nghost:        3879.09 ave        5426 max         232 min
Histogram: 8 0 8 0 16 0 8 8 16 40
Neighs:        79213.4 ave      115148 max           0 min
Histogram: 8 4 4 0 10 6 8 8 24 32

Total # of neighbors = 8238191
Ave neighs/atom = 28.530433
Neighbor list builds = 0
Dangerous builds = 0
The dot product: -5.77872009006796e-08
Setting atom values ...
  1 settings made for x
  1 settings made for y
  1 settings made for z
Setting up cg style minimization ...
  Unit style    : metal
  Current step  : 17021
Per MPI rank memory allocation (min/avg/max) = 5.441 | 5.816 | 6.074 Mbytes
Step PotEng KinEng TotEng v_fx v_fy v_fz 
   17021   -1152448.4            0   -1152448.4 0.0023352056 0.0033896594 -0.0046672707 
   17203   -1152448.4            0   -1152448.4 -3.5604451e-05 6.7430749e-05 -4.7785885e-05 
Loop time of 2.08182 on 104 procs for 182 steps with 288751 atoms

99.9% CPU use with 104 MPI tasks x 1 OpenMP threads

Minimization stats:
  Stopping criterion = energy tolerance
  Energy initial, next-to-last, final = 
     -1152448.44174283  -1152448.44302594  -1152448.44302594
  Force two-norm initial, final = 0.15682901 0.00023658516
  Force max component initial, final = 0.081308815 6.7430749e-05
  Final line search alpha, max atom move = 1.0000000 6.7430749e-05
  Iterations, force evaluations = 182 364

MPI task timing breakdown:
Section |  min time  |  avg time  |  max time  |%varavg| %total
---------------------------------------------------------------
Pair    | 0.5509     | 1.5221     | 1.9687     |  33.2 | 73.11
Neigh   | 0          | 0          | 0          |   0.0 |  0.00
Comm    | 0.0332     | 0.33835    | 1.0283     |  49.3 | 16.25
Output  | 0          | 0          | 0          |   0.0 |  0.00
Modify  | 2.3123e-05 | 0.0029952  | 0.0064052  |   2.6 |  0.14
Other   |            | 0.2184     |            |       | 10.49

Nlocal:        2776.45 ave        3953 max           0 min
Histogram: 8 4 4 0 4 12 8 0 30 34
Nghost:        3879.09 ave        5426 max         232 min
Histogram: 8 0 8 0 16 0 8 8 16 40
Neighs:        79213.5 ave      115143 max           0 min
Histogram: 8 4 4 0 10 6 8 8 24 32

Total # of neighbors = 8238199
Ave neighs/atom = 28.530461
Neighbor list builds = 0
Dangerous builds = 0
The dot product: -7.23185672205041e-08
Setting atom values ...
  1 settings made for x
  1 settings made for y
  1 settings made for z
Setting up cg style minimization ...
  Unit style    : metal
  Current step  : 17203
Per MPI rank memory allocation (min/avg/max) = 5.441 | 5.816 | 6.074 Mbytes
Step PotEng KinEng TotEng v_fx v_fy v_fz 
   17203   -1152448.4            0   -1152448.4 0.0066090606 -0.00068267489 -0.0029274168 
   17448   -1152448.4            0   -1152448.4 2.0409059e-06 -2.0145816e-06 8.9265874e-07 
Loop time of 2.78881 on 104 procs for 245 steps with 288751 atoms

99.9% CPU use with 104 MPI tasks x 1 OpenMP threads

Minimization stats:
  Stopping criterion = energy tolerance
  Energy initial, next-to-last, final = 
     -1152448.41176536  -1152448.41302696  -1152448.41302696
  Force two-norm initial, final = 0.15590691 2.3904188e-05
  Force max component initial, final = 0.081985664 4.4196349e-06
  Final line search alpha, max atom move = 1.0000000 4.4196349e-06
  Iterations, force evaluations = 245 490

MPI task timing breakdown:
Section |  min time  |  avg time  |  max time  |%varavg| %total
---------------------------------------------------------------
Pair    | 0.74003    | 2.0497     | 2.6386     |  38.6 | 73.50
Neigh   | 0          | 0          | 0          |   0.0 |  0.00
Comm    | 0.056521   | 0.45668    | 1.4017     |  57.3 | 16.38
Output  | 0          | 0          | 0          |   0.0 |  0.00
Modify  | 3.0658e-05 | 0.0040306  | 0.0086727  |   3.0 |  0.14
Other   |            | 0.2784     |            |       |  9.98

Nlocal:        2776.45 ave        3953 max           0 min
Histogram: 8 4 4 0 4 12 8 0 30 34
Nghost:        3879.10 ave        5426 max         232 min
Histogram: 8 0 8 0 16 0 8 8 16 40
Neighs:        79213.5 ave      115144 max           0 min
Histogram: 8 4 4 0 10 6 8 8 24 32

Total # of neighbors = 8238202
Ave neighs/atom = 28.530471
Neighbor list builds = 0
Dangerous builds = 0
The dot product: 7.57889622864493e-11
Setting up cg style minimization ...
  Unit style    : metal
  Current step  : 17448
Per MPI rank memory allocation (min/avg/max) = 5.441 | 5.816 | 6.074 Mbytes
Step PotEng KinEng TotEng v_fx v_fy v_fz 
   17448   -1152448.4            0   -1152448.4  -0.55476006   -1.0123659   -1.0163699 
   17760   -1152448.8            0   -1152448.8 2.1569274e-05 -4.8442018e-05 3.978646e-05 
Loop time of 3.61972 on 104 procs for 312 steps with 288751 atoms

99.9% CPU use with 104 MPI tasks x 1 OpenMP threads

Minimization stats:
  Stopping criterion = energy tolerance
  Energy initial, next-to-last, final = 
     -1152448.41302696  -1152448.77903514  -1152448.77903514
  Force two-norm initial, final = 1.5380673 0.00017704499
  Force max component initial, final = 1.0163699 4.8442018e-05
  Final line search alpha, max atom move = 1.0000000 4.8442018e-05
  Iterations, force evaluations = 312 624

MPI task timing breakdown:
Section |  min time  |  avg time  |  max time  |%varavg| %total
---------------------------------------------------------------
Pair    | 0.96299    | 2.615      | 3.3662     |  43.1 | 72.24
Neigh   | 5.224e-05  | 0.014781   | 0.021374   |   5.0 |  0.41
Comm    | 0.062844   | 0.58952    | 1.7703     |  63.5 | 16.29
Output  | 0          | 0          | 0          |   0.0 |  0.00
Modify  | 3.649e-05  | 0.0033368  | 0.0085586  |   3.6 |  0.09
Other   |            | 0.3971     |            |       | 10.97

Nlocal:        2776.45 ave        3960 max           0 min
Histogram: 8 4 4 0 4 12 8 4 26 34
Nghost:        3879.07 ave        5425 max         232 min
Histogram: 8 0 8 0 16 0 8 8 16 40
Neighs:        79213.4 ave      115439 max           0 min
Histogram: 8 4 4 0 10 6 8 8 24 32

Total # of neighbors = 8238189
Ave neighs/atom = 28.530426
Neighbor list builds = 5
Dangerous builds = 1
