LAMMPS (29 Oct 2020)
OMP_NUM_THREADS environment is not set. Defaulting to 1 thread. (../comm.cpp:94)
  using 1 OpenMP thread(s) per MPI task
########
#
########
variable                delta             equal     0.02 # the step size should be larger otherwise the number of
#the energy minimum sites is smaller
variable                iter_tot          equal     150

label                   loop
variable                seed              loop     312 319 #20 simulations
variable                iteration         loop      ${iter_tot} #The maximum ietration number per random direction
variable                iteration         loop      150 
clear
OMP_NUM_THREADS environment is not set. Defaulting to 1 thread. (../comm.cpp:94)
  using 1 OpenMP thread(s) per MPI task
units                   metal
atom_style              atomic
dimension                   3
boundary                p p p
atom_modify             map array sort 0 0.0

read_data               poslmp_carbon.dat
Reading data file ...
  orthogonal box = (-122.39241 -121.13707 -37.090501) to (122.39241 121.13707 37.090501)
  13 by 4 by 2 MPI processor grid
  reading atoms ...
  288751 atoms
  read_data CPU = 0.423 seconds

variable                zmax     equal    zhi
variable                zmin     equal    zlo

region                  inner   cylinder   z  1.16564  0.67298333  100.0  ${zmin}  ${zmax}  units  box
region                  inner   cylinder   z  1.16564  0.67298333  100.0  -37.0905005093422  ${zmax}  units  box
region                  inner   cylinder   z  1.16564  0.67298333  100.0  -37.0905005093422  37.0905005093422  units  box
group                   inner   region     inner
199981 atoms in group inner
group                   outer   subtract   all  inner
88770 atoms in group outer
group                   carbon  type       2
1 atoms in group carbon

pair_style              eam/alloy
pair_coeff              * * FeC-Becquart2013.eam.txt Fe C
neighbor                0.3 bin
neigh_modify            delay 0 check yes every 1

compute                 force     carbon   reduce  sum  fx fy fz
variable                fx    equal    c_force[1]
variable                fy    equal    c_force[2]
variable                fz    equal    c_force[3]

fix                     force    outer    setforce      0.0 0.0 0.0
thermo_style            custom   step     v_fx v_fy v_fz pe ke etotal
min_style               cg
minimize                1.0e-30 1.0e-30 10000 10000
Neighbor list info ...
  update every 1 steps, delay 0 steps, check yes
  max neighbors/atom: 2000, page size: 100000
  master list distance cutoff = 5.6
  ghost atom cutoff = 5.6
  binsize = 2.8, bins = 88 87 27
  1 neighbor lists, perpetual/occasional/extra = 1 0 0
  (1) pair eam/alloy, perpetual
      attributes: half, newton on
      pair build: half/bin/atomonly/newton
      stencil: half/bin/3d/newton
      bin: standard
Per MPI rank memory allocation (min/avg/max) = 5.441 | 5.816 | 6.074 Mbytes
Step v_fx v_fy v_fz PotEng KinEng TotEng 
       0    1.5090587   -1.1294566    2.5309711   -1152447.8            0   -1152447.8 
     195 -1.4571565e-07 3.414269e-07 7.8786774e-06   -1152449.5            0   -1152449.5 
Loop time of 2.31642 on 104 procs for 195 steps with 288751 atoms

99.8% CPU use with 104 MPI tasks x 1 OpenMP threads

Minimization stats:
  Stopping criterion = energy tolerance
  Energy initial, next-to-last, final = 
     -1152447.78453489  -1152449.45035272  -1152449.45035272
  Force two-norm initial, final = 10.170393 2.3306332e-05
  Force max component initial, final = 4.5529571 7.8786774e-06
  Final line search alpha, max atom move = 1.0000000 7.8786774e-06
  Iterations, force evaluations = 195 389

MPI task timing breakdown:
Section |  min time  |  avg time  |  max time  |%varavg| %total
---------------------------------------------------------------
Pair    | 0.6084     | 1.6454     | 2.1212     |  34.0 | 71.03
Neigh   | 3.3259e-05 | 0.0087442  | 0.012646   |   3.9 |  0.38
Comm    | 0.044614   | 0.37666    | 1.1134     |  50.3 | 16.26
Output  | 0          | 0          | 0          |   0.0 |  0.00
Modify  | 2.1724e-05 | 0.0021069  | 0.0053689  |   2.8 |  0.09
Other   |            | 0.2835     |            |       | 12.24

Nlocal:        2776.45 ave        3960 max           0 min
Histogram: 8 4 4 0 4 12 8 2 28 34
Nghost:        3879.05 ave        5424 max         232 min
Histogram: 8 0 8 0 16 0 8 8 16 40
Neighs:        79213.5 ave      115432 max           0 min
Histogram: 8 4 4 0 10 6 8 8 24 32

Total # of neighbors = 8238207
Ave neighs/atom = 28.530488
Neighbor list builds = 3
Dangerous builds = 1
#write_data              minimize.dat
#quit

variable                fx_0  equal    ${fx}
variable                fx_0  equal    -1.45715652627443e-07
variable                fy_0  equal    ${fy}
variable                fy_0  equal    3.41426896866004e-07
variable                fz_0  equal    ${fz}
variable                fz_0  equal    7.87867742380044e-06

variable                i     equal    288751

variable                x0    equal    x[v_i]
variable                y0    equal    y[v_i]
variable                z0    equal    z[v_i]

variable                x     equal    x[v_i]+v_delta*random(-1.0,1.0,${seed})
variable                x     equal    x[v_i]+v_delta*random(-1.0,1.0,312)
variable                y     equal    y[v_i]+v_delta*random(-1.0,1.0,${seed})
variable                y     equal    y[v_i]+v_delta*random(-1.0,1.0,312)
variable                z     equal    z[v_i]+v_delta*random(-1.0,1.0,${seed})
variable                z     equal    z[v_i]+v_delta*random(-1.0,1.0,312)
variable                x_0    equal     ${x0}
variable                x_0    equal     0.594466402938925
variable                y_0    equal     ${y0}
variable                y_0    equal     -1.01611306216424
variable                z_0    equal     ${z0}
variable                z_0    equal     -25.312039276253
variable                x_1    equal     $x
variable                x_1    equal     0.602920339515768
variable                y_1    equal     $y
variable                y_1    equal     -1.02070868279641
variable                z_1    equal     $z
variable                z_1    equal     -25.3066671286929

set                atom        $i    x  ${x_1}  y  ${y_1}  z  ${z_1}
set                atom        288751    x  ${x_1}  y  ${y_1}  z  ${z_1}
set                atom        288751    x  0.602920339515768  y  ${y_1}  z  ${z_1}
set                atom        288751    x  0.602920339515768  y  -1.02070868279641  z  ${z_1}
set                atom        288751    x  0.602920339515768  y  -1.02070868279641  z  -25.3066671286929
Setting atom values ...
  1 settings made for x
  1 settings made for y
  1 settings made for z
variable           vector_x          equal     ${x_1}-${x_0}
variable           vector_x          equal     0.602920339515768-${x_0}
variable           vector_x          equal     0.602920339515768-0.594466402938925
variable           vector_y          equal     ${y_1}-${y_0}
variable           vector_y          equal     -1.02070868279641-${y_0}
variable           vector_y          equal     -1.02070868279641--1.01611306216424
variable           vector_z          equal     ${z_1}-${z_0}
variable           vector_z          equal     -25.3066671286929-${z_0}
variable           vector_z          equal     -25.3066671286929--25.312039276253

#dump               1     all   custom   1000   dump_minimize.atom.* id type x y z
#dump_modify        1     element  Fe C
thermo_style       custom   step  pe ke etotal v_fx v_fy v_fz
thermo             1000

fix                hold    carbon   planeforce   ${vector_x}  ${vector_y}  ${vector_z}
fix                hold    carbon   planeforce   0.0084539365768429  ${vector_y}  ${vector_z}
fix                hold    carbon   planeforce   0.0084539365768429  -0.00459562063217001  ${vector_z}
fix                hold    carbon   planeforce   0.0084539365768429  -0.00459562063217001  0.00537214756009874
min_style          cg
minimize           1.0e-30 1.0e-30 10000 10000
Per MPI rank memory allocation (min/avg/max) = 5.441 | 5.816 | 6.074 Mbytes
Step PotEng KinEng TotEng v_fx v_fy v_fz 
     195   -1152449.4            0   -1152449.4  0.019848411  0.010641866 -0.022131043 
     354   -1152449.5            0   -1152449.5 1.0456272e-06 6.0531241e-06 3.532702e-06 
Loop time of 1.88162 on 104 procs for 159 steps with 288751 atoms

99.9% CPU use with 104 MPI tasks x 1 OpenMP threads

Minimization stats:
  Stopping criterion = energy tolerance
  Energy initial, next-to-last, final = 
     -1152449.44954617  -1152449.45010984  -1152449.45010984
  Force two-norm initial, final = 0.11489985 0.00014679981
  Force max component initial, final = 0.051171244 9.4414992e-06
  Final line search alpha, max atom move = 1.0000000 9.4414992e-06
  Iterations, force evaluations = 159 318

MPI task timing breakdown:
Section |  min time  |  avg time  |  max time  |%varavg| %total
---------------------------------------------------------------
Pair    | 0.47777    | 1.3464     | 1.7484     |  31.5 | 71.55
Neigh   | 0          | 0          | 0          |   0.0 |  0.00
Comm    | 0.026986   | 0.30792    | 0.92403    |  45.8 | 16.36
Output  | 0          | 0          | 0          |   0.0 |  0.00
Modify  | 2.217e-05  | 0.0026405  | 0.0055639  |   2.4 |  0.14
Other   |            | 0.2247     |            |       | 11.94

Nlocal:        2776.45 ave        3961 max           0 min
Histogram: 8 4 4 0 6 10 8 2 28 34
Nghost:        3879.01 ave        5424 max         232 min
Histogram: 8 0 8 0 16 0 8 8 16 40
Neighs:        79213.4 ave      115458 max           0 min
Histogram: 8 4 4 0 10 6 8 8 24 32

Total # of neighbors = 8238197
Ave neighs/atom = 28.530454
Neighbor list builds = 0
Dangerous builds = 0
unfix              hold

variable           new_x         equal     ${x0}-${x_0}
variable           new_x         equal     0.603878198716235-${x_0}
variable           new_x         equal     0.603878198716235-0.594466402938925
variable           new_y         equal     ${y0}-${y_0}
variable           new_y         equal     -1.02051307606892-${y_0}
variable           new_y         equal     -1.02051307606892--1.01611306216424
variable           new_z         equal     ${z0}-${z_0}
variable           new_z         equal     -25.3080071415159-${z_0}
variable           new_z         equal     -25.3080071415159--25.312039276253

label iteration
variable           norm          equal     sqrt(${new_x}^2+${new_y}^2+${new_z}^2)
variable           norm          equal     sqrt(0.00941179577730999^2+${new_y}^2+${new_z}^2)
variable           norm          equal     sqrt(0.00941179577730999^2+-0.00440001390468003^2+${new_z}^2)
variable           norm          equal     sqrt(0.00941179577730999^2+-0.00440001390468003^2+0.0040321347370984^2)
variable           unit_x        equal     ${new_x}/${norm}
variable           unit_x        equal     0.00941179577730999/${norm}
variable           unit_x        equal     0.00941179577730999/0.011144511324113
variable           unit_y        equal     ${new_y}/${norm}
variable           unit_y        equal     -0.00440001390468003/${norm}
variable           unit_y        equal     -0.00440001390468003/0.011144511324113
variable           unit_z        equal     ${new_z}/${norm}
variable           unit_z        equal     0.0040321347370984/${norm}
variable           unit_z        equal     0.0040321347370984/0.011144511324113
variable           x_new         equal     ${x0}+${delta}*${unit_x}
variable           x_new         equal     0.603878198716235+${delta}*${unit_x}
variable           x_new         equal     0.603878198716235+0.02*${unit_x}
variable           x_new         equal     0.603878198716235+0.02*0.844522967727262
variable           y_new         equal     ${y0}+${delta}*${unit_y}
variable           y_new         equal     -1.02051307606892+${delta}*${unit_y}
variable           y_new         equal     -1.02051307606892+0.02*${unit_y}
variable           y_new         equal     -1.02051307606892+0.02*-0.39481443167094
variable           z_new         equal     ${z0}+${delta}*${unit_z}
variable           z_new         equal     -25.3080071415159+${delta}*${unit_z}
variable           z_new         equal     -25.3080071415159+0.02*${unit_z}
variable           z_new         equal     -25.3080071415159+0.02*0.361804534970879

set                atom          $i    x  ${x_new}  y  ${y_new}  z   ${z_new}
set                atom          288751    x  ${x_new}  y  ${y_new}  z   ${z_new}
set                atom          288751    x  0.62076865807078  y  ${y_new}  z   ${z_new}
set                atom          288751    x  0.62076865807078  y  -1.02840936470234  z   ${z_new}
set                atom          288751    x  0.62076865807078  y  -1.02840936470234  z   -25.3007710508165
Setting atom values ...
  1 settings made for x
  1 settings made for y
  1 settings made for z

fix                hold    carbon   planeforce   ${new_x}  ${new_y}  ${new_z}
fix                hold    carbon   planeforce   0.00941179577730999  ${new_y}  ${new_z}
fix                hold    carbon   planeforce   0.00941179577730999  -0.00440001390468003  ${new_z}
fix                hold    carbon   planeforce   0.00941179577730999  -0.00440001390468003  0.0040321347370984
min_style          cg
minimize           1.0e-30 1.0e-30 10000 10000
Per MPI rank memory allocation (min/avg/max) = 5.441 | 5.816 | 6.074 Mbytes
Step PotEng KinEng TotEng v_fx v_fy v_fz 
     354   -1152449.4            0   -1152449.4  0.032203419  0.026209255 -0.046568611 
     552   -1152449.4            0   -1152449.4 4.1178619e-06 4.8417388e-06 -4.3284161e-06 
Loop time of 2.3377 on 104 procs for 198 steps with 288751 atoms

99.9% CPU use with 104 MPI tasks x 1 OpenMP threads

Minimization stats:
  Stopping criterion = energy tolerance
  Energy initial, next-to-last, final = 
     -1152449.44678342  -1152449.44853584  -1152449.44853584
  Force two-norm initial, final = 0.20364761 6.3426719e-05
  Force max component initial, final = 0.088270628 6.5311632e-06
  Final line search alpha, max atom move = 1.0000000 6.5311632e-06
  Iterations, force evaluations = 198 396

MPI task timing breakdown:
Section |  min time  |  avg time  |  max time  |%varavg| %total
---------------------------------------------------------------
Pair    | 0.59682    | 1.6649     | 2.1691     |  35.0 | 71.22
Neigh   | 0          | 0          | 0          |   0.0 |  0.00
Comm    | 0.040838   | 0.38115    | 1.1271     |  50.5 | 16.30
Output  | 0          | 0          | 0          |   0.0 |  0.00
Modify  | 2.3223e-05 | 0.0032764  | 0.0069802  |   2.7 |  0.14
Other   |            | 0.2883     |            |       | 12.33

Nlocal:        2776.45 ave        3961 max           0 min
Histogram: 8 4 4 0 6 10 8 2 28 34
Nghost:        3879.01 ave        5424 max         232 min
Histogram: 8 0 8 0 16 0 8 8 16 40
Neighs:        79213.5 ave      115458 max           0 min
Histogram: 8 4 4 0 10 6 8 8 24 32

Total # of neighbors = 8238200
Ave neighs/atom = 28.530464
Neighbor list builds = 0
Dangerous builds = 0
unfix              hold

variable           new_x         delete
variable           new_y         delete
variable           new_z         delete
variable           dot           delete
variable           new_x         equal     ${x0}-${x_0}
variable           new_x         equal     0.622479682773061-${x_0}
variable           new_x         equal     0.622479682773061-0.594466402938925
variable           new_y         equal     ${y0}-${y_0}
variable           new_y         equal     -1.02769005091619-${y_0}
variable           new_y         equal     -1.02769005091619--1.01611306216424
variable           new_z         equal     ${z0}-${z_0}
variable           new_z         equal     -25.3039799774151-${z_0}
variable           new_z         equal     -25.3039799774151--25.312039276253

variable           dot      equal     ${fx}*${new_x}+${fy}*${new_y}+${fz}*${new_z}
variable           dot      equal     4.11786189766046e-06*${new_x}+${fy}*${new_y}+${fz}*${new_z}
variable           dot      equal     4.11786189766046e-06*0.0280132798341359+${fy}*${new_y}+${fz}*${new_z}
variable           dot      equal     4.11786189766046e-06*0.0280132798341359+4.8417388381801e-06*${new_y}+${fz}*${new_z}
variable           dot      equal     4.11786189766046e-06*0.0280132798341359+4.8417388381801e-06*-0.0115769887519499+${fz}*${new_z}
variable           dot      equal     4.11786189766046e-06*0.0280132798341359+4.8417388381801e-06*-0.0115769887519499+-4.32841612380742e-06*${new_z}
variable           dot      equal     4.11786189766046e-06*0.0280132798341359+4.8417388381801e-06*-0.0115769887519499+-4.32841612380742e-06*0.00805929883789958
print              "The dot product: ${dot}"
The dot product: 2.44180625514514e-08

if "(${dot} >= 0.0) && (${dot} < 1.0e-10)" then "jump TaR.in relaxation" elif "(${dot} < 0.0) && (${dot} > -1.0e-10)" "jump TaR.in relaxation" elif "(${iteration} == ${iter_tot}) && (${seed} < 319)" "print 'The iteration number is maximum!'" "next seed" "variable iteration delete" "jump TaR.in loop" elif "(${iteration} == ${iter_tot}) && (${seed} == 319)" "quit" else    "next iteration"    "jump TaR.in iteration"
next iteration
jump TaR.in iteration
variable           norm          equal     sqrt(${new_x}^2+${new_y}^2+${new_z}^2)
variable           norm          equal     sqrt(0.0280132798341359^2+${new_y}^2+${new_z}^2)
variable           norm          equal     sqrt(0.0280132798341359^2+-0.0115769887519499^2+${new_z}^2)
variable           norm          equal     sqrt(0.0280132798341359^2+-0.0115769887519499^2+0.00805929883789958^2)
variable           unit_x        equal     ${new_x}/${norm}
variable           unit_x        equal     0.0280132798341359/${norm}
variable           unit_x        equal     0.0280132798341359/0.0313643557782867
variable           unit_y        equal     ${new_y}/${norm}
variable           unit_y        equal     -0.0115769887519499/${norm}
variable           unit_y        equal     -0.0115769887519499/0.0313643557782867
variable           unit_z        equal     ${new_z}/${norm}
variable           unit_z        equal     0.00805929883789958/${norm}
variable           unit_z        equal     0.00805929883789958/0.0313643557782867
variable           x_new         equal     ${x0}+${delta}*${unit_x}
variable           x_new         equal     0.622479682773061+${delta}*${unit_x}
variable           x_new         equal     0.622479682773061+0.02*${unit_x}
variable           x_new         equal     0.622479682773061+0.02*0.893156551091328
variable           y_new         equal     ${y0}+${delta}*${unit_y}
variable           y_new         equal     -1.02769005091619+${delta}*${unit_y}
variable           y_new         equal     -1.02769005091619+0.02*${unit_y}
variable           y_new         equal     -1.02769005091619+0.02*-0.369112913837196
variable           z_new         equal     ${z0}+${delta}*${unit_z}
variable           z_new         equal     -25.3039799774151+${delta}*${unit_z}
variable           z_new         equal     -25.3039799774151+0.02*${unit_z}
variable           z_new         equal     -25.3039799774151+0.02*0.256957257304133

set                atom          $i    x  ${x_new}  y  ${y_new}  z   ${z_new}
set                atom          288751    x  ${x_new}  y  ${y_new}  z   ${z_new}
set                atom          288751    x  0.640342813794888  y  ${y_new}  z   ${z_new}
set                atom          288751    x  0.640342813794888  y  -1.03507230919293  z   ${z_new}
set                atom          288751    x  0.640342813794888  y  -1.03507230919293  z   -25.298840832269
Setting atom values ...
  1 settings made for x
  1 settings made for y
  1 settings made for z

fix                hold    carbon   planeforce   ${new_x}  ${new_y}  ${new_z}
fix                hold    carbon   planeforce   0.0280132798341359  ${new_y}  ${new_z}
fix                hold    carbon   planeforce   0.0280132798341359  -0.0115769887519499  ${new_z}
fix                hold    carbon   planeforce   0.0280132798341359  -0.0115769887519499  0.00805929883789958
min_style          cg
minimize           1.0e-30 1.0e-30 10000 10000
Per MPI rank memory allocation (min/avg/max) = 5.441 | 5.816 | 6.074 Mbytes
Step PotEng KinEng TotEng v_fx v_fy v_fz 
     552   -1152449.4            0   -1152449.4  0.026999519  0.031513955 -0.048578467 
     686   -1152449.4            0   -1152449.4 2.8618761e-06 -2.3789228e-06 -1.3364847e-05 
Loop time of 1.5653 on 104 procs for 134 steps with 288751 atoms

99.9% CPU use with 104 MPI tasks x 1 OpenMP threads

Minimization stats:
  Stopping criterion = energy tolerance
  Energy initial, next-to-last, final = 
     -1152449.44385189   -1152449.4455241   -1152449.4455241
  Force two-norm initial, final = 0.19833429 8.8757869e-05
  Force max component initial, final = 0.082563915 1.3364847e-05
  Final line search alpha, max atom move = 1.0000000 1.3364847e-05
  Iterations, force evaluations = 134 268

MPI task timing breakdown:
Section |  min time  |  avg time  |  max time  |%varavg| %total
---------------------------------------------------------------
Pair    | 0.40332    | 1.1327     | 1.4712     |  28.8 | 72.36
Neigh   | 0          | 0          | 0          |   0.0 |  0.00
Comm    | 0.031091   | 0.25571    | 0.77329    |  42.4 | 16.34
Output  | 0          | 0          | 0          |   0.0 |  0.00
Modify  | 1.7609e-05 | 0.0022244  | 0.0047516  |   2.2 |  0.14
Other   |            | 0.1747     |            |       | 11.16

Nlocal:        2776.45 ave        3961 max           0 min
Histogram: 8 4 4 0 6 10 8 2 28 34
Nghost:        3879.01 ave        5424 max         232 min
Histogram: 8 0 8 0 16 0 8 8 16 40
Neighs:        79213.5 ave      115458 max           0 min
Histogram: 8 4 4 0 10 6 8 8 24 32

Total # of neighbors = 8238201
Ave neighs/atom = 28.530467
Neighbor list builds = 0
Dangerous builds = 0
unfix              hold

variable           new_x         delete
variable           new_y         delete
variable           new_z         delete
variable           dot           delete
variable           new_x         equal     ${x0}-${x_0}
variable           new_x         equal     0.641901643803728-${x_0}
variable           new_x         equal     0.641901643803728-0.594466402938925
variable           new_y         equal     ${y0}-${y_0}
variable           new_y         equal     -1.03393882806909-${y_0}
variable           new_y         equal     -1.03393882806909--1.01611306216424
variable           new_z         equal     ${z0}-${z_0}
variable           new_z         equal     -25.3026309439951-${z_0}
variable           new_z         equal     -25.3026309439951--25.312039276253

variable           dot      equal     ${fx}*${new_x}+${fy}*${new_y}+${fz}*${new_z}
variable           dot      equal     2.86187605704032e-06*${new_x}+${fy}*${new_y}+${fz}*${new_z}
variable           dot      equal     2.86187605704032e-06*0.047435240864803+${fy}*${new_y}+${fz}*${new_z}
variable           dot      equal     2.86187605704032e-06*0.047435240864803+-2.37892276938342e-06*${new_y}+${fz}*${new_z}
variable           dot      equal     2.86187605704032e-06*0.047435240864803+-2.37892276938342e-06*-0.01782576590485+${fz}*${new_z}
variable           dot      equal     2.86187605704032e-06*0.047435240864803+-2.37892276938342e-06*-0.01782576590485+-1.33648471342698e-05*${new_z}
variable           dot      equal     2.86187605704032e-06*0.047435240864803+-2.37892276938342e-06*-0.01782576590485+-1.33648471342698e-05*0.00940833225789817
print              "The dot product: ${dot}"
The dot product: 5.24189780684381e-08

if "(${dot} >= 0.0) && (${dot} < 1.0e-10)" then "jump TaR.in relaxation" elif "(${dot} < 0.0) && (${dot} > -1.0e-10)" "jump TaR.in relaxation" elif "(${iteration} == ${iter_tot}) && (${seed} < 319)" "print 'The iteration number is maximum!'" "next seed" "variable iteration delete" "jump TaR.in loop" elif "(${iteration} == ${iter_tot}) && (${seed} == 319)" "quit" else    "next iteration"    "jump TaR.in iteration"
next iteration
jump TaR.in iteration
variable           norm          equal     sqrt(${new_x}^2+${new_y}^2+${new_z}^2)
variable           norm          equal     sqrt(0.047435240864803^2+${new_y}^2+${new_z}^2)
variable           norm          equal     sqrt(0.047435240864803^2+-0.01782576590485^2+${new_z}^2)
variable           norm          equal     sqrt(0.047435240864803^2+-0.01782576590485^2+0.00940833225789817^2)
variable           unit_x        equal     ${new_x}/${norm}
variable           unit_x        equal     0.047435240864803/${norm}
variable           unit_x        equal     0.047435240864803/0.0515400496882899
variable           unit_y        equal     ${new_y}/${norm}
variable           unit_y        equal     -0.01782576590485/${norm}
variable           unit_y        equal     -0.01782576590485/0.0515400496882899
variable           unit_z        equal     ${new_z}/${norm}
variable           unit_z        equal     0.00940833225789817/${norm}
variable           unit_z        equal     0.00940833225789817/0.0515400496882899
variable           x_new         equal     ${x0}+${delta}*${unit_x}
variable           x_new         equal     0.641901643803728+${delta}*${unit_x}
variable           x_new         equal     0.641901643803728+0.02*${unit_x}
variable           x_new         equal     0.641901643803728+0.02*0.920356909853357
variable           y_new         equal     ${y0}+${delta}*${unit_y}
variable           y_new         equal     -1.03393882806909+${delta}*${unit_y}
variable           y_new         equal     -1.03393882806909+0.02*${unit_y}
variable           y_new         equal     -1.03393882806909+0.02*-0.345862412098141
variable           z_new         equal     ${z0}+${delta}*${unit_z}
variable           z_new         equal     -25.3026309439951+${delta}*${unit_z}
variable           z_new         equal     -25.3026309439951+0.02*${unit_z}
variable           z_new         equal     -25.3026309439951+0.02*0.182544105308377

set                atom          $i    x  ${x_new}  y  ${y_new}  z   ${z_new}
set                atom          288751    x  ${x_new}  y  ${y_new}  z   ${z_new}
set                atom          288751    x  0.660308782000795  y  ${y_new}  z   ${z_new}
set                atom          288751    x  0.660308782000795  y  -1.04085607631105  z   ${z_new}
set                atom          288751    x  0.660308782000795  y  -1.04085607631105  z   -25.2989800618889
Setting atom values ...
  1 settings made for x
  1 settings made for y
  1 settings made for z

fix                hold    carbon   planeforce   ${new_x}  ${new_y}  ${new_z}
fix                hold    carbon   planeforce   0.047435240864803  ${new_y}  ${new_z}
fix                hold    carbon   planeforce   0.047435240864803  -0.01782576590485  ${new_z}
fix                hold    carbon   planeforce   0.047435240864803  -0.01782576590485  0.00940833225789817
min_style          cg
minimize           1.0e-30 1.0e-30 10000 10000
Per MPI rank memory allocation (min/avg/max) = 5.441 | 5.816 | 6.074 Mbytes
Step PotEng KinEng TotEng v_fx v_fy v_fz 
     686   -1152449.4            0   -1152449.4   0.02206401  0.034480151  -0.04591425 
     816   -1152449.4            0   -1152449.4 2.2184311e-06 1.8468829e-07 -1.0835034e-05 
Loop time of 1.52002 on 104 procs for 130 steps with 288751 atoms

99.9% CPU use with 104 MPI tasks x 1 OpenMP threads

Minimization stats:
  Stopping criterion = energy tolerance
  Energy initial, next-to-last, final = 
     -1152449.43942596  -1152449.44103368  -1152449.44103368
  Force two-norm initial, final = 0.19323703 8.5687828e-05
  Force max component initial, final = 0.077677686 1.0933412e-05
  Final line search alpha, max atom move = 1.0000000 1.0933412e-05
  Iterations, force evaluations = 130 260

MPI task timing breakdown:
Section |  min time  |  avg time  |  max time  |%varavg| %total
---------------------------------------------------------------
Pair    | 0.39534    | 1.0926     | 1.4165     |  28.2 | 71.88
Neigh   | 0          | 0          | 0          |   0.0 |  0.00
Comm    | 0.024193   | 0.24652    | 0.74009    |  41.5 | 16.22
Output  | 0          | 0          | 0          |   0.0 |  0.00
Modify  | 1.5432e-05 | 0.002149   | 0.0045792  |   2.2 |  0.14
Other   |            | 0.1788     |            |       | 11.76

Nlocal:        2776.45 ave        3961 max           0 min
Histogram: 8 4 4 0 6 10 8 2 28 34
Nghost:        3879.01 ave        5424 max         232 min
Histogram: 8 0 8 0 16 0 8 8 16 40
Neighs:        79213.5 ave      115458 max           0 min
Histogram: 8 4 4 0 10 6 8 8 24 32

Total # of neighbors = 8238202
Ave neighs/atom = 28.530471
Neighbor list builds = 0
Dangerous builds = 0
unfix              hold

variable           new_x         delete
variable           new_y         delete
variable           new_z         delete
variable           dot           delete
variable           new_x         equal     ${x0}-${x_0}
variable           new_x         equal     0.661552817813769-${x_0}
variable           new_x         equal     0.661552817813769-0.594466402938925
variable           new_y         equal     ${y0}-${y_0}
variable           new_y         equal     -1.03945617381405-${y_0}
variable           new_y         equal     -1.03945617381405--1.01611306216424
variable           new_z         equal     ${z0}-${z_0}
variable           new_z         equal     -25.3025999174912-${z_0}
variable           new_z         equal     -25.3025999174912--25.312039276253

variable           dot      equal     ${fx}*${new_x}+${fy}*${new_y}+${fz}*${new_z}
variable           dot      equal     2.21843111858635e-06*${new_x}+${fy}*${new_y}+${fz}*${new_z}
variable           dot      equal     2.21843111858635e-06*0.0670864148748439+${fy}*${new_y}+${fz}*${new_z}
variable           dot      equal     2.21843111858635e-06*0.0670864148748439+1.84688285934449e-07*${new_y}+${fz}*${new_z}
variable           dot      equal     2.21843111858635e-06*0.0670864148748439+1.84688285934449e-07*-0.02334311164981+${fz}*${new_z}
variable           dot      equal     2.21843111858635e-06*0.0670864148748439+1.84688285934449e-07*-0.02334311164981+-1.08350344681901e-05*${new_z}
variable           dot      equal     2.21843111858635e-06*0.0670864148748439+1.84688285934449e-07*-0.02334311164981+-1.08350344681901e-05*0.00943935876179935
print              "The dot product: ${dot}"
The dot product: 4.22396135720599e-08

if "(${dot} >= 0.0) && (${dot} < 1.0e-10)" then "jump TaR.in relaxation" elif "(${dot} < 0.0) && (${dot} > -1.0e-10)" "jump TaR.in relaxation" elif "(${iteration} == ${iter_tot}) && (${seed} < 319)" "print 'The iteration number is maximum!'" "next seed" "variable iteration delete" "jump TaR.in loop" elif "(${iteration} == ${iter_tot}) && (${seed} == 319)" "quit" else    "next iteration"    "jump TaR.in iteration"
next iteration
jump TaR.in iteration
variable           norm          equal     sqrt(${new_x}^2+${new_y}^2+${new_z}^2)
variable           norm          equal     sqrt(0.0670864148748439^2+${new_y}^2+${new_z}^2)
variable           norm          equal     sqrt(0.0670864148748439^2+-0.02334311164981^2+${new_z}^2)
variable           norm          equal     sqrt(0.0670864148748439^2+-0.02334311164981^2+0.00943935876179935^2)
variable           unit_x        equal     ${new_x}/${norm}
variable           unit_x        equal     0.0670864148748439/${norm}
variable           unit_x        equal     0.0670864148748439/0.0716560494033067
variable           unit_y        equal     ${new_y}/${norm}
variable           unit_y        equal     -0.02334311164981/${norm}
variable           unit_y        equal     -0.02334311164981/0.0716560494033067
variable           unit_z        equal     ${new_z}/${norm}
variable           unit_z        equal     0.00943935876179935/${norm}
variable           unit_z        equal     0.00943935876179935/0.0716560494033067
variable           x_new         equal     ${x0}+${delta}*${unit_x}
variable           x_new         equal     0.661552817813769+${delta}*${unit_x}
variable           x_new         equal     0.661552817813769+0.02*${unit_x}
variable           x_new         equal     0.661552817813769+0.02*0.936228210088122
variable           y_new         equal     ${y0}+${delta}*${unit_y}
variable           y_new         equal     -1.03945617381405+${delta}*${unit_y}
variable           y_new         equal     -1.03945617381405+0.02*${unit_y}
variable           y_new         equal     -1.03945617381405+0.02*-0.325766098524723
variable           z_new         equal     ${z0}+${delta}*${unit_z}
variable           z_new         equal     -25.3025999174912+${delta}*${unit_z}
variable           z_new         equal     -25.3025999174912+0.02*${unit_z}
variable           z_new         equal     -25.3025999174912+0.02*0.131731498462484

set                atom          $i    x  ${x_new}  y  ${y_new}  z   ${z_new}
set                atom          288751    x  ${x_new}  y  ${y_new}  z   ${z_new}
set                atom          288751    x  0.680277382015531  y  ${y_new}  z   ${z_new}
set                atom          288751    x  0.680277382015531  y  -1.04597149578454  z   ${z_new}
set                atom          288751    x  0.680277382015531  y  -1.04597149578454  z   -25.2999652875219
Setting atom values ...
  1 settings made for x
  1 settings made for y
  1 settings made for z

fix                hold    carbon   planeforce   ${new_x}  ${new_y}  ${new_z}
fix                hold    carbon   planeforce   0.0670864148748439  ${new_y}  ${new_z}
fix                hold    carbon   planeforce   0.0670864148748439  -0.02334311164981  ${new_z}
fix                hold    carbon   planeforce   0.0670864148748439  -0.02334311164981  0.00943935876179935
min_style          cg
minimize           1.0e-30 1.0e-30 10000 10000
Per MPI rank memory allocation (min/avg/max) = 5.441 | 5.816 | 6.074 Mbytes
Step PotEng KinEng TotEng v_fx v_fy v_fz 
     816   -1152449.4            0   -1152449.4  0.018624348  0.036450138 -0.042225443 
     960   -1152449.4            0   -1152449.4 3.3178336e-06 7.2018928e-06 -5.7701984e-06 
Loop time of 1.70761 on 104 procs for 144 steps with 288751 atoms

99.9% CPU use with 104 MPI tasks x 1 OpenMP threads

Minimization stats:
  Stopping criterion = energy tolerance
  Energy initial, next-to-last, final = 
     -1152449.43346288  -1152449.43502156  -1152449.43502156
  Force two-norm initial, final = 0.18911318 4.4834018e-05
  Force max component initial, final = 0.073826416 7.3758531e-06
  Final line search alpha, max atom move = 1.0000000 7.3758531e-06
  Iterations, force evaluations = 144 288

MPI task timing breakdown:
Section |  min time  |  avg time  |  max time  |%varavg| %total
---------------------------------------------------------------
Pair    | 0.43198    | 1.2176     | 1.5844     |  30.0 | 71.30
Neigh   | 0          | 0          | 0          |   0.0 |  0.00
Comm    | 0.025562   | 0.27779    | 0.82399    |  43.3 | 16.27
Output  | 0          | 0          | 0          |   0.0 |  0.00
Modify  | 1.7377e-05 | 0.0023933  | 0.0050589  |   2.3 |  0.14
Other   |            | 0.2099     |            |       | 12.29

Nlocal:        2776.45 ave        3961 max           0 min
Histogram: 8 4 4 0 6 10 8 2 28 34
Nghost:        3879.01 ave        5424 max         232 min
Histogram: 8 0 8 0 16 0 8 8 16 40
Neighs:        79213.5 ave      115458 max           0 min
Histogram: 8 4 4 0 10 6 8 8 24 32

Total # of neighbors = 8238202
Ave neighs/atom = 28.530471
Neighbor list builds = 0
Dangerous builds = 0
unfix              hold

variable           new_x         delete
variable           new_y         delete
variable           new_z         delete
variable           dot           delete
variable           new_x         equal     ${x0}-${x_0}
variable           new_x         equal     0.681292401467453-${x_0}
variable           new_x         equal     0.681292401467453-0.594466402938925
variable           new_y         equal     ${y0}-${y_0}
variable           new_y         equal     -1.04435450716899-${y_0}
variable           new_y         equal     -1.04435450716899--1.01611306216424
variable           new_z         equal     ${z0}-${z_0}
variable           new_z         equal     -25.3031803862416-${z_0}
variable           new_z         equal     -25.3031803862416--25.312039276253

variable           dot      equal     ${fx}*${new_x}+${fy}*${new_y}+${fz}*${new_z}
variable           dot      equal     3.31783358386702e-06*${new_x}+${fy}*${new_y}+${fz}*${new_z}
variable           dot      equal     3.31783358386702e-06*0.0868259985285279+${fy}*${new_y}+${fz}*${new_z}
variable           dot      equal     3.31783358386702e-06*0.0868259985285279+7.20189279872135e-06*${new_y}+${fz}*${new_z}
variable           dot      equal     3.31783358386702e-06*0.0868259985285279+7.20189279872135e-06*-0.0282414450047499+${fz}*${new_z}
variable           dot      equal     3.31783358386702e-06*0.0868259985285279+7.20189279872135e-06*-0.0282414450047499+-5.77019837695741e-06*${new_z}
variable           dot      equal     3.31783358386702e-06*0.0868259985285279+7.20189279872135e-06*-0.0282414450047499+-5.77019837695741e-06*0.00885889001139972
print              "The dot product: ${dot}"
The dot product: 3.35648017001222e-08

if "(${dot} >= 0.0) && (${dot} < 1.0e-10)" then "jump TaR.in relaxation" elif "(${dot} < 0.0) && (${dot} > -1.0e-10)" "jump TaR.in relaxation" elif "(${iteration} == ${iter_tot}) && (${seed} < 319)" "print 'The iteration number is maximum!'" "next seed" "variable iteration delete" "jump TaR.in loop" elif "(${iteration} == ${iter_tot}) && (${seed} == 319)" "quit" else    "next iteration"    "jump TaR.in iteration"
next iteration
jump TaR.in iteration
variable           norm          equal     sqrt(${new_x}^2+${new_y}^2+${new_z}^2)
variable           norm          equal     sqrt(0.0868259985285279^2+${new_y}^2+${new_z}^2)
variable           norm          equal     sqrt(0.0868259985285279^2+-0.0282414450047499^2+${new_z}^2)
variable           norm          equal     sqrt(0.0868259985285279^2+-0.0282414450047499^2+0.00885889001139972^2)
variable           unit_x        equal     ${new_x}/${norm}
variable           unit_x        equal     0.0868259985285279/${norm}
variable           unit_x        equal     0.0868259985285279/0.0917322907632112
variable           unit_y        equal     ${new_y}/${norm}
variable           unit_y        equal     -0.0282414450047499/${norm}
variable           unit_y        equal     -0.0282414450047499/0.0917322907632112
variable           unit_z        equal     ${new_z}/${norm}
variable           unit_z        equal     0.00885889001139972/${norm}
variable           unit_z        equal     0.00885889001139972/0.0917322907632112
variable           x_new         equal     ${x0}+${delta}*${unit_x}
variable           x_new         equal     0.681292401467453+${delta}*${unit_x}
variable           x_new         equal     0.681292401467453+0.02*${unit_x}
variable           x_new         equal     0.681292401467453+0.02*0.946515101782992
variable           y_new         equal     ${y0}+${delta}*${unit_y}
variable           y_new         equal     -1.04435450716899+${delta}*${unit_y}
variable           y_new         equal     -1.04435450716899+0.02*${unit_y}
variable           y_new         equal     -1.04435450716899+0.02*-0.307868088431909
variable           z_new         equal     ${z0}+${delta}*${unit_z}
variable           z_new         equal     -25.3031803862416+${delta}*${unit_z}
variable           z_new         equal     -25.3031803862416+0.02*${unit_z}
variable           z_new         equal     -25.3031803862416+0.02*0.0965732997365911

set                atom          $i    x  ${x_new}  y  ${y_new}  z   ${z_new}
set                atom          288751    x  ${x_new}  y  ${y_new}  z   ${z_new}
set                atom          288751    x  0.700222703503113  y  ${y_new}  z   ${z_new}
set                atom          288751    x  0.700222703503113  y  -1.05051186893763  z   ${z_new}
set                atom          288751    x  0.700222703503113  y  -1.05051186893763  z   -25.3012489202469
Setting atom values ...
  1 settings made for x
  1 settings made for y
  1 settings made for z

fix                hold    carbon   planeforce   ${new_x}  ${new_y}  ${new_z}
fix                hold    carbon   planeforce   0.0868259985285279  ${new_y}  ${new_z}
fix                hold    carbon   planeforce   0.0868259985285279  -0.0282414450047499  ${new_z}
fix                hold    carbon   planeforce   0.0868259985285279  -0.0282414450047499  0.00885889001139972
min_style          cg
minimize           1.0e-30 1.0e-30 10000 10000
Per MPI rank memory allocation (min/avg/max) = 5.441 | 5.816 | 6.074 Mbytes
Step PotEng KinEng TotEng v_fx v_fy v_fz 
     960   -1152449.4            0   -1152449.4  0.016516773  0.038435852 -0.039350454 
    1000   -1152449.4            0   -1152449.4 -3.6085522e-05 -0.00020732897 -0.00030727418 
    1082   -1152449.4            0   -1152449.4 -3.628475e-06 -2.1082886e-05 -3.1647894e-05 
Loop time of 1.423 on 104 procs for 122 steps with 288751 atoms

99.9% CPU use with 104 MPI tasks x 1 OpenMP threads

Minimization stats:
  Stopping criterion = energy tolerance
  Energy initial, next-to-last, final = 
     -1152449.42593425  -1152449.42745681  -1152449.42745681
  Force two-norm initial, final = 0.18602686 0.00014786176
  Force max component initial, final = 0.070719755 3.1647894e-05
  Final line search alpha, max atom move = 1.0000000 3.1647894e-05
  Iterations, force evaluations = 122 244

MPI task timing breakdown:
Section |  min time  |  avg time  |  max time  |%varavg| %total
---------------------------------------------------------------
Pair    | 0.367      | 1.0243     | 1.3284     |  27.4 | 71.98
Neigh   | 0          | 0          | 0          |   0.0 |  0.00
Comm    | 0.026489   | 0.23132    | 0.69261    |  40.2 | 16.26
Output  | 0.00023043 | 0.00023742 | 0.00033928 |   0.0 |  0.02
Modify  | 1.5759e-05 | 0.0020215  | 0.0042795  |   2.1 |  0.14
Other   |            | 0.1651     |            |       | 11.61

Nlocal:        2776.45 ave        3961 max           0 min
Histogram: 8 4 4 0 6 10 8 2 28 34
Nghost:        3879.01 ave        5424 max         232 min
Histogram: 8 0 8 0 16 0 8 8 16 40
Neighs:        79213.5 ave      115458 max           0 min
Histogram: 8 4 4 0 10 6 8 8 24 32

Total # of neighbors = 8238201
Ave neighs/atom = 28.530467
Neighbor list builds = 0
Dangerous builds = 0
unfix              hold

variable           new_x         delete
variable           new_y         delete
variable           new_z         delete
variable           dot           delete
variable           new_x         equal     ${x0}-${x_0}
variable           new_x         equal     0.701127257086392-${x_0}
variable           new_x         equal     0.701127257086392-0.594466402938925
variable           new_y         equal     ${y0}-${y_0}
variable           new_y         equal     -1.04862527703959-${y_0}
variable           new_y         equal     -1.04862527703959--1.01611306216424
variable           new_z         equal     ${z0}-${z_0}
variable           new_z         equal     -25.3041001450304-${z_0}
variable           new_z         equal     -25.3041001450304--25.312039276253

variable           dot      equal     ${fx}*${new_x}+${fy}*${new_y}+${fz}*${new_z}
variable           dot      equal     -3.62847496026648e-06*${new_x}+${fy}*${new_y}+${fz}*${new_z}
variable           dot      equal     -3.62847496026648e-06*0.106660854147467+${fy}*${new_y}+${fz}*${new_z}
variable           dot      equal     -3.62847496026648e-06*0.106660854147467+-2.10828862561881e-05*${new_y}+${fz}*${new_z}
variable           dot      equal     -3.62847496026648e-06*0.106660854147467+-2.10828862561881e-05*-0.0325122148753501+${fz}*${new_z}
variable           dot      equal     -3.62847496026648e-06*0.106660854147467+-2.10828862561881e-05*-0.0325122148753501+-3.16478939032506e-05*${new_z}
variable           dot      equal     -3.62847496026648e-06*0.106660854147467+-2.10828862561881e-05*-0.0325122148753501+-3.16478939032506e-05*0.00793913122259937
print              "The dot product: ${dot}"
The dot product: 4.71783070222248e-08

if "(${dot} >= 0.0) && (${dot} < 1.0e-10)" then "jump TaR.in relaxation" elif "(${dot} < 0.0) && (${dot} > -1.0e-10)" "jump TaR.in relaxation" elif "(${iteration} == ${iter_tot}) && (${seed} < 319)" "print 'The iteration number is maximum!'" "next seed" "variable iteration delete" "jump TaR.in loop" elif "(${iteration} == ${iter_tot}) && (${seed} == 319)" "quit" else    "next iteration"    "jump TaR.in iteration"
next iteration
jump TaR.in iteration
variable           norm          equal     sqrt(${new_x}^2+${new_y}^2+${new_z}^2)
variable           norm          equal     sqrt(0.106660854147467^2+${new_y}^2+${new_z}^2)
variable           norm          equal     sqrt(0.106660854147467^2+-0.0325122148753501^2+${new_z}^2)
variable           norm          equal     sqrt(0.106660854147467^2+-0.0325122148753501^2+0.00793913122259937^2)
variable           unit_x        equal     ${new_x}/${norm}
variable           unit_x        equal     0.106660854147467/${norm}
variable           unit_x        equal     0.106660854147467/0.111788245035593
variable           unit_y        equal     ${new_y}/${norm}
variable           unit_y        equal     -0.0325122148753501/${norm}
variable           unit_y        equal     -0.0325122148753501/0.111788245035593
variable           unit_z        equal     ${new_z}/${norm}
variable           unit_z        equal     0.00793913122259937/${norm}
variable           unit_z        equal     0.00793913122259937/0.111788245035593
variable           x_new         equal     ${x0}+${delta}*${unit_x}
variable           x_new         equal     0.701127257086392+${delta}*${unit_x}
variable           x_new         equal     0.701127257086392+0.02*${unit_x}
variable           x_new         equal     0.701127257086392+0.02*0.954133004892478
variable           y_new         equal     ${y0}+${delta}*${unit_y}
variable           y_new         equal     -1.04862527703959+${delta}*${unit_y}
variable           y_new         equal     -1.04862527703959+0.02*${unit_y}
variable           y_new         equal     -1.04862527703959+0.02*-0.29083751037507
variable           z_new         equal     ${z0}+${delta}*${unit_z}
variable           z_new         equal     -25.3041001450304+${delta}*${unit_z}
variable           z_new         equal     -25.3041001450304+0.02*${unit_z}
variable           z_new         equal     -25.3041001450304+0.02*0.071019374354357

set                atom          $i    x  ${x_new}  y  ${y_new}  z   ${z_new}
set                atom          288751    x  ${x_new}  y  ${y_new}  z   ${z_new}
set                atom          288751    x  0.720209917184242  y  ${y_new}  z   ${z_new}
set                atom          288751    x  0.720209917184242  y  -1.05444202724709  z   ${z_new}
set                atom          288751    x  0.720209917184242  y  -1.05444202724709  z   -25.3026797575433
Setting atom values ...
  1 settings made for x
  1 settings made for y
  1 settings made for z

fix                hold    carbon   planeforce   ${new_x}  ${new_y}  ${new_z}
fix                hold    carbon   planeforce   0.106660854147467  ${new_y}  ${new_z}
fix                hold    carbon   planeforce   0.106660854147467  -0.0325122148753501  ${new_z}
fix                hold    carbon   planeforce   0.106660854147467  -0.0325122148753501  0.00793913122259937
min_style          cg
minimize           1.0e-30 1.0e-30 10000 10000
Per MPI rank memory allocation (min/avg/max) = 5.441 | 5.816 | 6.074 Mbytes
Step PotEng KinEng TotEng v_fx v_fy v_fz 
    1082   -1152449.4            0   -1152449.4  0.015330798  0.041020512 -0.037980009 
    1200   -1152449.4            0   -1152449.4 1.4140833e-05 3.4752564e-05 -4.7661453e-05 
Loop time of 1.37025 on 104 procs for 118 steps with 288751 atoms

99.9% CPU use with 104 MPI tasks x 1 OpenMP threads

Minimization stats:
  Stopping criterion = energy tolerance
  Energy initial, next-to-last, final = 
      -1152449.4168251   -1152449.4183222   -1152449.4183222
  Force two-norm initial, final = 0.1838273 0.00018894113
  Force max component initial, final = 0.068024191 4.7661453e-05
  Final line search alpha, max atom move = 1.0000000 4.7661453e-05
  Iterations, force evaluations = 118 236

MPI task timing breakdown:
Section |  min time  |  avg time  |  max time  |%varavg| %total
---------------------------------------------------------------
Pair    | 0.35476    | 0.99539    | 1.2885     |  27.0 | 72.64
Neigh   | 0          | 0          | 0          |   0.0 |  0.00
Comm    | 0.020763   | 0.22294    | 0.6746     |  40.0 | 16.27
Output  | 0          | 0          | 0          |   0.0 |  0.00
Modify  | 1.3924e-05 | 0.0019564  | 0.0041603  |   2.1 |  0.14
Other   |            | 0.15       |            |       | 10.94

Nlocal:        2776.45 ave        3961 max           0 min
Histogram: 8 4 4 0 6 10 8 2 28 34
Nghost:        3879.01 ave        5424 max         232 min
Histogram: 8 0 8 0 16 0 8 8 16 40
Neighs:        79213.5 ave      115458 max           0 min
Histogram: 8 4 4 0 10 6 8 8 24 32

Total # of neighbors = 8238204
Ave neighs/atom = 28.530478
Neighbor list builds = 0
Dangerous builds = 0
unfix              hold

variable           new_x         delete
variable           new_y         delete
variable           new_z         delete
variable           dot           delete
variable           new_x         equal     ${x0}-${x_0}
variable           new_x         equal     0.721108646897918-${x_0}
variable           new_x         equal     0.721108646897918-0.594466402938925
variable           new_y         equal     ${y0}-${y_0}
variable           new_y         equal     -1.0521452274659-${y_0}
variable           new_y         equal     -1.0521452274659--1.01611306216424
variable           new_z         equal     ${z0}-${z_0}
variable           new_z         equal     -25.3053482146206-${z_0}
variable           new_z         equal     -25.3053482146206--25.312039276253

variable           dot      equal     ${fx}*${new_x}+${fy}*${new_y}+${fz}*${new_z}
variable           dot      equal     1.41408334521059e-05*${new_x}+${fy}*${new_y}+${fz}*${new_z}
variable           dot      equal     1.41408334521059e-05*0.126642243958993+${fy}*${new_y}+${fz}*${new_z}
variable           dot      equal     1.41408334521059e-05*0.126642243958993+3.47525644350044e-05*${new_y}+${fz}*${new_z}
variable           dot      equal     1.41408334521059e-05*0.126642243958993+3.47525644350044e-05*-0.03603216530166+${fz}*${new_z}
variable           dot      equal     1.41408334521059e-05*0.126642243958993+3.47525644350044e-05*-0.03603216530166+-4.76614532971252e-05*${new_z}
variable           dot      equal     1.41408334521059e-05*0.126642243958993+3.47525644350044e-05*-0.03603216530166+-4.76614532971252e-05*0.00669106163239874
print              "The dot product: ${dot}"
The dot product: 2.19711011945657e-07

if "(${dot} >= 0.0) && (${dot} < 1.0e-10)" then "jump TaR.in relaxation" elif "(${dot} < 0.0) && (${dot} > -1.0e-10)" "jump TaR.in relaxation" elif "(${iteration} == ${iter_tot}) && (${seed} < 319)" "print 'The iteration number is maximum!'" "next seed" "variable iteration delete" "jump TaR.in loop" elif "(${iteration} == ${iter_tot}) && (${seed} == 319)" "quit" else    "next iteration"    "jump TaR.in iteration"
next iteration
jump TaR.in iteration
variable           norm          equal     sqrt(${new_x}^2+${new_y}^2+${new_z}^2)
variable           norm          equal     sqrt(0.126642243958993^2+${new_y}^2+${new_z}^2)
variable           norm          equal     sqrt(0.126642243958993^2+-0.03603216530166^2+${new_z}^2)
variable           norm          equal     sqrt(0.126642243958993^2+-0.03603216530166^2+0.00669106163239874^2)
variable           unit_x        equal     ${new_x}/${norm}
variable           unit_x        equal     0.126642243958993/${norm}
variable           unit_x        equal     0.126642243958993/0.131838329771974
variable           unit_y        equal     ${new_y}/${norm}
variable           unit_y        equal     -0.03603216530166/${norm}
variable           unit_y        equal     -0.03603216530166/0.131838329771974
variable           unit_z        equal     ${new_z}/${norm}
variable           unit_z        equal     0.00669106163239874/${norm}
variable           unit_z        equal     0.00669106163239874/0.131838329771974
variable           x_new         equal     ${x0}+${delta}*${unit_x}
variable           x_new         equal     0.721108646897918+${delta}*${unit_x}
variable           x_new         equal     0.721108646897918+0.02*${unit_x}
variable           x_new         equal     0.721108646897918+0.02*0.960587442043842
variable           y_new         equal     ${y0}+${delta}*${unit_y}
variable           y_new         equal     -1.0521452274659+${delta}*${unit_y}
variable           y_new         equal     -1.0521452274659+0.02*${unit_y}
variable           y_new         equal     -1.0521452274659+0.02*-0.27330568707887
variable           z_new         equal     ${z0}+${delta}*${unit_z}
variable           z_new         equal     -25.3053482146206+${delta}*${unit_z}
variable           z_new         equal     -25.3053482146206+0.02*${unit_z}
variable           z_new         equal     -25.3053482146206+0.02*0.0507520206298997

set                atom          $i    x  ${x_new}  y  ${y_new}  z   ${z_new}
set                atom          288751    x  ${x_new}  y  ${y_new}  z   ${z_new}
set                atom          288751    x  0.740320395738795  y  ${y_new}  z   ${z_new}
set                atom          288751    x  0.740320395738795  y  -1.05761134120748  z   ${z_new}
set                atom          288751    x  0.740320395738795  y  -1.05761134120748  z   -25.304333174208
Setting atom values ...
  1 settings made for x
  1 settings made for y
  1 settings made for z

fix                hold    carbon   planeforce   ${new_x}  ${new_y}  ${new_z}
fix                hold    carbon   planeforce   0.126642243958993  ${new_y}  ${new_z}
fix                hold    carbon   planeforce   0.126642243958993  -0.03603216530166  ${new_z}
fix                hold    carbon   planeforce   0.126642243958993  -0.03603216530166  0.00669106163239874
min_style          cg
minimize           1.0e-30 1.0e-30 10000 10000
Per MPI rank memory allocation (min/avg/max) = 5.441 | 5.816 | 6.074 Mbytes
Step PotEng KinEng TotEng v_fx v_fy v_fz 
    1200   -1152449.4            0   -1152449.4  0.014716814  0.044616138  -0.03828305 
    1316   -1152449.4            0   -1152449.4 2.3912995e-06 6.0123426e-08 -4.493654e-05 
Loop time of 1.35339 on 104 procs for 116 steps with 288751 atoms

99.9% CPU use with 104 MPI tasks x 1 OpenMP threads

Minimization stats:
  Stopping criterion = energy tolerance
  Energy initial, next-to-last, final = 
     -1152449.40613532  -1152449.40761648  -1152449.40761648
  Force two-norm initial, final = 0.18245487 0.00020911893
  Force max component initial, final = 0.065445329 4.4936540e-05
  Final line search alpha, max atom move = 1.0000000 4.4936540e-05
  Iterations, force evaluations = 116 232

MPI task timing breakdown:
Section |  min time  |  avg time  |  max time  |%varavg| %total
---------------------------------------------------------------
Pair    | 0.34966    | 0.97589    | 1.2674     |  26.8 | 72.11
Neigh   | 0          | 0          | 0          |   0.0 |  0.00
Comm    | 0.020459   | 0.22033    | 0.65883    |  39.2 | 16.28
Output  | 0          | 0          | 0          |   0.0 |  0.00
Modify  | 1.3764e-05 | 0.0019242  | 0.0041015  |   2.1 |  0.14
Other   |            | 0.1552     |            |       | 11.47

Nlocal:        2776.45 ave        3961 max           0 min
Histogram: 8 4 4 0 6 10 8 2 28 34
Nghost:        3879.01 ave        5424 max         232 min
Histogram: 8 0 8 0 16 0 8 8 16 40
Neighs:        79213.5 ave      115458 max           0 min
Histogram: 8 4 4 0 10 6 8 8 24 32

Total # of neighbors = 8238200
Ave neighs/atom = 28.530464
Neighbor list builds = 0
Dangerous builds = 0
unfix              hold

variable           new_x         delete
variable           new_y         delete
variable           new_z         delete
variable           dot           delete
variable           new_x         equal     ${x0}-${x_0}
variable           new_x         equal     0.741306308896488-${x_0}
variable           new_x         equal     0.741306308896488-0.594466402938925
variable           new_y         equal     ${y0}-${y_0}
variable           new_y         equal     -1.05465640054569-${y_0}
variable           new_y         equal     -1.05465640054569--1.01611306216424
variable           new_z         equal     ${z0}-${z_0}
variable           new_z         equal     -25.307080921168-${z_0}
variable           new_z         equal     -25.307080921168--25.312039276253

variable           dot      equal     ${fx}*${new_x}+${fy}*${new_y}+${fz}*${new_z}
variable           dot      equal     2.3912995262615e-06*${new_x}+${fy}*${new_y}+${fz}*${new_z}
variable           dot      equal     2.3912995262615e-06*0.146839905957563+${fy}*${new_y}+${fz}*${new_z}
variable           dot      equal     2.3912995262615e-06*0.146839905957563+6.01234261097884e-08*${new_y}+${fz}*${new_z}
variable           dot      equal     2.3912995262615e-06*0.146839905957563+6.01234261097884e-08*-0.03854333838145+${fz}*${new_z}
variable           dot      equal     2.3912995262615e-06*0.146839905957563+6.01234261097884e-08*-0.03854333838145+-4.49365403114699e-05*${new_z}
variable           dot      equal     2.3912995262615e-06*0.146839905957563+6.01234261097884e-08*-0.03854333838145+-4.49365403114699e-05*0.00495835508499809
print              "The dot product: ${dot}"
The dot product: 1.26009516839803e-07

if "(${dot} >= 0.0) && (${dot} < 1.0e-10)" then "jump TaR.in relaxation" elif "(${dot} < 0.0) && (${dot} > -1.0e-10)" "jump TaR.in relaxation" elif "(${iteration} == ${iter_tot}) && (${seed} < 319)" "print 'The iteration number is maximum!'" "next seed" "variable iteration delete" "jump TaR.in loop" elif "(${iteration} == ${iter_tot}) && (${seed} == 319)" "quit" else    "next iteration"    "jump TaR.in iteration"
next iteration
jump TaR.in iteration
variable           norm          equal     sqrt(${new_x}^2+${new_y}^2+${new_z}^2)
variable           norm          equal     sqrt(0.146839905957563^2+${new_y}^2+${new_z}^2)
variable           norm          equal     sqrt(0.146839905957563^2+-0.03854333838145^2+${new_z}^2)
variable           norm          equal     sqrt(0.146839905957563^2+-0.03854333838145^2+0.00495835508499809^2)
variable           unit_x        equal     ${new_x}/${norm}
variable           unit_x        equal     0.146839905957563/${norm}
variable           unit_x        equal     0.146839905957563/0.151895135538838
variable           unit_y        equal     ${new_y}/${norm}
variable           unit_y        equal     -0.03854333838145/${norm}
variable           unit_y        equal     -0.03854333838145/0.151895135538838
variable           unit_z        equal     ${new_z}/${norm}
variable           unit_z        equal     0.00495835508499809/${norm}
variable           unit_z        equal     0.00495835508499809/0.151895135538838
variable           x_new         equal     ${x0}+${delta}*${unit_x}
variable           x_new         equal     0.741306308896488+${delta}*${unit_x}
variable           x_new         equal     0.741306308896488+0.02*${unit_x}
variable           x_new         equal     0.741306308896488+0.02*0.96671895012739
variable           y_new         equal     ${y0}+${delta}*${unit_y}
variable           y_new         equal     -1.05465640054569+${delta}*${unit_y}
variable           y_new         equal     -1.05465640054569+0.02*${unit_y}
variable           y_new         equal     -1.05465640054569+0.02*-0.253749655936775
variable           z_new         equal     ${z0}+${delta}*${unit_z}
variable           z_new         equal     -25.307080921168+${delta}*${unit_z}
variable           z_new         equal     -25.307080921168+0.02*${unit_z}
variable           z_new         equal     -25.307080921168+0.02*0.0326432776626365

set                atom          $i    x  ${x_new}  y  ${y_new}  z   ${z_new}
set                atom          288751    x  ${x_new}  y  ${y_new}  z   ${z_new}
set                atom          288751    x  0.760640687899036  y  ${y_new}  z   ${z_new}
set                atom          288751    x  0.760640687899036  y  -1.05973139366443  z   ${z_new}
set                atom          288751    x  0.760640687899036  y  -1.05973139366443  z   -25.3064280556147
Setting atom values ...
  1 settings made for x
  1 settings made for y
  1 settings made for z

fix                hold    carbon   planeforce   ${new_x}  ${new_y}  ${new_z}
fix                hold    carbon   planeforce   0.146839905957563  ${new_y}  ${new_z}
fix                hold    carbon   planeforce   0.146839905957563  -0.03854333838145  ${new_z}
fix                hold    carbon   planeforce   0.146839905957563  -0.03854333838145  0.00495835508499809
min_style          cg
minimize           1.0e-30 1.0e-30 10000 10000
Per MPI rank memory allocation (min/avg/max) = 5.441 | 5.816 | 6.074 Mbytes
Step PotEng KinEng TotEng v_fx v_fy v_fz 
    1316   -1152449.4            0   -1152449.4   0.01435712  0.049506899 -0.040343411 
    1557   -1152449.4            0   -1152449.4 5.2413445e-07 2.2440432e-06 1.9218197e-06 
Loop time of 2.82838 on 104 procs for 241 steps with 288751 atoms

99.9% CPU use with 104 MPI tasks x 1 OpenMP threads

Minimization stats:
  Stopping criterion = energy tolerance
  Energy initial, next-to-last, final = 
     -1152449.39388375  -1152449.39536161  -1152449.39536161
  Force two-norm initial, final = 0.18181449 1.3076734e-05
  Force max component initial, final = 0.062544524 3.0761890e-06
  Final line search alpha, max atom move = 1.0000000 3.0761890e-06
  Iterations, force evaluations = 241 482

MPI task timing breakdown:
Section |  min time  |  avg time  |  max time  |%varavg| %total
---------------------------------------------------------------
Pair    | 0.72353    | 2.034      | 2.6494     |  38.6 | 71.91
Neigh   | 0          | 0          | 0          |   0.0 |  0.00
Comm    | 0.04651    | 0.46011    | 1.3907     |  56.7 | 16.27
Output  | 0          | 0          | 0          |   0.0 |  0.00
Modify  | 2.8436e-05 | 0.0039858  | 0.0085788  |   3.0 |  0.14
Other   |            | 0.3303     |            |       | 11.68

Nlocal:        2776.45 ave        3961 max           0 min
Histogram: 8 4 4 0 6 10 8 2 28 34
Nghost:        3879.01 ave        5424 max         232 min
Histogram: 8 0 8 0 16 0 8 8 16 40
Neighs:        79213.4 ave      115458 max           0 min
Histogram: 8 4 4 0 10 6 8 8 24 32

Total # of neighbors = 8238198
Ave neighs/atom = 28.530457
Neighbor list builds = 0
Dangerous builds = 0
unfix              hold

variable           new_x         delete
variable           new_y         delete
variable           new_z         delete
variable           dot           delete
variable           new_x         equal     ${x0}-${x_0}
variable           new_x         equal     0.761804355713181-${x_0}
variable           new_x         equal     0.761804355713181-0.594466402938925
variable           new_y         equal     ${y0}-${y_0}
variable           new_y         equal     -1.05571353564077-${y_0}
variable           new_y         equal     -1.05571353564077--1.01611306216424
variable           new_z         equal     ${z0}-${z_0}
variable           new_z         equal     -25.3096571932508-${z_0}
variable           new_z         equal     -25.3096571932508--25.312039276253

variable           dot      equal     ${fx}*${new_x}+${fy}*${new_y}+${fz}*${new_z}
variable           dot      equal     5.2413444665911e-07*${new_x}+${fy}*${new_y}+${fz}*${new_z}
variable           dot      equal     5.2413444665911e-07*0.167337952774256+${fy}*${new_y}+${fz}*${new_z}
variable           dot      equal     5.2413444665911e-07*0.167337952774256+2.24404322481879e-06*${new_y}+${fz}*${new_z}
variable           dot      equal     5.2413444665911e-07*0.167337952774256+2.24404322481879e-06*-0.0396004734765301+${fz}*${new_z}
variable           dot      equal     5.2413444665911e-07*0.167337952774256+2.24404322481879e-06*-0.0396004734765301+1.92181970280064e-06*${new_z}
variable           dot      equal     5.2413444665911e-07*0.167337952774256+2.24404322481879e-06*-0.0396004734765301+1.92181970280064e-06*0.00238208300219966
print              "The dot product: ${dot}"
The dot product: 3.4203451251132e-09

if "(${dot} >= 0.0) && (${dot} < 1.0e-10)" then "jump TaR.in relaxation" elif "(${dot} < 0.0) && (${dot} > -1.0e-10)" "jump TaR.in relaxation" elif "(${iteration} == ${iter_tot}) && (${seed} < 319)" "print 'The iteration number is maximum!'" "next seed" "variable iteration delete" "jump TaR.in loop" elif "(${iteration} == ${iter_tot}) && (${seed} == 319)" "quit" else    "next iteration"    "jump TaR.in iteration"
next iteration
jump TaR.in iteration
variable           norm          equal     sqrt(${new_x}^2+${new_y}^2+${new_z}^2)
variable           norm          equal     sqrt(0.167337952774256^2+${new_y}^2+${new_z}^2)
variable           norm          equal     sqrt(0.167337952774256^2+-0.0396004734765301^2+${new_z}^2)
variable           norm          equal     sqrt(0.167337952774256^2+-0.0396004734765301^2+0.00238208300219966^2)
variable           unit_x        equal     ${new_x}/${norm}
variable           unit_x        equal     0.167337952774256/${norm}
variable           unit_x        equal     0.167337952774256/0.17197634214529
variable           unit_y        equal     ${new_y}/${norm}
variable           unit_y        equal     -0.0396004734765301/${norm}
variable           unit_y        equal     -0.0396004734765301/0.17197634214529
variable           unit_z        equal     ${new_z}/${norm}
variable           unit_z        equal     0.00238208300219966/${norm}
variable           unit_z        equal     0.00238208300219966/0.17197634214529
variable           x_new         equal     ${x0}+${delta}*${unit_x}
variable           x_new         equal     0.761804355713181+${delta}*${unit_x}
variable           x_new         equal     0.761804355713181+0.02*${unit_x}
variable           x_new         equal     0.761804355713181+0.02*0.973028910179312
variable           y_new         equal     ${y0}+${delta}*${unit_y}
variable           y_new         equal     -1.05571353564077+${delta}*${unit_y}
variable           y_new         equal     -1.05571353564077+0.02*${unit_y}
variable           y_new         equal     -1.05571353564077+0.02*-0.230266983135823
variable           z_new         equal     ${z0}+${delta}*${unit_z}
variable           z_new         equal     -25.3096571932508+${delta}*${unit_z}
variable           z_new         equal     -25.3096571932508+0.02*${unit_z}
variable           z_new         equal     -25.3096571932508+0.02*0.0138512249562048

set                atom          $i    x  ${x_new}  y  ${y_new}  z   ${z_new}
set                atom          288751    x  ${x_new}  y  ${y_new}  z   ${z_new}
set                atom          288751    x  0.781264933916767  y  ${y_new}  z   ${z_new}
set                atom          288751    x  0.781264933916767  y  -1.06031887530349  z   ${z_new}
set                atom          288751    x  0.781264933916767  y  -1.06031887530349  z   -25.3093801687517
Setting atom values ...
  1 settings made for x
  1 settings made for y
  1 settings made for z

fix                hold    carbon   planeforce   ${new_x}  ${new_y}  ${new_z}
fix                hold    carbon   planeforce   0.167337952774256  ${new_y}  ${new_z}
fix                hold    carbon   planeforce   0.167337952774256  -0.0396004734765301  ${new_z}
fix                hold    carbon   planeforce   0.167337952774256  -0.0396004734765301  0.00238208300219966
min_style          cg
minimize           1.0e-30 1.0e-30 10000 10000
Per MPI rank memory allocation (min/avg/max) = 5.441 | 5.816 | 6.074 Mbytes
Step PotEng KinEng TotEng v_fx v_fy v_fz 
    1557   -1152449.4            0   -1152449.4  0.014195796  0.057243725 -0.045597405 
    1699   -1152449.4            0   -1152449.4 2.3236119e-06 8.6401162e-06 -1.9594518e-05 
Loop time of 1.66832 on 104 procs for 142 steps with 288751 atoms

99.9% CPU use with 104 MPI tasks x 1 OpenMP threads

Minimization stats:
  Stopping criterion = energy tolerance
  Energy initial, next-to-last, final = 
     -1152449.38012232  -1152449.38163706  -1152449.38163706
  Force two-norm initial, final = 0.18280221 0.00012130458
  Force max component initial, final = 0.059349117 2.4931946e-05
  Final line search alpha, max atom move = 1.0000000 2.4931946e-05
  Iterations, force evaluations = 142 284

MPI task timing breakdown:
Section |  min time  |  avg time  |  max time  |%varavg| %total
---------------------------------------------------------------
Pair    | 0.42737    | 1.1964     | 1.5557     |  29.7 | 71.71
Neigh   | 0          | 0          | 0          |   0.0 |  0.00
Comm    | 0.02591    | 0.27011    | 0.80728    |  43.4 | 16.19
Output  | 0          | 0          | 0          |   0.0 |  0.00
Modify  | 1.682e-05  | 0.0023495  | 0.0049809  |   2.3 |  0.14
Other   |            | 0.1995     |            |       | 11.96

Nlocal:        2776.45 ave        3961 max           0 min
Histogram: 8 4 4 0 6 10 8 3 27 34
Nghost:        3879.01 ave        5424 max         232 min
Histogram: 8 0 8 0 16 0 8 8 16 40
Neighs:        79213.4 ave      115448 max           0 min
Histogram: 8 4 4 0 10 6 8 8 24 32

Total # of neighbors = 8238197
Ave neighs/atom = 28.530454
Neighbor list builds = 0
Dangerous builds = 0
unfix              hold

variable           new_x         delete
variable           new_y         delete
variable           new_z         delete
variable           dot           delete
variable           new_x         equal     ${x0}-${x_0}
variable           new_x         equal     0.782826312015326-${x_0}
variable           new_x         equal     0.782826312015326-0.594466402938925
variable           new_y         equal     ${y0}-${y_0}
variable           new_y         equal     -1.05401071101511-${y_0}
variable           new_y         equal     -1.05401071101511--1.01611306216424
variable           new_z         equal     ${z0}-${z_0}
variable           new_z         equal     -25.3141959211537-${z_0}
variable           new_z         equal     -25.3141959211537--25.312039276253

variable           dot      equal     ${fx}*${new_x}+${fy}*${new_y}+${fz}*${new_z}
variable           dot      equal     2.32361191280789e-06*${new_x}+${fy}*${new_y}+${fz}*${new_z}
variable           dot      equal     2.32361191280789e-06*0.188359909076401+${fy}*${new_y}+${fz}*${new_z}
variable           dot      equal     2.32361191280789e-06*0.188359909076401+8.64011620127678e-06*${new_y}+${fz}*${new_z}
variable           dot      equal     2.32361191280789e-06*0.188359909076401+8.64011620127678e-06*-0.03789764885087+${fz}*${new_z}
variable           dot      equal     2.32361191280789e-06*0.188359909076401+8.64011620127678e-06*-0.03789764885087+-1.95945179303092e-05*${new_z}
variable           dot      equal     2.32361191280789e-06*0.188359909076401+8.64011620127678e-06*-0.03789764885087+-1.95945179303092e-05*-0.00215664490070111
print              "The dot product: ${dot}"
The dot product: 1.52493655974734e-07

if "(${dot} >= 0.0) && (${dot} < 1.0e-10)" then "jump TaR.in relaxation" elif "(${dot} < 0.0) && (${dot} > -1.0e-10)" "jump TaR.in relaxation" elif "(${iteration} == ${iter_tot}) && (${seed} < 319)" "print 'The iteration number is maximum!'" "next seed" "variable iteration delete" "jump TaR.in loop" elif "(${iteration} == ${iter_tot}) && (${seed} == 319)" "quit" else    "next iteration"    "jump TaR.in iteration"
next iteration
jump TaR.in iteration
variable           norm          equal     sqrt(${new_x}^2+${new_y}^2+${new_z}^2)
variable           norm          equal     sqrt(0.188359909076401^2+${new_y}^2+${new_z}^2)
variable           norm          equal     sqrt(0.188359909076401^2+-0.03789764885087^2+${new_z}^2)
variable           norm          equal     sqrt(0.188359909076401^2+-0.03789764885087^2+-0.00215664490070111^2)
variable           unit_x        equal     ${new_x}/${norm}
variable           unit_x        equal     0.188359909076401/${norm}
variable           unit_x        equal     0.188359909076401/0.192146658188275
variable           unit_y        equal     ${new_y}/${norm}
variable           unit_y        equal     -0.03789764885087/${norm}
variable           unit_y        equal     -0.03789764885087/0.192146658188275
variable           unit_z        equal     ${new_z}/${norm}
variable           unit_z        equal     -0.00215664490070111/${norm}
variable           unit_z        equal     -0.00215664490070111/0.192146658188275
variable           x_new         equal     ${x0}+${delta}*${unit_x}
variable           x_new         equal     0.782826312015326+${delta}*${unit_x}
variable           x_new         equal     0.782826312015326+0.02*${unit_x}
variable           x_new         equal     0.782826312015326+0.02*0.980292401920602
variable           y_new         equal     ${y0}+${delta}*${unit_y}
variable           y_new         equal     -1.05401071101511+${delta}*${unit_y}
variable           y_new         equal     -1.05401071101511+0.02*${unit_y}
variable           y_new         equal     -1.05401071101511+0.02*-0.197232932428812
variable           z_new         equal     ${z0}+${delta}*${unit_z}
variable           z_new         equal     -25.3141959211537+${delta}*${unit_z}
variable           z_new         equal     -25.3141959211537+0.02*${unit_z}
variable           z_new         equal     -25.3141959211537+0.02*-0.0112239521677651

set                atom          $i    x  ${x_new}  y  ${y_new}  z   ${z_new}
set                atom          288751    x  ${x_new}  y  ${y_new}  z   ${z_new}
set                atom          288751    x  0.802432160053738  y  ${y_new}  z   ${z_new}
set                atom          288751    x  0.802432160053738  y  -1.05795536966369  z   ${z_new}
set                atom          288751    x  0.802432160053738  y  -1.05795536966369  z   -25.3144204001971
Setting atom values ...
  1 settings made for x
  1 settings made for y
  1 settings made for z

fix                hold    carbon   planeforce   ${new_x}  ${new_y}  ${new_z}
fix                hold    carbon   planeforce   0.188359909076401  ${new_y}  ${new_z}
fix                hold    carbon   planeforce   0.188359909076401  -0.03789764885087  ${new_z}
fix                hold    carbon   planeforce   0.188359909076401  -0.03789764885087  -0.00215664490070111
min_style          cg
minimize           1.0e-30 1.0e-30 10000 10000
Per MPI rank memory allocation (min/avg/max) = 5.441 | 5.816 | 6.074 Mbytes
Step PotEng KinEng TotEng v_fx v_fy v_fz 
    1699   -1152449.4            0   -1152449.4  0.013938295  0.072626477  -0.05886772 
    1847   -1152449.4            0   -1152449.4 3.2245497e-07 4.1928226e-06 -4.5515387e-05 
Loop time of 1.71995 on 104 procs for 148 steps with 288751 atoms

99.9% CPU use with 104 MPI tasks x 1 OpenMP threads

Minimization stats:
  Stopping criterion = energy tolerance
  Energy initial, next-to-last, final = 
     -1152449.36505669   -1152449.3670284   -1152449.3670284
  Force two-norm initial, final = 0.18917899 0.00020727069
  Force max component initial, final = 0.072626477 4.5515387e-05
  Final line search alpha, max atom move = 1.0000000 4.5515387e-05
  Iterations, force evaluations = 148 296

MPI task timing breakdown:
Section |  min time  |  avg time  |  max time  |%varavg| %total
---------------------------------------------------------------
Pair    | 0.44494    | 1.2486     | 1.6157     |  30.2 | 72.59
Neigh   | 0          | 0          | 0          |   0.0 |  0.00
Comm    | 0.025032   | 0.28354    | 0.86095    |  44.4 | 16.49
Output  | 0          | 0          | 0          |   0.0 |  0.00
Modify  | 1.7907e-05 | 0.0024519  | 0.0052035  |   2.3 |  0.14
Other   |            | 0.1854     |            |       | 10.78

Nlocal:        2776.45 ave        3961 max           0 min
Histogram: 8 4 4 0 6 10 8 3 27 34
Nghost:        3879.01 ave        5424 max         232 min
Histogram: 8 0 8 0 16 0 8 8 16 40
Neighs:        79213.4 ave      115448 max           0 min
Histogram: 8 4 4 0 10 6 8 8 24 32

Total # of neighbors = 8238193
Ave neighs/atom = 28.530440
Neighbor list builds = 0
Dangerous builds = 0
unfix              hold

variable           new_x         delete
variable           new_y         delete
variable           new_z         delete
variable           dot           delete
variable           new_x         equal     ${x0}-${x_0}
variable           new_x         equal     0.806316583967518-${x_0}
variable           new_x         equal     0.806316583967518-0.594466402938925
variable           new_y         equal     ${y0}-${y_0}
variable           new_y         equal     -1.03762021197232-${y_0}
variable           new_y         equal     -1.03762021197232--1.01611306216424
variable           new_z         equal     ${z0}-${z_0}
variable           new_z         equal     -25.3324970572709-${z_0}
variable           new_z         equal     -25.3324970572709--25.312039276253

variable           dot      equal     ${fx}*${new_x}+${fy}*${new_y}+${fz}*${new_z}
variable           dot      equal     3.22454971776002e-07*${new_x}+${fy}*${new_y}+${fz}*${new_z}
variable           dot      equal     3.22454971776002e-07*0.211850181028593+${fy}*${new_y}+${fz}*${new_z}
variable           dot      equal     3.22454971776002e-07*0.211850181028593+4.19282255791654e-06*${new_y}+${fz}*${new_z}
variable           dot      equal     3.22454971776002e-07*0.211850181028593+4.19282255791654e-06*-0.0215071498080799+${fz}*${new_z}
variable           dot      equal     3.22454971776002e-07*0.211850181028593+4.19282255791654e-06*-0.0215071498080799+-4.55153872592411e-05*${new_z}
variable           dot      equal     3.22454971776002e-07*0.211850181028593+4.19282255791654e-06*-0.0215071498080799+-4.55153872592411e-05*-0.0204577810178996
print              "The dot product: ${dot}"
The dot product: 9.0928030676696e-07

if "(${dot} >= 0.0) && (${dot} < 1.0e-10)" then "jump TaR.in relaxation" elif "(${dot} < 0.0) && (${dot} > -1.0e-10)" "jump TaR.in relaxation" elif "(${iteration} == ${iter_tot}) && (${seed} < 319)" "print 'The iteration number is maximum!'" "next seed" "variable iteration delete" "jump TaR.in loop" elif "(${iteration} == ${iter_tot}) && (${seed} == 319)" "quit" else    "next iteration"    "jump TaR.in iteration"
next iteration
jump TaR.in iteration
variable           norm          equal     sqrt(${new_x}^2+${new_y}^2+${new_z}^2)
variable           norm          equal     sqrt(0.211850181028593^2+${new_y}^2+${new_z}^2)
variable           norm          equal     sqrt(0.211850181028593^2+-0.0215071498080799^2+${new_z}^2)
variable           norm          equal     sqrt(0.211850181028593^2+-0.0215071498080799^2+-0.0204577810178996^2)
variable           unit_x        equal     ${new_x}/${norm}
variable           unit_x        equal     0.211850181028593/${norm}
variable           unit_x        equal     0.211850181028593/0.213919558476758
variable           unit_y        equal     ${new_y}/${norm}
variable           unit_y        equal     -0.0215071498080799/${norm}
variable           unit_y        equal     -0.0215071498080799/0.213919558476758
[...]
fix                hold    carbon   planeforce   0.353039013492962  0.181718561860227  ${new_z}
fix                hold    carbon   planeforce   0.353039013492962  0.181718561860227  -0.2301859397102
min_style          cg
minimize           1.0e-30 1.0e-30 10000 10000
Per MPI rank memory allocation (min/avg/max) = 5.441 | 5.816 | 6.074 Mbytes
Step PotEng KinEng TotEng v_fx v_fy v_fz 
    4183   -1152449.3            0   -1152449.3 0.0059727506 0.0039627741  0.012288863 
    4371   -1152449.3            0   -1152449.3 -1.1392663e-05 6.8598026e-07 -1.6931526e-05 
Loop time of 2.21285 on 104 procs for 188 steps with 288751 atoms

99.9% CPU use with 104 MPI tasks x 1 OpenMP threads

Minimization stats:
  Stopping criterion = energy tolerance
  Energy initial, next-to-last, final = 
     -1152449.33274896  -1152449.33359588  -1152449.33359588
  Force two-norm initial, final = 0.12186303 9.9173767e-05
  Force max component initial, final = 0.044128731 1.7842082e-05
  Final line search alpha, max atom move = 1.0000000 1.7842082e-05
  Iterations, force evaluations = 188 376

MPI task timing breakdown:
Section |  min time  |  avg time  |  max time  |%varavg| %total
---------------------------------------------------------------
Pair    | 0.56362    | 1.5822     | 2.081      |  34.1 | 71.50
Neigh   | 0          | 0          | 0          |   0.0 |  0.00
Comm    | 0.030835   | 0.36276    | 1.0769     |  49.5 | 16.39
Output  | 0          | 0          | 0          |   0.0 |  0.00
Modify  | 2.3176e-05 | 0.0031123  | 0.0067133  |   2.6 |  0.14
Other   |            | 0.2648     |            |       | 11.97

Nlocal:        2776.45 ave        3960 max           0 min
Histogram: 8 4 4 0 4 12 8 4 26 34
Nghost:        3879.11 ave        5428 max         232 min
Histogram: 8 0 8 0 16 0 8 8 16 40
Neighs:        79213.4 ave      115432 max           0 min
Histogram: 8 4 4 0 10 6 8 8 24 32

Total # of neighbors = 8238190
Ave neighs/atom = 28.530429
Neighbor list builds = 0
Dangerous builds = 0
unfix              hold

variable           new_x         delete
variable           new_y         delete
variable           new_z         delete
variable           dot           delete
variable           new_x         equal     ${x0}-${x_0}
variable           new_x         equal     0.962962304433819-${x_0}
variable           new_x         equal     0.962962304433819-0.594466402938925
variable           new_y         equal     ${y0}-${y_0}
variable           new_y         equal     -0.826272576466369-${y_0}
variable           new_y         equal     -0.826272576466369--1.01611306216424
variable           new_z         equal     ${z0}-${z_0}
variable           new_z         equal     -25.5519842809909-${z_0}
variable           new_z         equal     -25.5519842809909--25.312039276253

variable           dot      equal     ${fx}*${new_x}+${fy}*${new_y}+${fz}*${new_z}
variable           dot      equal     -1.13926633827139e-05*${new_x}+${fy}*${new_y}+${fz}*${new_z}
variable           dot      equal     -1.13926633827139e-05*0.368495901494894+${fy}*${new_y}+${fz}*${new_z}
variable           dot      equal     -1.13926633827139e-05*0.368495901494894+6.85980257872382e-07*${new_y}+${fz}*${new_z}
variable           dot      equal     -1.13926633827139e-05*0.368495901494894+6.85980257872382e-07*0.189840485697871+${fz}*${new_z}
variable           dot      equal     -1.13926633827139e-05*0.368495901494894+6.85980257872382e-07*0.189840485697871+-1.69315263158924e-05*${new_z}
variable           dot      equal     -1.13926633827139e-05*0.368495901494894+6.85980257872382e-07*0.189840485697871+-1.69315263158924e-05*-0.239945004737901
print              "The dot product: ${dot}"
The dot product: -5.28777622068543e-09

if "(${dot} >= 0.0) && (${dot} < 1.0e-10)" then "jump TaR.in relaxation" elif "(${dot} < 0.0) && (${dot} > -1.0e-10)" "jump TaR.in relaxation" elif "(${iteration} == ${iter_tot}) && (${seed} < 319)" "print 'The iteration number is maximum!'" "next seed" "variable iteration delete" "jump TaR.in loop" elif "(${iteration} == ${iter_tot}) && (${seed} == 319)" "quit" else    "next iteration"    "jump TaR.in iteration"
next iteration
jump TaR.in iteration
variable           norm          equal     sqrt(${new_x}^2+${new_y}^2+${new_z}^2)
variable           norm          equal     sqrt(0.368495901494894^2+${new_y}^2+${new_z}^2)
variable           norm          equal     sqrt(0.368495901494894^2+0.189840485697871^2+${new_z}^2)
variable           norm          equal     sqrt(0.368495901494894^2+0.189840485697871^2+-0.239945004737901^2)
variable           unit_x        equal     ${new_x}/${norm}
variable           unit_x        equal     0.368495901494894/${norm}
variable           unit_x        equal     0.368495901494894/0.478959543935821
variable           unit_y        equal     ${new_y}/${norm}
variable           unit_y        equal     0.189840485697871/${norm}
variable           unit_y        equal     0.189840485697871/0.478959543935821
variable           unit_z        equal     ${new_z}/${norm}
variable           unit_z        equal     -0.239945004737901/${norm}
variable           unit_z        equal     -0.239945004737901/0.478959543935821
variable           x_new         equal     ${x0}+${delta}*${unit_x}
variable           x_new         equal     0.962962304433819+${delta}*${unit_x}
variable           x_new         equal     0.962962304433819+0.02*${unit_x}
variable           x_new         equal     0.962962304433819+0.02*0.769367488675142
variable           y_new         equal     ${y0}+${delta}*${unit_y}
variable           y_new         equal     -0.826272576466369+${delta}*${unit_y}
variable           y_new         equal     -0.826272576466369+0.02*${unit_y}
variable           y_new         equal     -0.826272576466369+0.02*0.396360168831522
variable           z_new         equal     ${z0}+${delta}*${unit_z}
variable           z_new         equal     -25.5519842809909+${delta}*${unit_z}
variable           z_new         equal     -25.5519842809909+0.02*${unit_z}
variable           z_new         equal     -25.5519842809909+0.02*-0.500971340431318

set                atom          $i    x  ${x_new}  y  ${y_new}  z   ${z_new}
set                atom          288751    x  ${x_new}  y  ${y_new}  z   ${z_new}
set                atom          288751    x  0.978349654207322  y  ${y_new}  z   ${z_new}
set                atom          288751    x  0.978349654207322  y  -0.818345373089739  z   ${z_new}
set                atom          288751    x  0.978349654207322  y  -0.818345373089739  z   -25.5620037077995
Setting atom values ...
  1 settings made for x
  1 settings made for y
  1 settings made for z

fix                hold    carbon   planeforce   ${new_x}  ${new_y}  ${new_z}
fix                hold    carbon   planeforce   0.368495901494894  ${new_y}  ${new_z}
fix                hold    carbon   planeforce   0.368495901494894  0.189840485697871  ${new_z}
fix                hold    carbon   planeforce   0.368495901494894  0.189840485697871  -0.239945004737901
min_style          cg
minimize           1.0e-30 1.0e-30 10000 10000
Per MPI rank memory allocation (min/avg/max) = 5.441 | 5.816 | 6.074 Mbytes
Step PotEng KinEng TotEng v_fx v_fy v_fz 
    4371   -1152449.3            0   -1152449.3 0.0057334794 0.0025848024  0.010850252 
    4572   -1152449.3            0   -1152449.3 8.3065679e-07 3.6150306e-10 1.2759684e-06 
Loop time of 2.34638 on 104 procs for 201 steps with 288751 atoms

99.9% CPU use with 104 MPI tasks x 1 OpenMP threads

Minimization stats:
  Stopping criterion = energy tolerance
  Energy initial, next-to-last, final = 
     -1152449.32501521  -1152449.32586241  -1152449.32586241
  Force two-norm initial, final = 0.12193812 7.1657829e-05
  Force max component initial, final = 0.043976283 1.9238570e-06
  Final line search alpha, max atom move = 1.0000000 1.9238570e-06
  Iterations, force evaluations = 201 402

MPI task timing breakdown:
Section |  min time  |  avg time  |  max time  |%varavg| %total
---------------------------------------------------------------
Pair    | 0.60036    | 1.6886     | 2.2098     |  35.3 | 71.97
Neigh   | 0          | 0          | 0          |   0.0 |  0.00
Comm    | 0.034699   | 0.38127    | 1.1408     |  51.6 | 16.25
Output  | 0          | 0          | 0          |   0.0 |  0.00
Modify  | 2.4589e-05 | 0.0033215  | 0.0071242  |   2.7 |  0.14
Other   |            | 0.2732     |            |       | 11.64

Nlocal:        2776.45 ave        3960 max           0 min
Histogram: 8 4 4 0 4 12 8 4 26 34
Nghost:        3879.09 ave        5424 max         232 min
Histogram: 8 0 8 0 16 0 8 8 16 40
Neighs:        79213.4 ave      115422 max           0 min
Histogram: 8 4 4 0 10 6 8 8 24 32

Total # of neighbors = 8238190
Ave neighs/atom = 28.530429
Neighbor list builds = 0
Dangerous builds = 0
unfix              hold

variable           new_x         delete
variable           new_y         delete
variable           new_z         delete
variable           dot           delete
variable           new_x         equal     ${x0}-${x_0}
variable           new_x         equal     0.97844966784681-${x_0}
variable           new_x         equal     0.97844966784681-0.594466402938925
variable           new_y         equal     ${y0}-${y_0}
variable           new_y         equal     -0.818237767838197-${y_0}
variable           new_y         equal     -0.818237767838197--1.01611306216424
variable           new_z         equal     ${z0}-${z_0}
variable           new_z         equal     -25.5617649762221-${z_0}
variable           new_z         equal     -25.5617649762221--25.312039276253

variable           dot      equal     ${fx}*${new_x}+${fy}*${new_y}+${fz}*${new_z}
variable           dot      equal     8.3065679124121e-07*${new_x}+${fy}*${new_y}+${fz}*${new_z}
variable           dot      equal     8.3065679124121e-07*0.383983264907885+${fy}*${new_y}+${fz}*${new_z}
variable           dot      equal     8.3065679124121e-07*0.383983264907885+3.61503056961985e-10*${new_y}+${fz}*${new_z}
variable           dot      equal     8.3065679124121e-07*0.383983264907885+3.61503056961985e-10*0.197875294326043+${fz}*${new_z}
variable           dot      equal     8.3065679124121e-07*0.383983264907885+3.61503056961985e-10*0.197875294326043+1.27596843035977e-06*${new_z}
variable           dot      equal     8.3065679124121e-07*0.383983264907885+3.61503056961985e-10*0.197875294326043+1.27596843035977e-06*-0.249725699969101
print              "The dot product: ${dot}"
The dot product: 3.87729832434691e-10

if "(${dot} >= 0.0) && (${dot} < 1.0e-10)" then "jump TaR.in relaxation" elif "(${dot} < 0.0) && (${dot} > -1.0e-10)" "jump TaR.in relaxation" elif "(${iteration} == ${iter_tot}) && (${seed} < 319)" "print 'The iteration number is maximum!'" "next seed" "variable iteration delete" "jump TaR.in loop" elif "(${iteration} == ${iter_tot}) && (${seed} == 319)" "quit" else    "next iteration"    "jump TaR.in iteration"
next iteration
jump TaR.in iteration
variable           norm          equal     sqrt(${new_x}^2+${new_y}^2+${new_z}^2)
variable           norm          equal     sqrt(0.383983264907885^2+${new_y}^2+${new_z}^2)
variable           norm          equal     sqrt(0.383983264907885^2+0.197875294326043^2+${new_z}^2)
variable           norm          equal     sqrt(0.383983264907885^2+0.197875294326043^2+-0.249725699969101^2)
variable           unit_x        equal     ${new_x}/${norm}
variable           unit_x        equal     0.383983264907885/${norm}
variable           unit_x        equal     0.383983264907885/0.498959622674014
variable           unit_y        equal     ${new_y}/${norm}
variable           unit_y        equal     0.197875294326043/${norm}
variable           unit_y        equal     0.197875294326043/0.498959622674014
variable           unit_z        equal     ${new_z}/${norm}
variable           unit_z        equal     -0.249725699969101/${norm}
variable           unit_z        equal     -0.249725699969101/0.498959622674014
variable           x_new         equal     ${x0}+${delta}*${unit_x}
variable           x_new         equal     0.97844966784681+${delta}*${unit_x}
variable           x_new         equal     0.97844966784681+0.02*${unit_x}
variable           x_new         equal     0.97844966784681+0.02*0.769567811619806
variable           y_new         equal     ${y0}+${delta}*${unit_y}
variable           y_new         equal     -0.818237767838197+${delta}*${unit_y}
variable           y_new         equal     -0.818237767838197+0.02*${unit_y}
variable           y_new         equal     -0.818237767838197+0.02*0.396575765521053
variable           z_new         equal     ${z0}+${delta}*${unit_z}
variable           z_new         equal     -25.5617649762221+${delta}*${unit_z}
variable           z_new         equal     -25.5617649762221+0.02*${unit_z}
variable           z_new         equal     -25.5617649762221+0.02*-0.500492802665627

set                atom          $i    x  ${x_new}  y  ${y_new}  z   ${z_new}
set                atom          288751    x  ${x_new}  y  ${y_new}  z   ${z_new}
set                atom          288751    x  0.993841024079206  y  ${y_new}  z   ${z_new}
set                atom          288751    x  0.993841024079206  y  -0.810306252527776  z   ${z_new}
set                atom          288751    x  0.993841024079206  y  -0.810306252527776  z   -25.5717748322754
Setting atom values ...
  1 settings made for x
  1 settings made for y
  1 settings made for z

fix                hold    carbon   planeforce   ${new_x}  ${new_y}  ${new_z}
fix                hold    carbon   planeforce   0.383983264907885  ${new_y}  ${new_z}
fix                hold    carbon   planeforce   0.383983264907885  0.197875294326043  ${new_z}
fix                hold    carbon   planeforce   0.383983264907885  0.197875294326043  -0.249725699969101
min_style          cg
minimize           1.0e-30 1.0e-30 10000 10000
Per MPI rank memory allocation (min/avg/max) = 5.441 | 5.816 | 6.074 Mbytes
Step PotEng KinEng TotEng v_fx v_fy v_fz 
    4572   -1152449.3            0   -1152449.3 0.0057975431 0.00091957354  0.009643062 
    4915   -1152449.3            0   -1152449.3 5.5770887e-08 -2.4066254e-08 6.6685048e-08 
Loop time of 4.02177 on 104 procs for 343 steps with 288751 atoms

99.9% CPU use with 104 MPI tasks x 1 OpenMP threads

Minimization stats:
  Stopping criterion = energy tolerance
  Energy initial, next-to-last, final = 
     -1152449.31584113  -1152449.31669385  -1152449.31669385
  Force two-norm initial, final = 0.1223464 2.1047752e-07
  Force max component initial, final = 0.043798806 6.6685048e-08
  Final line search alpha, max atom move = 1.0000000 6.6685048e-08
  Iterations, force evaluations = 343 686

MPI task timing breakdown:
Section |  min time  |  avg time  |  max time  |%varavg| %total
---------------------------------------------------------------
Pair    | 1.0288     | 2.8894     | 3.7878     |  46.2 | 71.85
Neigh   | 0          | 0          | 0          |   0.0 |  0.00
Comm    | 0.056777   | 0.65492    | 1.9697     |  68.0 | 16.28
Output  | 0          | 0          | 0          |   0.0 |  0.00
Modify  | 4.1575e-05 | 0.0056581  | 0.012227   |   3.6 |  0.14
Other   |            | 0.4717     |            |       | 11.73

Nlocal:        2776.45 ave        3960 max           0 min
Histogram: 8 4 4 0 4 12 8 4 26 34
Nghost:        3879.12 ave        5424 max         232 min
Histogram: 8 0 8 0 16 0 8 8 16 40
Neighs:        79213.3 ave      115431 max           0 min
Histogram: 8 4 4 0 10 6 8 8 24 32

Total # of neighbors = 8238188
Ave neighs/atom = 28.530422
Neighbor list builds = 0
Dangerous builds = 0
unfix              hold

variable           new_x         delete
variable           new_y         delete
variable           new_z         delete
variable           dot           delete
variable           new_x         equal     ${x0}-${x_0}
variable           new_x         equal     0.99398694519264-${x_0}
variable           new_x         equal     0.99398694519264-0.594466402938925
variable           new_y         equal     ${y0}-${y_0}
variable           new_y         equal     -0.81030986920757-${y_0}
variable           new_y         equal     -0.81030986920757--1.01611306216424
variable           new_z         equal     ${z0}-${z_0}
variable           new_z         equal     -25.5715533267834-${z_0}
variable           new_z         equal     -25.5715533267834--25.312039276253

variable           dot      equal     ${fx}*${new_x}+${fy}*${new_y}+${fz}*${new_z}
variable           dot      equal     5.57708869350388e-08*${new_x}+${fy}*${new_y}+${fz}*${new_z}
variable           dot      equal     5.57708869350388e-08*0.399520542253715+${fy}*${new_y}+${fz}*${new_z}
variable           dot      equal     5.57708869350388e-08*0.399520542253715+-2.40662538776757e-08*${new_y}+${fz}*${new_z}
variable           dot      equal     5.57708869350388e-08*0.399520542253715+-2.40662538776757e-08*0.20580319295667+${fz}*${new_z}
variable           dot      equal     5.57708869350388e-08*0.399520542253715+-2.40662538776757e-08*0.20580319295667+6.66850477144059e-08*${new_z}
variable           dot      equal     5.57708869350388e-08*0.399520542253715+-2.40662538776757e-08*0.20580319295667+6.66850477144059e-08*-0.259514050530399
print              "The dot product: ${dot}"
The dot product: 2.29962575474334e-11

if "(${dot} >= 0.0) && (${dot} < 1.0e-10)" then "jump TaR.in relaxation" elif "(${dot} < 0.0) && (${dot} > -1.0e-10)" "jump TaR.in relaxation" elif "(${iteration} == ${iter_tot}) && (${seed} < 319)" "print 'The iteration number is maximum!'" "next seed" "variable iteration delete" "jump TaR.in loop" elif "(${iteration} == ${iter_tot}) && (${seed} == 319)" "quit" else    "next iteration"    "jump TaR.in iteration"
jump TaR.in relaxation
#full relaxation
min_style          cg
minimize           1.0e-30 1.0e-30 10000 10000
Per MPI rank memory allocation (min/avg/max) = 5.441 | 5.816 | 6.074 Mbytes
Step PotEng KinEng TotEng v_fx v_fy v_fz 
    4915   -1152449.3            0   -1152449.3  -0.38084967  -0.19626053   0.24768785 
    5000   -1152449.4            0   -1152449.4 -0.00017827738 7.957306e-05 -0.00041338803 
    5187   -1152449.4            0   -1152449.4 -2.7123475e-06 3.9411374e-06 -2.4080735e-06 
Loop time of 3.18725 on 104 procs for 272 steps with 288751 atoms

99.9% CPU use with 104 MPI tasks x 1 OpenMP threads

Minimization stats:
  Stopping criterion = linesearch alpha is zero
  Energy initial, next-to-last, final = 
     -1152449.31669385  -1152449.35157335  -1152449.35157335
  Force two-norm initial, final = 0.49488781 1.6288201e-05
  Force max component initial, final = 0.38084967 3.9411374e-06
  Final line search alpha, max atom move = 0.5 1.9705687e-06
  Iterations, force evaluations = 272 545

MPI task timing breakdown:
Section |  min time  |  avg time  |  max time  |%varavg| %total
---------------------------------------------------------------
Pair    | 0.82207    | 2.2888     | 2.9904     |  41.0 | 71.81
Neigh   | 1.0214e-05 | 0.0029461  | 0.0043143  |   2.2 |  0.09
Comm    | 0.045567   | 0.52004    | 1.567      |  59.9 | 16.32
Output  | 0.0002436  | 0.00024634 | 0.00041249 |   0.0 |  0.01
Modify  | 3.1467e-05 | 0.00293    | 0.0075677  |   3.4 |  0.09
Other   |            | 0.3723     |            |       | 11.68

Nlocal:        2776.45 ave        3960 max           0 min
Histogram: 8 4 4 0 4 12 8 4 26 34
Nghost:        3879.08 ave        5424 max         232 min
Histogram: 8 0 8 0 16 0 8 8 16 40
Neighs:        79213.4 ave      115431 max           0 min
Histogram: 8 4 4 0 10 6 8 8 24 32

Total # of neighbors = 8238191
Ave neighs/atom = 28.530433
Neighbor list builds = 1
Dangerous builds = 0
print              "${x0} ${y0} ${z0}" append info.dat screen no

if "${seed} < 319" then "next seed" "variable iteration delete" "jump TaR.in loop" else "quit"
quit
