LAMMPS (29 Oct 2020)
OMP_NUM_THREADS environment is not set. Defaulting to 1 thread. (../comm.cpp:94)
  using 1 OpenMP thread(s) per MPI task
Reading data file ...
  orthogonal box = (-122.39241 -121.13707 -37.090501) to (122.39241 121.13707 37.090501)
  13 by 4 by 1 MPI processor grid
  reading atoms ...
  288751 atoms
  read_data CPU = 0.423 seconds
199981 atoms in group inner
88770 atoms in group outer
1 atoms in group carbon
Neighbor list info ...
  update every 1 steps, delay 0 steps, check yes
  max neighbors/atom: 2000, page size: 100000
  master list distance cutoff = 5.6
  ghost atom cutoff = 5.6
  binsize = 2.8, bins = 88 87 27
  1 neighbor lists, perpetual/occasional/extra = 1 0 0
  (1) pair eam/alloy, perpetual
      attributes: half, newton on
      pair build: half/bin/atomonly/newton
      stencil: half/bin/3d/newton
      bin: standard
Setting up cg style minimization ...
  Unit style    : metal
  Current step  : 0
Per MPI rank memory allocation (min/avg/max) = 5.465 | 6.344 | 6.728 Mbytes
Step v_fx v_fy v_fz PotEng KinEng TotEng 
       0   -26.002209    15.392235    51.006619   -1152433.1            0   -1152433.1 
     173 4.5625248e-06 -6.4649085e-06 -2.7033651e-05   -1152449.5            0   -1152449.5 
Loop time of 3.77665 on 52 procs for 173 steps with 288751 atoms

99.8% CPU use with 52 MPI tasks x 1 OpenMP threads

Minimization stats:
  Stopping criterion = linesearch alpha is zero
  Energy initial, next-to-last, final = 
     -1152433.11735415   -1152449.4503526   -1152449.4503526
  Force two-norm initial, final = 88.764951 9.1327914e-05
  Force max component initial, final = 58.127754 2.7033651e-05
  Final line search alpha, max atom move = 0.5 1.3516825e-05
  Iterations, force evaluations = 173 338

MPI task timing breakdown:
Section |  min time  |  avg time  |  max time  |%varavg| %total
---------------------------------------------------------------
Pair    | 1.0091     | 2.7166     | 3.5573     |  44.6 | 71.93
Neigh   | 0.00010033 | 0.031861   | 0.048644   |   7.6 |  0.84
Comm    | 0.049461   | 0.60774    | 1.9107     |  69.2 | 16.09
Output  | 0          | 0          | 0          |   0.0 |  0.00
Modify  | 6.6839e-05 | 0.0037381  | 0.0094718  |   3.8 |  0.10
Other   |            | 0.4167     |            |       | 11.03

Nlocal:        5552.90 ave        7911 max           0 min
Histogram: 4 2 2 0 2 6 4 0 15 17
Nghost:        6213.54 ave        8769 max         412 min
Histogram: 4 0 4 0 8 0 4 5 7 20
Neighs:       158427.0 ave      230584 max           0 min
Histogram: 4 2 2 0 5 3 4 4 12 16

Total # of neighbors = 8238207
Ave neighs/atom = 28.530488
Neighbor list builds = 5
Dangerous builds = 0
-0.4 0.24 28.92 -0.582747297338092 1.02288096539167 29.4332010200965
Total wall time: 0:00:04
