LAMMPS (29 Oct 2020)
OMP_NUM_THREADS environment is not set. Defaulting to 1 thread. (../comm.cpp:94)
  using 1 OpenMP thread(s) per MPI task
OMP_NUM_THREADS environment is not set. Defaulting to 1 thread. (../comm.cpp:94)
  using 1 OpenMP thread(s) per MPI task
Reading data file ...
  orthogonal box = (-122.39241 -121.13707 -37.090501) to (122.39241 121.13707 37.090501)
  13 by 4 by 1 MPI processor grid
  reading atoms ...
  288751 atoms
  read_data CPU = 0.462 seconds
199981 atoms in group inner
88770 atoms in group outer
1 atoms in group carbon
Neighbor list info ...
  update every 1 steps, delay 0 steps, check yes
  max neighbors/atom: 2000, page size: 100000
  master list distance cutoff = 5.6
  ghost atom cutoff = 5.6
  binsize = 2.8, bins = 88 87 27
  1 neighbor lists, perpetual/occasional/extra = 1 0 0
  (1) pair eam/alloy, perpetual
      attributes: half, newton on
      pair build: half/bin/atomonly/newton
      stencil: half/bin/3d/newton
      bin: standard
Setting up cg style minimization ...
  Unit style    : metal
  Current step  : 0
Per MPI rank memory allocation (min/avg/max) = 5.465 | 6.344 | 6.728 Mbytes
Step v_fx v_fy v_fz PotEng KinEng TotEng 
       0  0.013031364   0.12453865  0.018421592   -1152444.6            0   -1152444.6 
     220 3.2217323e-05 5.4512504e-06 -2.4648712e-05     -1152449            0     -1152449 
Loop time of 4.86557 on 52 procs for 220 steps with 288751 atoms

99.8% CPU use with 52 MPI tasks x 1 OpenMP threads

Minimization stats:
  Stopping criterion = energy tolerance
  Energy initial, next-to-last, final = 
     -1152444.63020712  -1152448.97218889  -1152448.97218889
  Force two-norm initial, final = 23.793786 0.0002575046
  Force max component initial, final = 13.967385 5.5102206e-05
  Final line search alpha, max atom move = 1.0000000 5.5102206e-05
  Iterations, force evaluations = 220 437

MPI task timing breakdown:
Section |  min time  |  avg time  |  max time  |%varavg| %total
---------------------------------------------------------------
Pair    | 1.3212     | 3.5049     | 4.5769     |  50.3 | 72.04
Neigh   | 0.00017763 | 0.053364   | 0.081128   |   9.7 |  1.10
Comm    | 0.067051   | 0.779      | 2.4501     |  78.4 | 16.01
Output  | 0          | 0          | 0          |   0.0 |  0.00
Modify  | 7.0407e-05 | 0.0048042  | 0.012107   |   4.3 |  0.10
Other   |            | 0.5235     |            |       | 10.76

Nlocal:        5552.90 ave        7900 max           0 min
Histogram: 4 2 2 0 2 6 4 0 14 18
Nghost:        6213.65 ave        8768 max         412 min
Histogram: 4 0 4 0 8 0 4 5 7 20
Neighs:       158427.0 ave      230157 max           0 min
Histogram: 4 2 2 0 5 3 4 4 12 16

Total # of neighbors = 8238205
Ave neighs/atom = 28.530481
Neighbor list builds = 9
Dangerous builds = 0
Setting atom values ...
  1 settings made for x
  1 settings made for y
  1 settings made for z
Setting up cg style minimization ...
  Unit style    : metal
  Current step  : 220
Per MPI rank memory allocation (min/avg/max) = 5.465 | 6.344 | 6.728 Mbytes
Step PotEng KinEng TotEng v_fx v_fy v_fz 
     220     -1152449            0     -1152449 -0.0091991136 -0.0083336201 0.00030821552 
     507     -1152449            0     -1152449 -6.2595701e-05 -2.1287029e-05 6.9342904e-05 
Loop time of 6.3709 on 52 procs for 287 steps with 288751 atoms

99.9% CPU use with 52 MPI tasks x 1 OpenMP threads

Minimization stats:
  Stopping criterion = linesearch alpha is zero
  Energy initial, next-to-last, final = 
     -1152448.96783114  -1152448.97091063  -1152448.97091063
  Force two-norm initial, final = 0.2256819 0.00030725712
  Force max component initial, final = 0.10756391 8.7935990e-05
  Final line search alpha, max atom move = 0.125 1.0991999e-05
  Iterations, force evaluations = 287 579

MPI task timing breakdown:
Section |  min time  |  avg time  |  max time  |%varavg| %total
---------------------------------------------------------------
Pair    | 1.6352     | 4.6119     | 6.0974     |  59.9 | 72.39
Neigh   | 0          | 0          | 0          |   0.0 |  0.00
Comm    | 0.078731   | 1.0259     | 3.2245     |  90.8 | 16.10
Output  | 0          | 0          | 0          |   0.0 |  0.00
Modify  | 0.00013801 | 0.0096519  | 0.020657   |   4.6 |  0.15
Other   |            | 0.7235     |            |       | 11.36

Nlocal:        5552.90 ave        7900 max           0 min
Histogram: 4 2 2 0 2 6 4 0 14 18
Nghost:        6213.69 ave        8768 max         412 min
Histogram: 4 0 4 0 8 0 4 5 7 20
Neighs:       158427.0 ave      230172 max           0 min
Histogram: 4 2 2 0 5 3 4 4 12 16

Total # of neighbors = 8238205
Ave neighs/atom = 28.530481
Neighbor list builds = 0
Dangerous builds = 0
Setting atom values ...
  1 settings made for x
  1 settings made for y
  1 settings made for z
Setting up cg style minimization ...
  Unit style    : metal
  Current step  : 507
Per MPI rank memory allocation (min/avg/max) = 5.465 | 6.344 | 6.728 Mbytes
Step PotEng KinEng TotEng v_fx v_fy v_fz 
     507     -1152449            0     -1152449 0.0070070773  0.022021394   0.01139773 
     740     -1152449            0     -1152449 1.6560433e-06 -1.0384913e-06 -2.2126655e-06 
Loop time of 5.08516 on 52 procs for 233 steps with 288751 atoms

99.9% CPU use with 52 MPI tasks x 1 OpenMP threads

Minimization stats:
  Stopping criterion = linesearch alpha is zero
  Energy initial, next-to-last, final = 
     -1152448.96716434  -1152448.96906019  -1152448.96906019
  Force two-norm initial, final = 0.1582939 4.5818708e-05
  Force max component initial, final = 0.080458719 1.4600033e-05
  Final line search alpha, max atom move = 0.5 7.3000167e-06
  Iterations, force evaluations = 233 467

MPI task timing breakdown:
Section |  min time  |  avg time  |  max time  |%varavg| %total
---------------------------------------------------------------
Pair    | 1.3217     | 3.7141     | 4.8692     |  53.5 | 73.04
Neigh   | 0          | 0          | 0          |   0.0 |  0.00
Comm    | 0.063076   | 0.81739    | 2.5993     |  82.1 | 16.07
Output  | 0          | 0          | 0          |   0.0 |  0.00
Modify  | 9.0719e-05 | 0.007765   | 0.016466   |   4.1 |  0.15
Other   |            | 0.5459     |            |       | 10.73

Nlocal:        5552.90 ave        7900 max           0 min
Histogram: 4 2 2 0 2 6 4 0 14 18
Nghost:        6213.62 ave        8768 max         412 min
Histogram: 4 0 4 0 8 0 4 5 7 20
Neighs:       158427.0 ave      230177 max           0 min
Histogram: 4 2 2 0 5 3 4 4 12 16

Total # of neighbors = 8238200
Ave neighs/atom = 28.530464
Neighbor list builds = 0
Dangerous builds = 0
The dot product: -4.64018750303922e-08
Setting atom values ...
  1 settings made for x
  1 settings made for y
  1 settings made for z
Setting up cg style minimization ...
  Unit style    : metal
  Current step  : 740
Per MPI rank memory allocation (min/avg/max) = 5.465 | 6.344 | 6.728 Mbytes
Step PotEng KinEng TotEng v_fx v_fy v_fz 
     740     -1152449            0     -1152449  0.018743255  0.043284017 0.0059644853 
     902     -1152449            0     -1152449 5.8056694e-05 -1.233642e-06 -2.9407102e-05 
Loop time of 3.54529 on 52 procs for 162 steps with 288751 atoms

99.9% CPU use with 52 MPI tasks x 1 OpenMP threads

Minimization stats:
  Stopping criterion = energy tolerance
  Energy initial, next-to-last, final = 
     -1152448.96445585  -1152448.96700184  -1152448.96700184
  Force two-norm initial, final = 0.168385 0.00019894875
  Force max component initial, final = 0.09270602 5.8056694e-05
  Final line search alpha, max atom move = 1.0000000 5.8056694e-05
  Iterations, force evaluations = 162 324

MPI task timing breakdown:
Section |  min time  |  avg time  |  max time  |%varavg| %total
---------------------------------------------------------------
Pair    | 0.91436    | 2.5868     | 3.4041     |  44.9 | 72.97
Neigh   | 0          | 0          | 0          |   0.0 |  0.00
Comm    | 0.042263   | 0.57243    | 1.8078     |  68.7 | 16.15
Output  | 0          | 0          | 0          |   0.0 |  0.00
Modify  | 5.876e-05  | 0.0054024  | 0.011444   |   3.4 |  0.15
Other   |            | 0.3806     |            |       | 10.74

Nlocal:        5552.90 ave        7900 max           0 min
Histogram: 4 2 2 0 2 6 4 0 14 18
Nghost:        6213.69 ave        8769 max         412 min
Histogram: 4 0 4 0 8 0 4 5 7 20
Neighs:       158427.0 ave      230178 max           0 min
Histogram: 4 2 2 0 5 3 4 4 12 16

Total # of neighbors = 8238204
Ave neighs/atom = 28.530478
Neighbor list builds = 0
Dangerous builds = 0
The dot product: -1.96366566977331e-06
Setting atom values ...
  1 settings made for x
  1 settings made for y
  1 settings made for z
Setting up cg style minimization ...
  Unit style    : metal
  Current step  : 902
Per MPI rank memory allocation (min/avg/max) = 5.465 | 6.344 | 6.728 Mbytes
Step PotEng KinEng TotEng v_fx v_fy v_fz 
     902     -1152449            0     -1152449  0.022781229  0.047746151 0.0024992284 
    1000     -1152449            0     -1152449 -0.00024115621 9.9916624e-07 1.9988393e-05 
    1060     -1152449            0     -1152449 2.4315065e-05 -5.0268121e-07 -2.0522322e-06 
Loop time of 3.45706 on 52 procs for 158 steps with 288751 atoms

99.9% CPU use with 52 MPI tasks x 1 OpenMP threads

Minimization stats:
  Stopping criterion = linesearch alpha is zero
  Energy initial, next-to-last, final = 
     -1152448.96250536  -1152448.96547645  -1152448.96547645
  Force two-norm initial, final = 0.18938452 0.00010433938
  Force max component initial, final = 0.086075666 2.4315065e-05
  Final line search alpha, max atom move = 0.5 1.2157533e-05
  Iterations, force evaluations = 158 317

MPI task timing breakdown:
Section |  min time  |  avg time  |  max time  |%varavg| %total
---------------------------------------------------------------
Pair    | 0.9001     | 2.5216     | 3.3125     |  44.0 | 72.94
Neigh   | 0          | 0          | 0          |   0.0 |  0.00
Comm    | 0.04293    | 0.55676    | 1.7632     |  67.5 | 16.11
Output  | 0.00020484 | 0.00020966 | 0.00038628 |   0.0 |  0.01
Modify  | 6.133e-05  | 0.0053114  | 0.01128    |   3.4 |  0.15
Other   |            | 0.3732     |            |       | 10.79

Nlocal:        5552.90 ave        7902 max           0 min
Histogram: 4 2 2 0 2 6 4 0 15 17
Nghost:        6213.69 ave        8769 max         412 min
Histogram: 4 0 4 0 8 0 4 5 7 20
Neighs:       158427.0 ave      230282 max           0 min
Histogram: 4 2 2 0 5 3 4 4 12 16

Total # of neighbors = 8238211
Ave neighs/atom = 28.530502
Neighbor list builds = 0
Dangerous builds = 0
The dot product: -5.40346739522252e-07
Setting atom values ...
  1 settings made for x
  1 settings made for y
  1 settings made for z
Setting up cg style minimization ...
  Unit style    : metal
  Current step  : 1060
Per MPI rank memory allocation (min/avg/max) = 5.465 | 6.344 | 6.728 Mbytes
Step PotEng KinEng TotEng v_fx v_fy v_fz 
    1060     -1152449            0     -1152449  0.042350595  0.037743941 0.0056382364 
    1232     -1152449            0     -1152449 4.1551584e-05  2.06546e-06 5.4945149e-06 
Loop time of 3.73943 on 52 procs for 172 steps with 288751 atoms

99.9% CPU use with 52 MPI tasks x 1 OpenMP threads

Minimization stats:
  Stopping criterion = energy tolerance
  Energy initial, next-to-last, final = 
     -1152448.96089497  -1152448.96415555  -1152448.96415555
  Force two-norm initial, final = 0.20453162 0.00035548256
  Force max component initial, final = 0.097736236 0.00012030066
  Final line search alpha, max atom move = 1.0000000 0.00012030066
  Iterations, force evaluations = 172 344

MPI task timing breakdown:
Section |  min time  |  avg time  |  max time  |%varavg| %total
---------------------------------------------------------------
Pair    | 0.97155    | 2.7379     | 3.5937     |  46.0 | 73.22
Neigh   | 0          | 0          | 0          |   0.0 |  0.00
Comm    | 0.04508    | 0.60164    | 1.9118     |  70.7 | 16.09
Output  | 0          | 0          | 0          |   0.0 |  0.00
Modify  | 5.9427e-05 | 0.0057961  | 0.012255   |   3.5 |  0.16
Other   |            | 0.3941     |            |       | 10.54

Nlocal:        5552.90 ave        7902 max           0 min
Histogram: 4 2 2 0 2 6 4 0 15 17
Nghost:        6213.69 ave        8769 max         412 min
Histogram: 4 0 4 0 8 0 4 5 7 20
Neighs:       158427.0 ave      230267 max           0 min
Histogram: 4 2 2 0 5 3 4 4 12 16

Total # of neighbors = 8238213
Ave neighs/atom = 28.530509
Neighbor list builds = 0
Dangerous builds = 0
The dot product: -5.72662013113517e-07
Setting atom values ...
  1 settings made for x
  1 settings made for y
  1 settings made for z
Setting up cg style minimization ...
  Unit style    : metal
  Current step  : 1232
Per MPI rank memory allocation (min/avg/max) = 5.465 | 6.344 | 6.728 Mbytes
Step PotEng KinEng TotEng v_fx v_fy v_fz 
    1232     -1152449            0     -1152449   0.05283559  0.031849685   0.01241512 
    1382     -1152449            0     -1152449 -7.6313884e-06 5.9203322e-07 -1.9011333e-06 
Loop time of 3.26029 on 52 procs for 150 steps with 288751 atoms

99.9% CPU use with 52 MPI tasks x 1 OpenMP threads

Minimization stats:
  Stopping criterion = energy tolerance
  Energy initial, next-to-last, final = 
     -1152448.95999191  -1152448.96252045  -1152448.96252045
  Force two-norm initial, final = 0.21467408 0.00017921069
  Force max component initial, final = 0.10929427 2.1525147e-05
  Final line search alpha, max atom move = 1.0000000 2.1525147e-05
  Iterations, force evaluations = 150 300

MPI task timing breakdown:
Section |  min time  |  avg time  |  max time  |%varavg| %total
---------------------------------------------------------------
Pair    | 0.84731    | 2.3837     | 3.1305     |  42.9 | 73.11
Neigh   | 0          | 0          | 0          |   0.0 |  0.00
Comm    | 0.039027   | 0.52375    | 1.66       |  65.9 | 16.06
Output  | 0          | 0          | 0          |   0.0 |  0.00
Modify  | 5.2641e-05 | 0.0049931  | 0.010538   |   3.3 |  0.15
Other   |            | 0.3479     |            |       | 10.67

Nlocal:        5552.90 ave        7904 max           0 min
Histogram: 4 2 2 0 2 6 4 0 15 17
Nghost:        6213.54 ave        8769 max         412 min
Histogram: 4 0 4 0 8 0 4 5 7 20
Neighs:       158427.0 ave      230328 max           0 min
Histogram: 4 2 2 0 5 3 4 4 12 16

Total # of neighbors = 8238213
Ave neighs/atom = 28.530509
Neighbor list builds = 0
Dangerous builds = 0
The dot product: -8.61740749980381e-09
Setting atom values ...
  1 settings made for x
  1 settings made for y
  1 settings made for z
Setting up cg style minimization ...
  Unit style    : metal
  Current step  : 1382
Per MPI rank memory allocation (min/avg/max) = 5.465 | 6.344 | 6.728 Mbytes
Step PotEng KinEng TotEng v_fx v_fy v_fz 
    1382     -1152449            0     -1152449  0.063500344  0.033429479  0.013981259 
    1547     -1152449            0     -1152449 1.9745734e-05 1.1985915e-06 4.6656903e-06 
Loop time of 3.60711 on 52 procs for 165 steps with 288751 atoms

99.9% CPU use with 52 MPI tasks x 1 OpenMP threads

Minimization stats:
  Stopping criterion = energy tolerance
  Energy initial, next-to-last, final = 
     -1152448.95774675  -1152448.96022002  -1152448.96022002
  Force two-norm initial, final = 0.21705286 0.00028894156
  Force max component initial, final = 0.10935308 6.4832276e-05
  Final line search alpha, max atom move = 1.0000000 6.4832276e-05
  Iterations, force evaluations = 165 330

MPI task timing breakdown:
Section |  min time  |  avg time  |  max time  |%varavg| %total
---------------------------------------------------------------
Pair    | 0.93031    | 2.6285     | 3.4669     |  45.1 | 72.87
Neigh   | 0          | 0          | 0          |   0.0 |  0.00
Comm    | 0.042883   | 0.58125    | 1.8371     |  68.8 | 16.11
Output  | 0          | 0          | 0          |   0.0 |  0.00
Modify  | 5.8469e-05 | 0.005512   | 0.011725   |   3.5 |  0.15
Other   |            | 0.3919     |            |       | 10.86

Nlocal:        5552.90 ave        7905 max           0 min
Histogram: 4 2 2 0 2 6 4 0 15 17
Nghost:        6213.62 ave        8769 max         412 min
Histogram: 4 0 4 0 8 0 4 5 7 20
Neighs:       158427.0 ave      230373 max           0 min
Histogram: 4 2 2 0 5 3 4 4 12 16

Total # of neighbors = 8238210
Ave neighs/atom = 28.530499
Neighbor list builds = 0
Dangerous builds = 0
The dot product: 1.00773452385541e-07
Setting atom values ...
  1 settings made for x
  1 settings made for y
  1 settings made for z
Setting up cg style minimization ...
  Unit style    : metal
  Current step  : 1547
Per MPI rank memory allocation (min/avg/max) = 5.465 | 6.344 | 6.728 Mbytes
Step PotEng KinEng TotEng v_fx v_fy v_fz 
    1547     -1152449            0     -1152449  0.070238875  0.035517807  0.012868284 
    1781     -1152449            0     -1152449 6.6285315e-06 6.5110199e-07 1.3439406e-06 
Loop time of 5.10947 on 52 procs for 234 steps with 288751 atoms

99.9% CPU use with 52 MPI tasks x 1 OpenMP threads

Minimization stats:
  Stopping criterion = energy tolerance
  Energy initial, next-to-last, final = 
     -1152448.95491111  -1152448.95751226  -1152448.95751226
  Force two-norm initial, final = 0.21694731 2.9297409e-05
  Force max component initial, final = 0.10712441 9.6714135e-06
  Final line search alpha, max atom move = 1.0000000 9.6714135e-06
  Iterations, force evaluations = 234 468

MPI task timing breakdown:
Section |  min time  |  avg time  |  max time  |%varavg| %total
---------------------------------------------------------------
Pair    | 1.3295     | 3.7256     | 4.8853     |  53.4 | 72.91
Neigh   | 0          | 0          | 0          |   0.0 |  0.00
Comm    | 0.061033   | 0.81638    | 2.6021     |  82.5 | 15.98
Output  | 0          | 0          | 0          |   0.0 |  0.00
Modify  | 9.0428e-05 | 0.0078169  | 0.016827   |   4.1 |  0.15
Other   |            | 0.5597     |            |       | 10.95

Nlocal:        5552.90 ave        7906 max           0 min
Histogram: 4 2 2 0 2 6 4 0 15 17
Nghost:        6213.62 ave        8769 max         412 min
Histogram: 4 0 4 0 8 0 4 5 7 20
Neighs:       158427.0 ave      230415 max           0 min
Histogram: 4 2 2 0 5 3 4 4 12 16

Total # of neighbors = 8238205
Ave neighs/atom = 28.530481
Neighbor list builds = 0
Dangerous builds = 0
The dot product: 3.12678824622349e-08
Setting atom values ...
  1 settings made for x
  1 settings made for y
  1 settings made for z
Setting up cg style minimization ...
  Unit style    : metal
  Current step  : 1781
Per MPI rank memory allocation (min/avg/max) = 5.465 | 6.344 | 6.728 Mbytes
Step PotEng KinEng TotEng v_fx v_fy v_fz 
    1781     -1152449            0     -1152449  0.073347029  0.037262162  0.011127659 
    1955     -1152449            0     -1152449 -2.2185138e-05 -1.9167683e-06 -3.9363526e-06 
Loop time of 3.84079 on 52 procs for 174 steps with 288751 atoms

99.9% CPU use with 52 MPI tasks x 1 OpenMP threads

Minimization stats:
  Stopping criterion = energy tolerance
  Energy initial, next-to-last, final = 
     -1152448.95185053  -1152448.95413407  -1152448.95413407
  Force two-norm initial, final = 0.21607789 0.00018704179
  Force max component initial, final = 0.10495059 5.2540349e-05
  Final line search alpha, max atom move = 1.0000000 5.2540349e-05
  Iterations, force evaluations = 174 348

MPI task timing breakdown:
Section |  min time  |  avg time  |  max time  |%varavg| %total
---------------------------------------------------------------
Pair    | 0.98495    | 2.7826     | 3.6866     |  46.7 | 72.45
Neigh   | 0          | 0          | 0          |   0.0 |  0.00
Comm    | 0.046921   | 0.62125    | 1.952      |  70.1 | 16.18
Output  | 0          | 0          | 0          |   0.0 |  0.00
Modify  | 6.0446e-05 | 0.0058127  | 0.012438   |   3.6 |  0.15
Other   |            | 0.4311     |            |       | 11.22

Nlocal:        5552.90 ave        7906 max           0 min
Histogram: 4 2 2 0 2 6 4 0 15 17
Nghost:        6213.62 ave        8769 max         412 min
Histogram: 4 0 4 0 8 0 4 5 7 20
Neighs:       158427.0 ave      230410 max           0 min
Histogram: 4 2 2 0 5 3 4 4 12 16

Total # of neighbors = 8238204
Ave neighs/atom = 28.530478
Neighbor list builds = 0
Dangerous builds = 0
The dot product: -1.51066812301897e-07
Setting atom values ...
  1 settings made for x
  1 settings made for y
  1 settings made for z
Setting up cg style minimization ...
  Unit style    : metal
  Current step  : 1955
Per MPI rank memory allocation (min/avg/max) = 5.465 | 6.344 | 6.728 Mbytes
Step PotEng KinEng TotEng v_fx v_fy v_fz 
    1955   -1152448.9            0   -1152448.9  0.078363881  0.039151722 0.0088375096 
    2000   -1152448.9            0   -1152448.9 -0.00036560734 -5.2745232e-05 -5.094981e-05 
    2138   -1152448.9            0   -1152448.9 3.3053178e-05 4.6437327e-06 4.6155126e-06 
Loop time of 3.98585 on 52 procs for 183 steps with 288751 atoms

99.9% CPU use with 52 MPI tasks x 1 OpenMP threads

Minimization stats:
  Stopping criterion = linesearch alpha is zero
  Energy initial, next-to-last, final = 
     -1152448.94773594  -1152448.94996707  -1152448.94996707
  Force two-norm initial, final = 0.21505417 0.00013159007
  Force max component initial, final = 0.10166711 4.4751068e-05
  Final line search alpha, max atom move = 0.5 2.2375534e-05
  Iterations, force evaluations = 183 367

MPI task timing breakdown:
Section |  min time  |  avg time  |  max time  |%varavg| %total
---------------------------------------------------------------
Pair    | 1.0383     | 2.9231     | 3.8296     |  47.5 | 73.34
Neigh   | 0          | 0          | 0          |   0.0 |  0.00
Comm    | 0.047583   | 0.64013    | 2.0518     |  73.3 | 16.06
Output  | 0.00012145 | 0.00012521 | 0.00026304 |   0.0 |  0.00
Modify  | 7.1962e-05 | 0.0061203  | 0.013026   |   3.7 |  0.15
Other   |            | 0.4163     |            |       | 10.45

Nlocal:        5552.90 ave        7906 max           0 min
Histogram: 4 2 2 0 2 6 4 0 15 17
Nghost:        6213.62 ave        8769 max         412 min
Histogram: 4 0 4 0 8 0 4 5 7 20
Neighs:       158427.0 ave      230420 max           0 min
Histogram: 4 2 2 0 5 3 4 4 12 16

Total # of neighbors = 8238201
Ave neighs/atom = 28.530467
Neighbor list builds = 0
Dangerous builds = 0
The dot product: 2.74421868193539e-07
Setting atom values ...
  1 settings made for x
  1 settings made for y
  1 settings made for z
Setting up cg style minimization ...
  Unit style    : metal
  Current step  : 2138
Per MPI rank memory allocation (min/avg/max) = 5.465 | 6.344 | 6.728 Mbytes
Step PotEng KinEng TotEng v_fx v_fy v_fz 
    2138   -1152448.9            0   -1152448.9  0.082442763  0.040212866 0.0059285905 
    2321   -1152448.9            0   -1152448.9 2.5577591e-05 4.1334226e-06 2.569739e-06 
Loop time of 4.01879 on 52 procs for 183 steps with 288751 atoms

99.9% CPU use with 52 MPI tasks x 1 OpenMP threads

Minimization stats:
  Stopping criterion = linesearch alpha is zero
  Energy initial, next-to-last, final = 
      -1152448.9428738  -1152448.94506331  -1152448.94506331
  Force two-norm initial, final = 0.21338885 0.00012119566
  Force max component initial, final = 0.097644408 3.5503664e-05
  Final line search alpha, max atom move = 0.5 1.7751832e-05
  Iterations, force evaluations = 183 367

MPI task timing breakdown:
Section |  min time  |  avg time  |  max time  |%varavg| %total
---------------------------------------------------------------
Pair    | 1.0362     | 2.9236     | 3.8568     |  47.7 | 72.75
Neigh   | 0          | 0          | 0          |   0.0 |  0.00
Comm    | 0.048149   | 0.64619    | 2.0413     |  72.8 | 16.08
Output  | 0          | 0          | 0          |   0.0 |  0.00
Modify  | 6.5209e-05 | 0.0061173  | 0.013039   |   3.6 |  0.15
Other   |            | 0.4428     |            |       | 11.02

Nlocal:        5552.90 ave        7907 max           0 min
Histogram: 4 2 2 0 2 6 4 0 15 17
Nghost:        6213.65 ave        8769 max         412 min
Histogram: 4 0 4 0 8 0 4 5 7 20
Neighs:       158427.0 ave      230467 max           0 min
Histogram: 4 2 2 0 5 3 4 4 12 16

Total # of neighbors = 8238208
Ave neighs/atom = 28.530492
Neighbor list builds = 0
Dangerous builds = 0
The dot product: 2.20668326415988e-07
Setting atom values ...
  1 settings made for x
  1 settings made for y
  1 settings made for z
Setting up cg style minimization ...
  Unit style    : metal
  Current step  : 2321
Per MPI rank memory allocation (min/avg/max) = 5.465 | 6.344 | 6.728 Mbytes
Step PotEng KinEng TotEng v_fx v_fy v_fz 
    2321   -1152448.9            0   -1152448.9    0.0845439  0.041016951 0.0027532827 
    2486   -1152448.9            0   -1152448.9 3.1550607e-05 5.8015761e-06 1.9788602e-06 
Loop time of 3.62469 on 52 procs for 165 steps with 288751 atoms

99.9% CPU use with 52 MPI tasks x 1 OpenMP threads

Minimization stats:
  Stopping criterion = linesearch alpha is zero
  Energy initial, next-to-last, final = 
     -1152448.93729182  -1152448.93936325  -1152448.93936325
  Force two-norm initial, final = 0.21113813 0.0001774887
  Force max component initial, final = 0.093306363 3.6394233e-05
  Final line search alpha, max atom move = 0.25 9.0985582e-06
  Iterations, force evaluations = 165 333

MPI task timing breakdown:
Section |  min time  |  avg time  |  max time  |%varavg| %total
---------------------------------------------------------------
Pair    | 0.94131    | 2.645      | 3.4833     |  45.2 | 72.97
Neigh   | 0          | 0          | 0          |   0.0 |  0.00
Comm    | 0.043096   | 0.58438    | 1.8502     |  69.2 | 16.12
Output  | 0          | 0          | 0          |   0.0 |  0.00
Modify  | 6.1922e-05 | 0.0055497  | 0.011687   |   3.5 |  0.15
Other   |            | 0.3898     |            |       | 10.75

Nlocal:        5552.90 ave        7908 max           0 min
Histogram: 4 2 2 0 2 6 4 0 15 17
Nghost:        6213.65 ave        8769 max         412 min
Histogram: 4 0 4 0 8 0 4 5 7 20
Neighs:       158427.0 ave      230505 max           0 min
Histogram: 4 2 2 0 5 3 4 4 12 16

Total # of neighbors = 8238202
Ave neighs/atom = 28.530471
Neighbor list builds = 0
Dangerous builds = 0
The dot product: 2.40903138637177e-07
Setting atom values ...
  1 settings made for x
  1 settings made for y
  1 settings made for z
Setting up cg style minimization ...
  Unit style    : metal
  Current step  : 2486
Per MPI rank memory allocation (min/avg/max) = 5.465 | 6.344 | 6.728 Mbytes
Step PotEng KinEng TotEng v_fx v_fy v_fz 
    2486   -1152448.9            0   -1152448.9  0.084271021  0.041998681 -0.00018589054 
    2648   -1152448.9            0   -1152448.9 7.4449243e-08 -4.3733151e-07 5.3972067e-08 
Loop time of 3.56895 on 52 procs for 162 steps with 288751 atoms

99.9% CPU use with 52 MPI tasks x 1 OpenMP threads

Minimization stats:
  Stopping criterion = energy tolerance
  Energy initial, next-to-last, final = 
     -1152448.93083697  -1152448.93281855  -1152448.93281855
  Force two-norm initial, final = 0.20880551 0.00015052454
  Force max component initial, final = 0.089561771 5.6935577e-06
  Final line search alpha, max atom move = 1.0000000 5.6935577e-06
  Iterations, force evaluations = 162 326

MPI task timing breakdown:
Section |  min time  |  avg time  |  max time  |%varavg| %total
---------------------------------------------------------------
Pair    | 0.92278    | 2.6017     | 3.4204     |  44.9 | 72.90
Neigh   | 0          | 0          | 0          |   0.0 |  0.00
Comm    | 0.042652   | 0.57435    | 1.8193     |  68.7 | 16.09
Output  | 0          | 0          | 0          |   0.0 |  0.00
Modify  | 6.1606e-05 | 0.0054449  | 0.011503   |   3.4 |  0.15
Other   |            | 0.3875     |            |       | 10.86

Nlocal:        5552.90 ave        7909 max           0 min
Histogram: 4 2 2 0 2 6 4 0 15 17
Nghost:        6213.62 ave        8769 max         412 min
Histogram: 4 0 4 0 8 0 4 5 7 20
Neighs:       158427.0 ave      230552 max           0 min
Histogram: 4 2 2 0 5 3 4 4 12 16

Total # of neighbors = 8238200
Ave neighs/atom = 28.530464
Neighbor list builds = 0
Dangerous builds = 0
The dot product: -1.38812888773202e-09
Setting atom values ...
  1 settings made for x
  1 settings made for y
  1 settings made for z
Setting up cg style minimization ...
  Unit style    : metal
  Current step  : 2648
Per MPI rank memory allocation (min/avg/max) = 5.465 | 6.344 | 6.728 Mbytes
Step PotEng KinEng TotEng v_fx v_fy v_fz 
    2648   -1152448.9            0   -1152448.9  0.083430812   0.03618707 -0.0019212497 
    2856   -1152448.9            0   -1152448.9 -1.4278677e-05 -2.7285276e-06 -1.1825512e-07 
Loop time of 4.53716 on 52 procs for 208 steps with 288751 atoms

99.9% CPU use with 52 MPI tasks x 1 OpenMP threads

Minimization stats:
  Stopping criterion = linesearch alpha is zero
  Energy initial, next-to-last, final = 
     -1152448.92338386  -1152448.92527598  -1152448.92527598
  Force two-norm initial, final = 0.20505931 5.8776445e-05
  Force max component initial, final = 0.086172194 1.8397487e-05
  Final line search alpha, max atom move = 0.5 9.1987435e-06
  Iterations, force evaluations = 208 417

MPI task timing breakdown:
Section |  min time  |  avg time  |  max time  |%varavg| %total
---------------------------------------------------------------
Pair    | 1.1819     | 3.315      | 4.3556     |  50.5 | 73.06
Neigh   | 0          | 0          | 0          |   0.0 |  0.00
Comm    | 0.05615    | 0.72889    | 2.3126     |  77.7 | 16.06
Output  | 0          | 0          | 0          |   0.0 |  0.00
Modify  | 7.1463e-05 | 0.006961   | 0.014724   |   3.9 |  0.15
Other   |            | 0.4863     |            |       | 10.72

Nlocal:        5552.90 ave        7909 max           0 min
Histogram: 4 2 2 0 2 6 4 0 15 17
Nghost:        6213.65 ave        8769 max         412 min
Histogram: 4 0 4 0 8 0 4 5 7 20
Neighs:       158427.0 ave      230558 max           0 min
Histogram: 4 2 2 0 5 3 4 4 12 16

Total # of neighbors = 8238199
Ave neighs/atom = 28.530461
Neighbor list builds = 0
Dangerous builds = 0
The dot product: -8.50226058741023e-08
Setting atom values ...
  1 settings made for x
  1 settings made for y
  1 settings made for z
Setting up cg style minimization ...
  Unit style    : metal
  Current step  : 2856
Per MPI rank memory allocation (min/avg/max) = 5.465 | 6.344 | 6.728 Mbytes
Step PotEng KinEng TotEng v_fx v_fy v_fz 
    2856   -1152448.9            0   -1152448.9  0.082740781  0.026221311 -0.0023840335 
    3000   -1152448.9            0   -1152448.9 2.9409121e-07 -1.4192884e-06 2.0064883e-07 
    3020   -1152448.9            0   -1152448.9 6.9317021e-06 6.0972349e-07 1.9699202e-08 
Loop time of 3.59764 on 52 procs for 164 steps with 288751 atoms

99.9% CPU use with 52 MPI tasks x 1 OpenMP threads

Minimization stats:
  Stopping criterion = energy tolerance
  Energy initial, next-to-last, final = 
     -1152448.91461838  -1152448.91648885  -1152448.91648885
  Force two-norm initial, final = 0.20203335 0.0001475803
  Force max component initial, final = 0.083873256 8.7173029e-06
  Final line search alpha, max atom move = 1.0000000 8.7173029e-06
  Iterations, force evaluations = 164 328

MPI task timing breakdown:
Section |  min time  |  avg time  |  max time  |%varavg| %total
---------------------------------------------------------------
Pair    | 0.92739    | 2.6114     | 3.4436     |  45.0 | 72.59
Neigh   | 0          | 0          | 0          |   0.0 |  0.00
Comm    | 0.044884   | 0.57983    | 1.8234     |  68.3 | 16.12
Output  | 0.00021    | 0.00021546 | 0.00039015 |   0.0 |  0.01
Modify  | 6.1724e-05 | 0.0054936  | 0.011729   |   3.4 |  0.15
Other   |            | 0.4007     |            |       | 11.14

Nlocal:        5552.90 ave        7909 max           0 min
Histogram: 4 2 2 0 2 6 4 0 15 17
Nghost:        6213.65 ave        8769 max         412 min
Histogram: 4 0 4 0 8 0 4 5 7 20
Neighs:       158427.0 ave      230561 max           0 min
Histogram: 4 2 2 0 5 3 4 4 12 16

Total # of neighbors = 8238198
Ave neighs/atom = 28.530457
Neighbor list builds = 0
Dangerous builds = 0
The dot product: 3.36790744974119e-08
Setting atom values ...
  1 settings made for x
  1 settings made for y
  1 settings made for z
Setting up cg style minimization ...
  Unit style    : metal
  Current step  : 3020
Per MPI rank memory allocation (min/avg/max) = 5.465 | 6.344 | 6.728 Mbytes
Step PotEng KinEng TotEng v_fx v_fy v_fz 
    3020   -1152448.9            0   -1152448.9  0.082406237  0.020524434 -0.0028844529 
    3171   -1152448.9            0   -1152448.9 7.1333442e-05 1.2987737e-05 -1.8218322e-06 
Loop time of 3.31912 on 52 procs for 151 steps with 288751 atoms

99.9% CPU use with 52 MPI tasks x 1 OpenMP threads

Minimization stats:
  Stopping criterion = energy tolerance
  Energy initial, next-to-last, final = 
     -1152448.90448405  -1152448.90634779  -1152448.90634779
  Force two-norm initial, final = 0.20049771 0.00023669608
  Force max component initial, final = 0.082524956 7.8523987e-05
  Final line search alpha, max atom move = 1.0000000 7.8523987e-05
  Iterations, force evaluations = 151 302

MPI task timing breakdown:
Section |  min time  |  avg time  |  max time  |%varavg| %total
---------------------------------------------------------------
Pair    | 0.87054    | 2.4075     | 3.1579     |  42.8 | 72.53
Neigh   | 0          | 0          | 0          |   0.0 |  0.00
Comm    | 0.051085   | 0.53443    | 1.6813     |  65.5 | 16.10
Output  | 0          | 0          | 0          |   0.0 |  0.00
Modify  | 5.6465e-05 | 0.0050588  | 0.01078    |   3.3 |  0.15
Other   |            | 0.3721     |            |       | 11.21

Nlocal:        5552.90 ave        7909 max           0 min
Histogram: 4 2 2 0 2 6 4 0 15 17
Nghost:        6213.62 ave        8769 max         412 min
Histogram: 4 0 4 0 8 0 4 5 7 20
Neighs:       158427.0 ave      230562 max           0 min
Histogram: 4 2 2 0 5 3 4 4 12 16

Total # of neighbors = 8238198
Ave neighs/atom = 28.530457
Neighbor list builds = 0
Dangerous builds = 0
The dot product: 2.9795829991986e-07
Setting atom values ...
  1 settings made for x
  1 settings made for y
  1 settings made for z
Setting up cg style minimization ...
  Unit style    : metal
  Current step  : 3171
Per MPI rank memory allocation (min/avg/max) = 5.465 | 6.344 | 6.728 Mbytes
Step PotEng KinEng TotEng v_fx v_fy v_fz 
    3171   -1152448.9            0   -1152448.9  0.082009307  0.017083552 -0.0034008063 
    3318   -1152448.9            0   -1152448.9 6.2155888e-05 1.2406788e-05 -2.5010387e-06 
Loop time of 3.23889 on 52 procs for 147 steps with 288751 atoms

99.9% CPU use with 52 MPI tasks x 1 OpenMP threads

Minimization stats:
  Stopping criterion = energy tolerance
  Energy initial, next-to-last, final = 
     -1152448.89298715  -1152448.89485892  -1152448.89485892
  Force two-norm initial, final = 0.19957544 0.00031015355
  Force max component initial, final = 0.08414505 6.2155888e-05
  Final line search alpha, max atom move = 1.0000000 6.2155888e-05
  Iterations, force evaluations = 147 294

MPI task timing breakdown:
Section |  min time  |  avg time  |  max time  |%varavg| %total
---------------------------------------------------------------
Pair    | 0.83342    | 2.3497     | 3.1143     |  42.9 | 72.55
Neigh   | 0          | 0          | 0          |   0.0 |  0.00
Comm    | 0.037785   | 0.52423    | 1.6428     |  64.4 | 16.19
Output  | 0          | 0          | 0          |   0.0 |  0.00
Modify  | 5.0971e-05 | 0.0049288  | 0.010666   |   3.3 |  0.15
Other   |            | 0.36       |            |       | 11.11

Nlocal:        5552.90 ave        7910 max           0 min
Histogram: 4 2 2 0 2 6 4 0 15 17
Nghost:        6213.60 ave        8769 max         412 min
Histogram: 4 0 4 0 8 0 4 5 7 20
Neighs:       158427.0 ave      230589 max           0 min
Histogram: 4 2 2 0 5 3 4 4 12 16

Total # of neighbors = 8238200
Ave neighs/atom = 28.530464
Neighbor list builds = 0
Dangerous builds = 0
The dot product: 1.86720590896262e-07
Setting atom values ...
  1 settings made for x
  1 settings made for y
  1 settings made for z
Setting up cg style minimization ...
  Unit style    : metal
  Current step  : 3318
Per MPI rank memory allocation (min/avg/max) = 5.465 | 6.344 | 6.728 Mbytes
Step PotEng KinEng TotEng v_fx v_fy v_fz 
    3318   -1152448.9            0   -1152448.9  0.080568094  0.014552143 -0.0036964654 
    3499   -1152448.9            0   -1152448.9 -7.3540156e-05 -1.3225037e-05 3.3659218e-06 
Loop time of 3.98865 on 52 procs for 181 steps with 288751 atoms

99.9% CPU use with 52 MPI tasks x 1 OpenMP threads

Minimization stats:
  Stopping criterion = linesearch alpha is zero
  Energy initial, next-to-last, final = 
     -1152448.88017876  -1152448.88214733  -1152448.88214733
  Force two-norm initial, final = 0.19868594 0.00023614644
  Force max component initial, final = 0.085574626 7.3540156e-05
  Final line search alpha, max atom move = 0.125 9.1925196e-06
  Iterations, force evaluations = 181 367

MPI task timing breakdown:
Section |  min time  |  avg time  |  max time  |%varavg| %total
---------------------------------------------------------------
Pair    | 1.0411     | 2.9195     | 3.8324     |  47.3 | 73.20
Neigh   | 0          | 0          | 0          |   0.0 |  0.00
Comm    | 0.047543   | 0.63962    | 2.0415     |  72.9 | 16.04
Output  | 0          | 0          | 0          |   0.0 |  0.00
Modify  | 6.926e-05  | 0.0061529  | 0.013042   |   3.7 |  0.15
Other   |            | 0.4233     |            |       | 10.61

Nlocal:        5552.90 ave        7910 max           0 min
Histogram: 4 2 2 0 2 6 4 0 15 17
Nghost:        6213.67 ave        8770 max         412 min
Histogram: 4 0 4 0 8 0 4 5 7 20
Neighs:       158427.0 ave      230592 max           0 min
Histogram: 4 2 2 0 5 3 4 4 12 16

Total # of neighbors = 8238198
Ave neighs/atom = 28.530457
Neighbor list builds = 0
Dangerous builds = 0
The dot product: 2.18455894735743e-07
Setting atom values ...
  1 settings made for x
  1 settings made for y
  1 settings made for z
Setting up cg style minimization ...
  Unit style    : metal
  Current step  : 3499
Per MPI rank memory allocation (min/avg/max) = 5.465 | 6.344 | 6.728 Mbytes
Step PotEng KinEng TotEng v_fx v_fy v_fz 
    3499   -1152448.9            0   -1152448.9  0.071306387  0.013397246 -0.0027883216 
    3638   -1152448.9            0   -1152448.9 -3.6396336e-05 -6.4831976e-06 1.3738712e-06 
Loop time of 3.05311 on 52 procs for 139 steps with 288751 atoms

99.9% CPU use with 52 MPI tasks x 1 OpenMP threads

Minimization stats:
  Stopping criterion = energy tolerance
  Energy initial, next-to-last, final = 
     -1152448.86651918  -1152448.86920282  -1152448.86920282
  Force two-norm initial, final = 0.19608472 0.00021745112
  Force max component initial, final = 0.085428007 5.8050266e-05
  Final line search alpha, max atom move = 1.0000000 5.8050266e-05
  Iterations, force evaluations = 139 278

MPI task timing breakdown:
Section |  min time  |  avg time  |  max time  |%varavg| %total
---------------------------------------------------------------
Pair    | 0.78472    | 2.2213     | 2.9302     |  41.6 | 72.75
Neigh   | 0          | 0          | 0          |   0.0 |  0.00
Comm    | 0.036156   | 0.49402    | 1.557      |  63.2 | 16.18
Output  | 0          | 0          | 0          |   0.0 |  0.00
Modify  | 4.865e-05  | 0.0046396  | 0.0099402  |   3.2 |  0.15
Other   |            | 0.3332     |            |       | 10.91

Nlocal:        5552.90 ave        7912 max           0 min
Histogram: 4 2 2 0 2 6 4 0 15 17
Nghost:        6213.69 ave        8770 max         412 min
Histogram: 4 0 4 0 8 0 4 5 7 20
Neighs:       158427.0 ave      230631 max           0 min
Histogram: 4 2 2 0 5 3 4 4 12 16

Total # of neighbors = 8238193
Ave neighs/atom = 28.530440
Neighbor list builds = 0
Dangerous builds = 0
The dot product: 6.82415534511227e-07
Setting atom values ...
  1 settings made for x
  1 settings made for y
  1 settings made for z
Setting up cg style minimization ...
  Unit style    : metal
  Current step  : 3638
Per MPI rank memory allocation (min/avg/max) = 5.465 | 6.344 | 6.728 Mbytes
Step PotEng KinEng TotEng v_fx v_fy v_fz 
    3638   -1152448.9            0   -1152448.9  0.048384041  0.013249561 -0.00019932212 
    3829   -1152448.9            0   -1152448.9 1.666106e-05 4.6939699e-06 -8.6549684e-08 
Loop time of 4.18897 on 52 procs for 191 steps with 288751 atoms

99.9% CPU use with 52 MPI tasks x 1 OpenMP threads

Minimization stats:
  Stopping criterion = linesearch alpha is zero
  Energy initial, next-to-last, final = 
     -1152448.85329633  -1152448.85547754  -1152448.85547754
  Force two-norm initial, final = 0.19315383 0.00013521124
  Force max component initial, final = 0.08625163 1.6661060e-05
  Final line search alpha, max atom move = 0.5 8.3305298e-06
  Iterations, force evaluations = 191 383

MPI task timing breakdown:
Section |  min time  |  avg time  |  max time  |%varavg| %total
---------------------------------------------------------------
Pair    | 1.0817     | 3.0511     | 4.0105     |  48.6 | 72.84
Neigh   | 0          | 0          | 0          |   0.0 |  0.00
Comm    | 0.049474   | 0.67391    | 2.1368     |  74.3 | 16.09
Output  | 0          | 0          | 0          |   0.0 |  0.00
Modify  | 7.1992e-05 | 0.0063643  | 0.013469   |   3.7 |  0.15
Other   |            | 0.4576     |            |       | 10.92

Nlocal:        5552.90 ave        7912 max           0 min
Histogram: 4 2 2 0 2 6 4 0 15 17
Nghost:        6213.69 ave        8770 max         412 min
Histogram: 4 0 4 0 8 0 4 5 7 20
Neighs:       158427.0 ave      230627 max           0 min
Histogram: 4 2 2 0 5 3 4 4 12 16

Total # of neighbors = 8238194
Ave neighs/atom = 28.530443
Neighbor list builds = 0
Dangerous builds = 0
The dot product: -2.19345354949962e-07
Setting atom values ...
  1 settings made for x
  1 settings made for y
  1 settings made for z
Setting up cg style minimization ...
  Unit style    : metal
  Current step  : 3829
Per MPI rank memory allocation (min/avg/max) = 5.465 | 6.344 | 6.728 Mbytes
Step PotEng KinEng TotEng v_fx v_fy v_fz 
    3829   -1152448.8            0   -1152448.8  0.057667446  0.011492719 0.0021309611 
    4000   -1152448.8            0   -1152448.8 -8.0586492e-06 2.7719859e-06 -8.768702e-07 
    4023   -1152448.8            0   -1152448.8 2.2763238e-05 5.9265978e-06 6.5729882e-07 
Loop time of 4.24792 on 52 procs for 194 steps with 288751 atoms

99.9% CPU use with 52 MPI tasks x 1 OpenMP threads

Minimization stats:
  Stopping criterion = energy tolerance
  Energy initial, next-to-last, final = 
     -1152448.83825157  -1152448.84033244  -1152448.84033244
  Force two-norm initial, final = 0.19816039 0.00011518942
  Force max component initial, final = 0.090854584 2.2763238e-05
  Final line search alpha, max atom move = 1.0000000 2.2763238e-05
  Iterations, force evaluations = 194 388

MPI task timing breakdown:
Section |  min time  |  avg time  |  max time  |%varavg| %total
---------------------------------------------------------------
Pair    | 1.0949     | 3.0873     | 4.083      |  49.0 | 72.68
Neigh   | 0          | 0          | 0          |   0.0 |  0.00
Comm    | 0.050276   | 0.68549    | 2.1537     |  74.2 | 16.14
Output  | 0.00012352 | 0.00012801 | 0.00030309 |   0.0 |  0.00
Modify  | 6.798e-05  | 0.0065003  | 0.013757   |   3.7 |  0.15
Other   |            | 0.4685     |            |       | 11.03

Nlocal:        5552.90 ave        7913 max           0 min
Histogram: 4 2 2 0 2 6 4 1 14 17
Nghost:        6213.73 ave        8770 max         412 min
Histogram: 4 0 4 0 8 0 4 5 7 20
Neighs:       158427.0 ave      230653 max           0 min
Histogram: 4 2 2 0 5 3 4 4 12 16

Total # of neighbors = 8238191
Ave neighs/atom = 28.530433
Neighbor list builds = 0
Dangerous builds = 0
The dot product: -2.69267776502106e-07
Setting atom values ...
  1 settings made for x
  1 settings made for y
  1 settings made for z
Setting up cg style minimization ...
  Unit style    : metal
  Current step  : 4023
Per MPI rank memory allocation (min/avg/max) = 5.465 | 6.344 | 6.728 Mbytes
Step PotEng KinEng TotEng v_fx v_fy v_fz 
    4023   -1152448.8            0   -1152448.8  0.060050526 0.0084912462 0.0042457513 
    4189   -1152448.8            0   -1152448.8 1.6371442e-05 4.4082013e-06 8.9366048e-07 
Loop time of 3.61104 on 52 procs for 166 steps with 288751 atoms

99.9% CPU use with 52 MPI tasks x 1 OpenMP threads

Minimization stats:
  Stopping criterion = energy tolerance
  Energy initial, next-to-last, final = 
     -1152448.82180997  -1152448.82392204  -1152448.82392204
  Force two-norm initial, final = 0.2008463 0.0002122345
  Force max component initial, final = 0.095498316 4.6595517e-05
  Final line search alpha, max atom move = 1.0000000 4.6595517e-05
  Iterations, force evaluations = 166 332

MPI task timing breakdown:
Section |  min time  |  avg time  |  max time  |%varavg| %total
---------------------------------------------------------------
Pair    | 0.94162    | 2.6387     | 3.4675     |  45.0 | 73.07
Neigh   | 0          | 0          | 0          |   0.0 |  0.00
Comm    | 0.04327    | 0.58104    | 1.8381     |  69.2 | 16.09
Output  | 0          | 0          | 0          |   0.0 |  0.00
Modify  | 6.2186e-05 | 0.0055474  | 0.011819   |   3.5 |  0.15
Other   |            | 0.3857     |            |       | 10.68

Nlocal:        5552.90 ave        7915 max           0 min
Histogram: 4 2 2 0 2 6 4 1 14 17
Nghost:        6213.73 ave        8770 max         412 min
Histogram: 4 0 4 0 8 0 4 5 7 20
Neighs:       158427.0 ave      230705 max           0 min
Histogram: 4 2 2 0 5 3 4 4 12 16

Total # of neighbors = 8238191
Ave neighs/atom = 28.530433
Neighbor list builds = 0
Dangerous builds = 0
The dot product: -1.39512140032851e-07
Setting atom values ...
  1 settings made for x
  1 settings made for y
  1 settings made for z
Setting up cg style minimization ...
  Unit style    : metal
  Current step  : 4189
Per MPI rank memory allocation (min/avg/max) = 5.465 | 6.344 | 6.728 Mbytes
Step PotEng KinEng TotEng v_fx v_fy v_fz 
    4189   -1152448.8            0   -1152448.8  0.066253875 0.0081957779 0.0060070674 
    4380   -1152448.8            0   -1152448.8 -2.8713101e-05 -4.7840836e-06 -2.4546532e-06 
Loop time of 4.18209 on 52 procs for 191 steps with 288751 atoms

99.9% CPU use with 52 MPI tasks x 1 OpenMP threads

Minimization stats:
  Stopping criterion = energy tolerance
  Energy initial, next-to-last, final = 
     -1152448.80406552  -1152448.80607265  -1152448.80607265
  Force two-norm initial, final = 0.20419086 9.1529426e-05
  Force max component initial, final = 0.0987332 4.0147086e-05
  Final line search alpha, max atom move = 1.0000000 4.0147086e-05
  Iterations, force evaluations = 191 382

MPI task timing breakdown:
Section |  min time  |  avg time  |  max time  |%varavg| %total
---------------------------------------------------------------
Pair    | 1.0782     | 3.0489     | 4.0197     |  48.7 | 72.90
Neigh   | 0          | 0          | 0          |   0.0 |  0.00
Comm    | 0.04907    | 0.67296    | 2.1359     |  74.5 | 16.09
Output  | 0          | 0          | 0          |   0.0 |  0.00
Modify  | 7.1648e-05 | 0.0063785  | 0.013678   |   3.7 |  0.15
Other   |            | 0.4539     |            |       | 10.85

Nlocal:        5552.90 ave        7917 max           0 min
Histogram: 4 2 2 0 2 6 4 1 14 17
Nghost:        6213.65 ave        8770 max         412 min
Histogram: 4 0 4 0 8 0 4 5 7 20
Neighs:       158427.0 ave      230779 max           0 min
Histogram: 4 2 2 0 5 3 4 4 12 16

Total # of neighbors = 8238191
Ave neighs/atom = 28.530433
Neighbor list builds = 0
Dangerous builds = 0
The dot product: 1.24810242622865e-07
Setting atom values ...
  1 settings made for x
  1 settings made for y
  1 settings made for z
Setting up cg style minimization ...
  Unit style    : metal
  Current step  : 4380
Per MPI rank memory allocation (min/avg/max) = 5.465 | 6.344 | 6.728 Mbytes
Step PotEng KinEng TotEng v_fx v_fy v_fz 
    4380   -1152448.8            0   -1152448.8  0.073698714 0.0086005849 0.0073973353 
    4546   -1152448.8            0   -1152448.8 3.9618169e-05 6.2902568e-06 3.7821119e-06 
Loop time of 3.61431 on 52 procs for 166 steps with 288751 atoms

99.9% CPU use with 52 MPI tasks x 1 OpenMP threads

Minimization stats:
  Stopping criterion = energy tolerance
  Energy initial, next-to-last, final = 
     -1152448.78483387  -1152448.78678112  -1152448.78678112
  Force two-norm initial, final = 0.20728983 0.00014301453
  Force max component initial, final = 0.10024746 3.9618169e-05
  Final line search alpha, max atom move = 1.0000000 3.9618169e-05
  Iterations, force evaluations = 166 332

MPI task timing breakdown:
Section |  min time  |  avg time  |  max time  |%varavg| %total
---------------------------------------------------------------
Pair    | 0.94099    | 2.6384     | 3.471      |  45.1 | 73.00
Neigh   | 0          | 0          | 0          |   0.0 |  0.00
Comm    | 0.042851   | 0.58091    | 1.8394     |  69.2 | 16.07
Output  | 0          | 0          | 0          |   0.0 |  0.00
Modify  | 6.0275e-05 | 0.0055635  | 0.011768   |   3.5 |  0.15
Other   |            | 0.3894     |            |       | 10.77

Nlocal:        5552.90 ave        7917 max           0 min
Histogram: 4 2 2 0 2 6 4 1 14 17
Nghost:        6213.65 ave        8769 max         412 min
Histogram: 4 0 4 0 8 0 4 5 7 20
Neighs:       158427.0 ave      230772 max           0 min
Histogram: 4 2 2 0 5 3 4 4 12 16

Total # of neighbors = 8238191
Ave neighs/atom = 28.530433
Neighbor list builds = 0
Dangerous builds = 0
The dot product: -2.86597214653308e-08
Setting atom values ...
  1 settings made for x
  1 settings made for y
  1 settings made for z
Setting up cg style minimization ...
  Unit style    : metal
  Current step  : 4546
Per MPI rank memory allocation (min/avg/max) = 5.465 | 6.344 | 6.728 Mbytes
Step PotEng KinEng TotEng v_fx v_fy v_fz 
    4546   -1152448.8            0   -1152448.8  0.080716441 0.0085980997  0.008299667 
    4740   -1152448.8            0   -1152448.8 -1.4343726e-05 -2.9654752e-06 -1.3122042e-06 
Loop time of 4.28322 on 52 procs for 194 steps with 288751 atoms

99.9% CPU use with 52 MPI tasks x 1 OpenMP threads

Minimization stats:
  Stopping criterion = linesearch alpha is zero
  Energy initial, next-to-last, final = 
      -1152448.7640881  -1152448.76596832  -1152448.76596832
  Force two-norm initial, final = 0.20972649 5.3246508e-05
  Force max component initial, final = 0.10051606 1.5142324e-05
  Final line search alpha, max atom move = 0.5 7.5711621e-06
  Iterations, force evaluations = 194 389

MPI task timing breakdown:
Section |  min time  |  avg time  |  max time  |%varavg| %total
---------------------------------------------------------------
Pair    | 1.0982     | 3.1057     | 4.1041     |  49.3 | 72.51
Neigh   | 0          | 0          | 0          |   0.0 |  0.00
Comm    | 0.05017    | 0.69242    | 2.1741     |  74.4 | 16.17
Output  | 0          | 0          | 0          |   0.0 |  0.00
Modify  | 7.6516e-05 | 0.0065038  | 0.013889   |   3.8 |  0.15
Other   |            | 0.4786     |            |       | 11.17

Nlocal:        5552.90 ave        7917 max           0 min
Histogram: 4 2 2 0 2 6 4 1 14 17
Nghost:        6213.58 ave        8768 max         412 min
Histogram: 4 0 4 0 8 0 4 5 7 20
Neighs:       158427.0 ave      230771 max           0 min
Histogram: 4 2 2 0 5 3 4 4 12 16

Total # of neighbors = 8238188
Ave neighs/atom = 28.530422
Neighbor list builds = 0
Dangerous builds = 0
The dot product: -3.2830058674514e-08
Setting atom values ...
  1 settings made for x
  1 settings made for y
  1 settings made for z
Setting up cg style minimization ...
  Unit style    : metal
  Current step  : 4740
Per MPI rank memory allocation (min/avg/max) = 5.465 | 6.344 | 6.728 Mbytes
Step PotEng KinEng TotEng v_fx v_fy v_fz 
    4740   -1152448.7            0   -1152448.7  0.086515398 0.0082456289  0.008589826 
    4900   -1152448.7            0   -1152448.7 3.456295e-06 -9.0029951e-07 4.7786012e-07 
Loop time of 3.49787 on 52 procs for 160 steps with 288751 atoms

99.9% CPU use with 52 MPI tasks x 1 OpenMP threads

Minimization stats:
  Stopping criterion = linesearch alpha is zero
  Energy initial, next-to-last, final = 
     -1152448.74177351  -1152448.74362893  -1152448.74362893
  Force two-norm initial, final = 0.21112576 0.00012594125
  Force max component initial, final = 0.099486979 6.8992710e-06
  Final line search alpha, max atom move = 0.5 3.4496355e-06
  Iterations, force evaluations = 160 321

MPI task timing breakdown:
Section |  min time  |  avg time  |  max time  |%varavg| %total
---------------------------------------------------------------
Pair    | 0.90711    | 2.5545     | 3.3616     |  44.5 | 73.03
Neigh   | 0          | 0          | 0          |   0.0 |  0.00
Comm    | 0.041852   | 0.56427    | 1.7864     |  68.0 | 16.13
Output  | 0          | 0          | 0          |   0.0 |  0.00
Modify  | 5.9992e-05 | 0.0053398  | 0.011278   |   3.4 |  0.15
Other   |            | 0.3738     |            |       | 10.69

Nlocal:        5552.90 ave        7917 max           0 min
Histogram: 4 2 2 0 2 6 4 1 14 17
Nghost:        6213.62 ave        8768 max         412 min
Histogram: 4 0 4 0 8 0 4 5 7 20
Neighs:       158427.0 ave      230763 max           0 min
Histogram: 4 2 2 0 5 3 4 4 12 16

Total # of neighbors = 8238186
Ave neighs/atom = 28.530415
Neighbor list builds = 0
Dangerous builds = 0
The dot product: 1.78424539291822e-08
Setting atom values ...
  1 settings made for x
  1 settings made for y
  1 settings made for z
Setting up cg style minimization ...
  Unit style    : metal
  Current step  : 4900
Per MPI rank memory allocation (min/avg/max) = 5.465 | 6.344 | 6.728 Mbytes
Step PotEng KinEng TotEng v_fx v_fy v_fz 
    4900   -1152448.7            0   -1152448.7  0.089949011 0.0083728578 0.0082118887 
    5000   -1152448.7            0   -1152448.7 -0.00047938566 -7.7149978e-05 -4.0323884e-05 
    5077   -1152448.7            0   -1152448.7  4.52178e-06 -8.8010021e-07 5.5047347e-07 
Loop time of 3.92772 on 52 procs for 177 steps with 288751 atoms

99.9% CPU use with 52 MPI tasks x 1 OpenMP threads

Minimization stats:
  Stopping criterion = linesearch alpha is zero
  Energy initial, next-to-last, final = 
     -1152448.71794191  -1152448.71977376  -1152448.71977376
  Force two-norm initial, final = 0.2113254 6.3269890e-05
  Force max component initial, final = 0.097745614 7.4237640e-06
  Final line search alpha, max atom move = 0.5 3.7118820e-06
  Iterations, force evaluations = 177 355

MPI task timing breakdown:
Section |  min time  |  avg time  |  max time  |%varavg| %total
---------------------------------------------------------------
Pair    | 1.0021     | 2.8349     | 3.7667     |  47.2 | 72.18
Neigh   | 0          | 0          | 0          |   0.0 |  0.00
Comm    | 0.047529   | 0.63562    | 1.9817     |  70.6 | 16.18
Output  | 0.00019954 | 0.00020445 | 0.00037716 |   0.0 |  0.01
Modify  | 6.4583e-05 | 0.0059127  | 0.012536   |   3.6 |  0.15
Other   |            | 0.451      |            |       | 11.48

Nlocal:        5552.90 ave        7917 max           0 min
Histogram: 4 2 2 0 2 6 4 1 14 17
Nghost:        6213.58 ave        8768 max         412 min
Histogram: 4 0 4 0 8 0 4 5 7 20
Neighs:       158427.0 ave      230765 max           0 min
Histogram: 4 2 2 0 5 3 4 4 12 16

Total # of neighbors = 8238186
Ave neighs/atom = 28.530415
Neighbor list builds = 0
Dangerous builds = 0
The dot product: 2.8340160362183e-08
Setting atom values ...
  1 settings made for x
  1 settings made for y
  1 settings made for z
Setting up cg style minimization ...
  Unit style    : metal
  Current step  : 5077
Per MPI rank memory allocation (min/avg/max) = 5.465 | 6.344 | 6.728 Mbytes
Step PotEng KinEng TotEng v_fx v_fy v_fz 
    5077   -1152448.7            0   -1152448.7  0.091633627 0.0092464859 0.0073653268 
    5220   -1152448.7            0   -1152448.7 8.2636931e-05 1.0232333e-05 6.4487622e-06 
Loop time of 3.17845 on 52 procs for 143 steps with 288751 atoms

99.9% CPU use with 52 MPI tasks x 1 OpenMP threads

Minimization stats:
  Stopping criterion = linesearch alpha is zero
  Energy initial, next-to-last, final = 
     -1152448.69261921  -1152448.69442004  -1152448.69442004
  Force two-norm initial, final = 0.21062812 0.00030746474
  Force max component initial, final = 0.095494081 0.00011184392
  Final line search alpha, max atom move = 0.125 1.3980490e-05
  Iterations, force evaluations = 143 291

MPI task timing breakdown:
Section |  min time  |  avg time  |  max time  |%varavg| %total
---------------------------------------------------------------
Pair    | 0.82218    | 2.3176     | 3.0551     |  42.4 | 72.91
Neigh   | 0          | 0          | 0          |   0.0 |  0.00
Comm    | 0.038122   | 0.51326    | 1.6229     |  64.7 | 16.15
Output  | 0          | 0          | 0          |   0.0 |  0.00
Modify  | 5.6498e-05 | 0.0048628  | 0.010411   |   3.3 |  0.15
Other   |            | 0.3428     |            |       | 10.78

Nlocal:        5552.90 ave        7917 max           0 min
Histogram: 4 2 2 0 2 6 4 1 14 17
Nghost:        6213.52 ave        8768 max         412 min
Histogram: 4 0 4 0 8 0 4 5 7 20
Neighs:       158427.0 ave      230769 max           0 min
Histogram: 4 2 2 0 5 3 4 4 12 16

Total # of neighbors = 8238188
Ave neighs/atom = 28.530422
Neighbor list builds = 0
Dangerous builds = 0
The dot product: 5.31137807080572e-07
Setting atom values ...
  1 settings made for x
  1 settings made for y
  1 settings made for z
Setting up cg style minimization ...
  Unit style    : metal
  Current step  : 5220
Per MPI rank memory allocation (min/avg/max) = 5.465 | 6.344 | 6.728 Mbytes
Step PotEng KinEng TotEng v_fx v_fy v_fz 
    5220   -1152448.7            0   -1152448.7  0.092070129  0.011075259 0.0061995176 
    5373   -1152448.7            0   -1152448.7 -3.3947869e-05 -4.269255e-06 -2.2675404e-06 
Loop time of 3.38139 on 52 procs for 153 steps with 288751 atoms

99.9% CPU use with 52 MPI tasks x 1 OpenMP threads

Minimization stats:
  Stopping criterion = linesearch alpha is zero
  Energy initial, next-to-last, final = 
     -1152448.66582773  -1152448.66759172  -1152448.66759172
  Force two-norm initial, final = 0.20942144 0.00018951964
  Force max component initial, final = 0.092973362 4.4005876e-05
  Final line search alpha, max atom move = 0.25 1.1001469e-05
  Iterations, force evaluations = 153 309

MPI task timing breakdown:
Section |  min time  |  avg time  |  max time  |%varavg| %total
---------------------------------------------------------------
Pair    | 0.87226    | 2.4649     | 3.2509     |  43.7 | 72.90
Neigh   | 0          | 0          | 0          |   0.0 |  0.00
Comm    | 0.039584   | 0.54513    | 1.7219     |  66.6 | 16.12
Output  | 0          | 0          | 0          |   0.0 |  0.00
Modify  | 5.351e-05  | 0.0051521  | 0.010923   |   3.3 |  0.15
Other   |            | 0.3662     |            |       | 10.83

Nlocal:        5552.90 ave        7917 max           0 min
Histogram: 4 2 2 0 2 6 4 1 14 17
Nghost:        6213.52 ave        8768 max         412 min
Histogram: 4 0 4 0 8 0 4 5 7 20
Neighs:       158427.0 ave      230768 max           0 min
Histogram: 4 2 2 0 5 3 4 4 12 16

Total # of neighbors = 8238186
Ave neighs/atom = 28.530415
Neighbor list builds = 0
Dangerous builds = 0
The dot product: -2.37666113617257e-07
Setting atom values ...
  1 settings made for x
  1 settings made for y
  1 settings made for z
Setting up cg style minimization ...
  Unit style    : metal
  Current step  : 5373
Per MPI rank memory allocation (min/avg/max) = 5.465 | 6.344 | 6.728 Mbytes
Step PotEng KinEng TotEng v_fx v_fy v_fz 
    5373   -1152448.6            0   -1152448.6  0.091144417  0.014004439 0.0047844989 
    5537   -1152448.6            0   -1152448.6 2.2714783e-05 1.3404541e-06 1.3985455e-06 
Loop time of 3.57347 on 52 procs for 164 steps with 288751 atoms

99.9% CPU use with 52 MPI tasks x 1 OpenMP threads

Minimization stats:
  Stopping criterion = energy tolerance
  Energy initial, next-to-last, final = 
     -1152448.63759837  -1152448.63931862  -1152448.63931862
  Force two-norm initial, final = 0.20761311 0.00011934273
  Force max component initial, final = 0.091144417 2.9666477e-05
  Final line search alpha, max atom move = 1.0000000 2.9666477e-05
  Iterations, force evaluations = 164 328

MPI task timing breakdown:
Section |  min time  |  avg time  |  max time  |%varavg| %total
---------------------------------------------------------------
Pair    | 0.9294     | 2.6086     | 3.4288     |  44.8 | 73.00
Neigh   | 0          | 0          | 0          |   0.0 |  0.00
Comm    | 0.044584   | 0.57413    | 1.8174     |  68.8 | 16.07
Output  | 0          | 0          | 0          |   0.0 |  0.00
Modify  | 6.1968e-05 | 0.0055025  | 0.011649   |   3.5 |  0.15
Other   |            | 0.3852     |            |       | 10.78

Nlocal:        5552.90 ave        7917 max           0 min
Histogram: 4 2 2 0 2 6 4 1 14 17
Nghost:        6213.52 ave        8768 max         412 min
Histogram: 4 0 4 0 8 0 4 5 7 20
Neighs:       158427.0 ave      230755 max           0 min
Histogram: 4 2 2 0 5 3 4 4 12 16

Total # of neighbors = 8238188
Ave neighs/atom = 28.530422
Neighbor list builds = 0
Dangerous builds = 0
The dot product: 1.70843327254646e-07
Setting atom values ...
  1 settings made for x
  1 settings made for y
  1 settings made for z
Setting up cg style minimization ...
  Unit style    : metal
  Current step  : 5537
Per MPI rank memory allocation (min/avg/max) = 5.465 | 6.344 | 6.728 Mbytes
Step PotEng KinEng TotEng v_fx v_fy v_fz 
    5537   -1152448.6            0   -1152448.6  0.089233147  0.018391853 0.0031826052 
    5690   -1152448.6            0   -1152448.6 -1.2798758e-05 1.616684e-06 -8.5633227e-07 
Loop time of 3.40878 on 52 procs for 153 steps with 288751 atoms

99.9% CPU use with 52 MPI tasks x 1 OpenMP threads

Minimization stats:
  Stopping criterion = linesearch alpha is zero
  Energy initial, next-to-last, final = 
     -1152448.60796336  -1152448.60963995  -1152448.60963995
  Force two-norm initial, final = 0.20579158 0.00018177631
  Force max component initial, final = 0.089233147 2.0502020e-05
  Final line search alpha, max atom move = 0.25 5.1255049e-06
  Iterations, force evaluations = 153 309

MPI task timing breakdown:
Section |  min time  |  avg time  |  max time  |%varavg| %total
---------------------------------------------------------------
Pair    | 0.87282    | 2.4655     | 3.2793     |  44.0 | 72.33
Neigh   | 0          | 0          | 0          |   0.0 |  0.00
Comm    | 0.040757   | 0.54924    | 1.719      |  66.0 | 16.11
Output  | 0          | 0          | 0          |   0.0 |  0.00
Modify  | 5.3585e-05 | 0.0051715  | 0.011372   |   3.4 |  0.15
Other   |            | 0.3889     |            |       | 11.41

Nlocal:        5552.90 ave        7917 max           0 min
Histogram: 4 2 2 0 2 6 4 1 14 17
Nghost:        6213.52 ave        8768 max         412 min
Histogram: 4 0 4 0 8 0 4 5 7 20
Neighs:       158427.0 ave      230756 max           0 min
Histogram: 4 2 2 0 5 3 4 4 12 16

Total # of neighbors = 8238188
Ave neighs/atom = 28.530422
Neighbor list builds = 0
Dangerous builds = 0
The dot product: -1.01179765403071e-07
Setting atom values ...
  1 settings made for x
  1 settings made for y
  1 settings made for z
Setting up cg style minimization ...
  Unit style    : metal
  Current step  : 5690
Per MPI rank memory allocation (min/avg/max) = 5.465 | 6.344 | 6.728 Mbytes
Step PotEng KinEng TotEng v_fx v_fy v_fz 
    5690   -1152448.6            0   -1152448.6  0.086191813  0.023534553 0.0014850294 
    5834   -1152448.6            0   -1152448.6 -6.8667065e-05 -6.6400158e-06 -2.3166107e-06 
Loop time of 3.15253 on 52 procs for 144 steps with 288751 atoms

99.9% CPU use with 52 MPI tasks x 1 OpenMP threads

Minimization stats:
  Stopping criterion = energy tolerance
  Energy initial, next-to-last, final = 
     -1152448.57698079  -1152448.57861478  -1152448.57861478
  Force two-norm initial, final = 0.20373916 0.00026406463
  Force max component initial, final = 0.086518759 8.4663971e-05
  Final line search alpha, max atom move = 1.0000000 8.4663971e-05
  Iterations, force evaluations = 144 288

MPI task timing breakdown:
Section |  min time  |  avg time  |  max time  |%varavg| %total
---------------------------------------------------------------
Pair    | 0.81812    | 2.2922     | 3.0143     |  42.0 | 72.71
Neigh   | 0          | 0          | 0          |   0.0 |  0.00
Comm    | 0.037916   | 0.50712    | 1.6081     |  64.3 | 16.09
Output  | 0          | 0          | 0          |   0.0 |  0.00
Modify  | 5.3177e-05 | 0.004824   | 0.010212   |   3.2 |  0.15
Other   |            | 0.3484     |            |       | 11.05

Nlocal:        5552.90 ave        7917 max           0 min
Histogram: 4 2 2 0 2 6 4 1 14 17
Nghost:        6213.56 ave        8768 max         412 min
Histogram: 4 0 4 0 8 0 4 5 7 20
Neighs:       158427.0 ave      230757 max           0 min
Histogram: 4 2 2 0 5 3 4 4 12 16

Total # of neighbors = 8238187
Ave neighs/atom = 28.530419
Neighbor list builds = 0
Dangerous builds = 0
The dot product: -5.69277896268241e-07
Setting atom values ...
  1 settings made for x
  1 settings made for y
  1 settings made for z
Setting up cg style minimization ...
  Unit style    : metal
  Current step  : 5834
Per MPI rank memory allocation (min/avg/max) = 5.465 | 6.344 | 6.728 Mbytes
Step PotEng KinEng TotEng v_fx v_fy v_fz 
    5834   -1152448.5            0   -1152448.5  0.082069509  0.031698957 -0.00053438671 
    6000   -1152448.6            0   -1152448.6 -0.0018774141 -0.00037497644 -2.1329626e-05 
    6103   -1152448.6            0   -1152448.6 1.3281526e-05 3.0746612e-07 3.7562502e-07 
Loop time of 5.93668 on 52 procs for 269 steps with 288751 atoms

99.9% CPU use with 52 MPI tasks x 1 OpenMP threads

Minimization stats:
  Stopping criterion = energy tolerance
  Energy initial, next-to-last, final = 
     -1152448.54479552  -1152448.61731753  -1152448.61731753
  Force two-norm initial, final = 0.20193129 0.00023811621
  Force max component initial, final = 0.08834835 1.6104613e-05
  Final line search alpha, max atom move = 1.0000000 1.6104613e-05
  Iterations, force evaluations = 269 538

MPI task timing breakdown:
Section |  min time  |  avg time  |  max time  |%varavg| %total
---------------------------------------------------------------
Pair    | 1.5346     | 4.3001     | 5.6651     |  57.6 | 72.43
Neigh   | 3.7595e-05 | 0.011478   | 0.01678    |   4.5 |  0.19
Comm    | 0.072352   | 0.95753    | 3.0081     |  87.9 | 16.13
Output  | 0.00012529 | 0.00013021 | 0.0003066  |   0.0 |  0.00
Modify  | 0.00010876 | 0.0089603  | 0.019109   |   4.4 |  0.15
Other   |            | 0.6585     |            |       | 11.09

Nlocal:        5552.90 ave        7908 max           0 min
Histogram: 4 2 2 0 2 6 4 0 15 17
Nghost:        6213.54 ave        8768 max         412 min
Histogram: 4 0 4 0 8 0 4 5 7 20
Neighs:       158427.0 ave      230451 max           0 min
Histogram: 4 2 2 0 5 3 4 4 12 16

Total # of neighbors = 8238193
Ave neighs/atom = 28.530440
Neighbor list builds = 2
Dangerous builds = 0
The dot product: 6.16797370625214e-07
Setting atom values ...
  1 settings made for x
  1 settings made for y
  1 settings made for z
Setting up cg style minimization ...
  Unit style    : metal
  Current step  : 6103
Per MPI rank memory allocation (min/avg/max) = 5.465 | 6.344 | 6.728 Mbytes
Step PotEng KinEng TotEng v_fx v_fy v_fz 
    6103   -1152448.6            0   -1152448.6  0.076820294   0.14611684 -0.087971044 
    6314   -1152448.6            0   -1152448.6 4.4915638e-05 2.1575396e-05 -1.3969179e-05 
Loop time of 4.5865 on 52 procs for 211 steps with 288751 atoms

99.9% CPU use with 52 MPI tasks x 1 OpenMP threads

Minimization stats:
  Stopping criterion = energy tolerance
  Energy initial, next-to-last, final = 
     -1152448.61058534  -1152448.61363277  -1152448.61363277
  Force two-norm initial, final = 0.2316508 0.00013667382
  Force max component initial, final = 0.14611684 5.4377576e-05
  Final line search alpha, max atom move = 1.0000000 5.4377576e-05
  Iterations, force evaluations = 211 422

MPI task timing breakdown:
Section |  min time  |  avg time  |  max time  |%varavg| %total
---------------------------------------------------------------
Pair    | 1.1963     | 3.355      | 4.4031     |  50.8 | 73.15
Neigh   | 0          | 0          | 0          |   0.0 |  0.00
Comm    | 0.054493   | 0.73589    | 2.3414     |  78.3 | 16.04
Output  | 0          | 0          | 0          |   0.0 |  0.00
Modify  | 7.9163e-05 | 0.0070213  | 0.014911   |   3.9 |  0.15
Other   |            | 0.4886     |            |       | 10.65

Nlocal:        5552.90 ave        7907 max           0 min
Histogram: 4 2 2 0 2 6 4 0 15 17
Nghost:        6213.62 ave        8769 max         412 min
Histogram: 4 0 4 0 8 0 4 5 7 20
Neighs:       158427.0 ave      230477 max           0 min
Histogram: 4 2 2 0 5 3 4 4 12 16

Total # of neighbors = 8238185
Ave neighs/atom = 28.530412
Neighbor list builds = 0
Dangerous builds = 0
The dot product: 8.97853980599166e-07
Setting atom values ...
  1 settings made for x
  1 settings made for y
  1 settings made for z
Setting up cg style minimization ...
  Unit style    : metal
  Current step  : 6314
Per MPI rank memory allocation (min/avg/max) = 5.465 | 6.344 | 6.728 Mbytes
Step PotEng KinEng TotEng v_fx v_fy v_fz 
    6314   -1152448.6            0   -1152448.6  0.065637179  0.035146876 -0.024728803 
    6598     -1152449            0     -1152449 -3.9072963e-06 1.9294437e-05 -1.2208064e-05 
Loop time of 6.20521 on 52 procs for 284 steps with 288751 atoms

99.9% CPU use with 52 MPI tasks x 1 OpenMP threads

Minimization stats:
  Stopping criterion = energy tolerance
  Energy initial, next-to-last, final = 
     -1152448.60682784  -1152448.99150832  -1152448.99150832
  Force two-norm initial, final = 0.15779387 0.00013244196
  Force max component initial, final = 0.074490713 2.4178732e-05
  Final line search alpha, max atom move = 1.0000000 2.4178732e-05
  Iterations, force evaluations = 284 566

MPI task timing breakdown:
Section |  min time  |  avg time  |  max time  |%varavg| %total
---------------------------------------------------------------
Pair    | 1.6345     | 4.5159     | 5.9203     |  58.6 | 72.78
Neigh   | 9.1593e-05 | 0.028684   | 0.042036   |   7.1 |  0.46
Comm    | 0.075511   | 0.99423    | 3.1464     |  90.8 | 16.02
Output  | 0          | 0          | 0          |   0.0 |  0.00
Modify  | 9.6688e-05 | 0.0094039  | 0.019941   |   4.5 |  0.15
Other   |            | 0.657      |            |       | 10.59

Nlocal:        5552.90 ave        7899 max           0 min
Histogram: 4 2 2 0 2 6 4 0 14 18
Nghost:        6213.62 ave        8769 max         412 min
Histogram: 4 0 4 0 8 0 4 5 7 20
Neighs:       158427.0 ave      230215 max           0 min
Histogram: 4 2 2 0 5 3 4 4 12 16

Total # of neighbors = 8238215
Ave neighs/atom = 28.530516
Neighbor list builds = 5
Dangerous builds = 0
The dot product: 5.99362793773691e-06
Setting atom values ...
  1 settings made for x
  1 settings made for y
  1 settings made for z
Setting up cg style minimization ...
  Unit style    : metal
  Current step  : 6598
Per MPI rank memory allocation (min/avg/max) = 5.465 | 6.344 | 6.728 Mbytes
Step PotEng KinEng TotEng v_fx v_fy v_fz 
    6598     -1152449            0     -1152449  -0.61709314 -0.058524214   0.76344673 
    6898   -1152449.2            0   -1152449.2 5.2840281e-06 -5.6912002e-06 2.8155843e-06 
Loop time of 6.58163 on 52 procs for 300 steps with 288751 atoms

99.9% CPU use with 52 MPI tasks x 1 OpenMP threads

Minimization stats:
  Stopping criterion = linesearch alpha is zero
  Energy initial, next-to-last, final = 
     -1152449.01576495  -1152449.17339093  -1152449.17339093
  Force two-norm initial, final = 0.99536536 6.6286710e-05
  Force max component initial, final = 0.76344673 1.6100672e-05
  Final line search alpha, max atom move = 0.5 8.0503361e-06
  Iterations, force evaluations = 300 603

MPI task timing breakdown:
Section |  min time  |  avg time  |  max time  |%varavg| %total
---------------------------------------------------------------
Pair    | 1.7218     | 4.7929     | 6.2917     |  60.4 | 72.82
Neigh   | 3.9335e-05 | 0.011472   | 0.016895   |   4.5 |  0.17
Comm    | 0.082526   | 1.0594     | 3.3426     |  92.8 | 16.10
Output  | 0          | 0          | 0          |   0.0 |  0.00
Modify  | 0.00011227 | 0.010084   | 0.021321   |   4.7 |  0.15
Other   |            | 0.7078     |            |       | 10.75

Nlocal:        5552.90 ave        7869 max           0 min
Histogram: 4 2 2 0 2 6 4 0 14 18
Nghost:        6213.69 ave        8770 max         412 min
Histogram: 4 0 4 0 8 0 4 5 7 20
Neighs:       158427.0 ave      229224 max           0 min
Histogram: 4 2 2 0 4 4 4 4 10 18

Total # of neighbors = 8238204
Ave neighs/atom = 28.530478
Neighbor list builds = 2
Dangerous builds = 0
The dot product: -6.85030060078405e-07
Setting atom values ...
  1 settings made for x
  1 settings made for y
  1 settings made for z
Setting up cg style minimization ...
  Unit style    : metal
  Current step  : 6898
Per MPI rank memory allocation (min/avg/max) = 5.465 | 6.344 | 6.728 Mbytes
Step PotEng KinEng TotEng v_fx v_fy v_fz 
    6898   -1152449.2            0   -1152449.2   0.38114333  0.076138202  -0.23937994 
    7000   -1152449.2            0   -1152449.2 -0.00028671504 0.00023397321 -0.00012639606 
    7144   -1152449.2            0   -1152449.2 -1.7849331e-06 -8.1635391e-06 9.3360309e-06 
Loop time of 5.37978 on 52 procs for 246 steps with 288751 atoms

99.9% CPU use with 52 MPI tasks x 1 OpenMP threads

Minimization stats:
  Stopping criterion = linesearch alpha is zero
  Energy initial, next-to-last, final = 
      -1152449.1977408  -1152449.22535775  -1152449.22535775
  Force two-norm initial, final = 0.48669039 6.9727612e-05
  Force max component initial, final = 0.38114333 1.6700823e-05
  Final line search alpha, max atom move = 0.5 8.3504113e-06
  Iterations, force evaluations = 246 493

MPI task timing breakdown:
Section |  min time  |  avg time  |  max time  |%varavg| %total
---------------------------------------------------------------
Pair    | 1.4021     | 3.925      | 5.1614     |  54.9 | 72.96
Neigh   | 1.8934e-05 | 0.0057201  | 0.0083692  |   3.2 |  0.11
Comm    | 0.064207   | 0.86858    | 2.7352     |  83.8 | 16.15
Output  | 0.00012332 | 0.0001279  | 0.00030298 |   0.0 |  0.00
Modify  | 8.8615e-05 | 0.0082193  | 0.0174     |   4.2 |  0.15
Other   |            | 0.5722     |            |       | 10.64

Nlocal:        5552.90 ave        7864 max           0 min
Histogram: 4 2 2 0 2 6 4 0 13 19
Nghost:        6213.69 ave        8771 max         412 min
Histogram: 4 0 4 0 8 0 4 5 7 20
Neighs:       158427.0 ave      229023 max           0 min
Histogram: 4 2 2 0 4 4 4 4 10 18

Total # of neighbors = 8238197
Ave neighs/atom = 28.530454
Neighbor list builds = 1
Dangerous builds = 0
The dot product: -8.4158773125578e-07
Setting atom values ...
  1 settings made for x
  1 settings made for y
  1 settings made for z
Setting up cg style minimization ...
  Unit style    : metal
  Current step  : 7144
Per MPI rank memory allocation (min/avg/max) = 5.465 | 6.344 | 6.728 Mbytes
Step PotEng KinEng TotEng v_fx v_fy v_fz 
    7144   -1152449.2            0   -1152449.2 -0.090936081 0.0012692951  0.054854119 
    7350   -1152449.3            0   -1152449.3 1.7125471e-05 -1.667018e-05 8.784461e-06 
Loop time of 4.50211 on 52 procs for 206 steps with 288751 atoms

99.9% CPU use with 52 MPI tasks x 1 OpenMP threads

Minimization stats:
  Stopping criterion = linesearch alpha is zero
  Energy initial, next-to-last, final = 
     -1152449.24711189  -1152449.25193143  -1152449.25193143
  Force two-norm initial, final = 0.19086515 0.00017456329
  Force max component initial, final = 0.090936081 1.8528555e-05
  Final line search alpha, max atom move = 0.25 4.6321387e-06
  Iterations, force evaluations = 206 415

MPI task timing breakdown:
Section |  min time  |  avg time  |  max time  |%varavg| %total
---------------------------------------------------------------
Pair    | 1.1761     | 3.2993     | 4.3189     |  50.4 | 73.28
Neigh   | 0          | 0          | 0          |   0.0 |  0.00
Comm    | 0.05388    | 0.72272    | 2.3039     |  77.7 | 16.05
Output  | 0          | 0          | 0          |   0.0 |  0.00
Modify  | 7.9378e-05 | 0.0069212  | 0.01475    |   3.9 |  0.15
Other   |            | 0.4731     |            |       | 10.51

Nlocal:        5552.90 ave        7866 max           0 min
Histogram: 4 2 2 0 2 6 4 0 13 19
Nghost:        6213.69 ave        8771 max         412 min
Histogram: 4 0 4 0 8 0 4 5 7 20
Neighs:       158427.0 ave      229090 max           0 min
Histogram: 4 2 2 0 4 4 4 4 10 18

Total # of neighbors = 8238205
Ave neighs/atom = 28.530481
Neighbor list builds = 0
Dangerous builds = 0
The dot product: -4.83864666640873e-07
Setting atom values ...
  1 settings made for x
  1 settings made for y
  1 settings made for z
Setting up cg style minimization ...
  Unit style    : metal
  Current step  : 7350
Per MPI rank memory allocation (min/avg/max) = 5.465 | 6.344 | 6.728 Mbytes
Step PotEng KinEng TotEng v_fx v_fy v_fz 
    7350   -1152449.3            0   -1152449.3   0.06778267 0.0062429601 -0.043836369 
    7483   -1152449.3            0   -1152449.3 -4.2063652e-05 3.4251313e-05 -1.5735739e-05 
Loop time of 2.96048 on 52 procs for 133 steps with 288751 atoms

99.9% CPU use with 52 MPI tasks x 1 OpenMP threads

Minimization stats:
  Stopping criterion = linesearch alpha is zero
  Energy initial, next-to-last, final = 
     -1152449.27279701  -1152449.27444358  -1152449.27444358
  Force two-norm initial, final = 0.18041797 0.00027113059
  Force max component initial, final = 0.089188741 5.1814097e-05
  Final line search alpha, max atom move = 0.125 6.4767621e-06
  Iterations, force evaluations = 133 271

MPI task timing breakdown:
Section |  min time  |  avg time  |  max time  |%varavg| %total
---------------------------------------------------------------
Pair    | 0.76807    | 2.1634     | 2.8407     |  40.9 | 73.08
Neigh   | 0          | 0          | 0          |   0.0 |  0.00
Comm    | 0.036514   | 0.47758    | 1.5138     |  62.6 | 16.13
Output  | 0          | 0          | 0          |   0.0 |  0.00
Modify  | 5.1131e-05 | 0.0045243  | 0.0095932  |   3.1 |  0.15
Other   |            | 0.315      |            |       | 10.64

Nlocal:        5552.90 ave        7865 max           0 min
Histogram: 4 2 2 0 2 6 4 0 13 19
Nghost:        6213.69 ave        8771 max         412 min
Histogram: 4 0 4 0 8 0 4 5 7 20
Neighs:       158427.0 ave      229071 max           0 min
Histogram: 4 2 2 0 4 4 4 4 10 18

Total # of neighbors = 8238203
Ave neighs/atom = 28.530474
Neighbor list builds = 0
Dangerous builds = 0
The dot product: -3.6946591778075e-07
Setting atom values ...
  1 settings made for x
  1 settings made for y
  1 settings made for z
Setting up cg style minimization ...
  Unit style    : metal
  Current step  : 7483
Per MPI rank memory allocation (min/avg/max) = 5.465 | 6.344 | 6.728 Mbytes
Step PotEng KinEng TotEng v_fx v_fy v_fz 
    7483   -1152449.3            0   -1152449.3  0.017114178  0.007307155 -0.017888363 
    7698   -1152449.3            0   -1152449.3 -3.8352161e-06 7.6622275e-06 -6.5322847e-06 
Loop time of 4.67138 on 52 procs for 215 steps with 288751 atoms

99.9% CPU use with 52 MPI tasks x 1 OpenMP threads

Minimization stats:
  Stopping criterion = linesearch alpha is zero
[...]
Nghost:        6213.58 ave        8769 max         412 min
Histogram: 4 0 4 0 8 0 4 5 7 20
Neighs:       158427.0 ave      229993 max           0 min
Histogram: 4 2 2 0 5 3 4 4 12 16

Total # of neighbors = 8238190
Ave neighs/atom = 28.530429
Neighbor list builds = 0
Dangerous builds = 0
The dot product: -8.41144309007507e-08
Setting atom values ...
  1 settings made for x
  1 settings made for y
  1 settings made for z
Setting up cg style minimization ...
  Unit style    : metal
  Current step  : 16515
Per MPI rank memory allocation (min/avg/max) = 5.465 | 6.344 | 6.728 Mbytes
Step PotEng KinEng TotEng v_fx v_fy v_fz 
   16515   -1152449.3            0   -1152449.3 -0.042395007  0.025240163 0.0019029366 
   16699   -1152449.3            0   -1152449.3 1.8895784e-07 -5.7599325e-06 8.0780396e-06 
Loop time of 3.98114 on 52 procs for 184 steps with 288751 atoms

99.8% CPU use with 52 MPI tasks x 1 OpenMP threads

Minimization stats:
  Stopping criterion = energy tolerance
  Energy initial, next-to-last, final = 
     -1152449.33224443  -1152449.33327326  -1152449.33327326
  Force two-norm initial, final = 0.14052579 0.00011033556
  Force max component initial, final = 0.058471683 1.8024745e-05
  Final line search alpha, max atom move = 1.0000000 1.8024745e-05
  Iterations, force evaluations = 184 368

MPI task timing breakdown:
Section |  min time  |  avg time  |  max time  |%varavg| %total
---------------------------------------------------------------
Pair    | 1.0292     | 2.8901     | 3.7975     |  47.1 | 72.59
Neigh   | 0          | 0          | 0          |   0.0 |  0.00
Comm    | 0.046276   | 0.63423    | 2.0099     |  72.4 | 15.93
Output  | 0          | 0          | 0          |   0.0 |  0.00
Modify  | 6.3183e-05 | 0.006123   | 0.012976   |   3.6 |  0.15
Other   |            | 0.4507     |            |       | 11.32

Nlocal:        5552.90 ave        7900 max           0 min
Histogram: 4 2 2 0 2 6 4 0 14 18
Nghost:        6213.58 ave        8769 max         412 min
Histogram: 4 0 4 0 8 0 4 5 7 20
Neighs:       158427.0 ave      230243 max           0 min
Histogram: 4 2 2 0 5 3 4 4 12 16

Total # of neighbors = 8238191
Ave neighs/atom = 28.530433
Neighbor list builds = 0
Dangerous builds = 0
The dot product: -6.46294888497973e-09
Setting atom values ...
  1 settings made for x
  1 settings made for y
  1 settings made for z
Setting up cg style minimization ...
  Unit style    : metal
  Current step  : 16699
Per MPI rank memory allocation (min/avg/max) = 5.465 | 6.344 | 6.728 Mbytes
Step PotEng KinEng TotEng v_fx v_fy v_fz 
   16699   -1152449.3            0   -1152449.3 -0.043141667  0.025964745 0.0014074232 
   16890   -1152449.3            0   -1152449.3 -1.419666e-05 1.0207889e-05 -1.9205492e-06 
Loop time of 4.12773 on 52 procs for 191 steps with 288751 atoms

99.9% CPU use with 52 MPI tasks x 1 OpenMP threads

Minimization stats:
  Stopping criterion = linesearch alpha is zero
  Energy initial, next-to-last, final = 
     -1152449.33884135  -1152449.33988493  -1152449.33988493
  Force two-norm initial, final = 0.14145157 9.5614793e-05
  Force max component initial, final = 0.060160162 1.5000999e-05
  Final line search alpha, max atom move = 0.5 7.5004994e-06
  Iterations, force evaluations = 191 383

MPI task timing breakdown:
Section |  min time  |  avg time  |  max time  |%varavg| %total
---------------------------------------------------------------
Pair    | 1.0749     | 3.0115     | 3.9568     |  48.0 | 72.96
Neigh   | 0          | 0          | 0          |   0.0 |  0.00
Comm    | 0.048051   | 0.66086    | 2.0901     |  73.5 | 16.01
Output  | 0          | 0          | 0          |   0.0 |  0.00
Modify  | 6.2604e-05 | 0.0063382  | 0.013467   |   3.7 |  0.15
Other   |            | 0.449      |            |       | 10.88

Nlocal:        5552.90 ave        7904 max           0 min
Histogram: 4 2 2 0 2 6 4 0 15 17
Nghost:        6213.58 ave        8769 max         412 min
Histogram: 4 0 4 0 8 0 4 5 7 20
Neighs:       158427.0 ave      230346 max           0 min
Histogram: 4 2 2 0 5 3 4 4 12 16

Total # of neighbors = 8238192
Ave neighs/atom = 28.530436
Neighbor list builds = 0
Dangerous builds = 0
The dot product: 5.17112475654154e-08
Setting atom values ...
  1 settings made for x
  1 settings made for y
  1 settings made for z
Setting up cg style minimization ...
  Unit style    : metal
  Current step  : 16890
Per MPI rank memory allocation (min/avg/max) = 5.465 | 6.344 | 6.728 Mbytes
Step PotEng KinEng TotEng v_fx v_fy v_fz 
   16890   -1152449.3            0   -1152449.3 -0.042993755  0.026515775 0.00035219428 
   17000   -1152449.3            0   -1152449.3 1.9197356e-05 -6.448542e-05 7.532234e-05 
   17062   -1152449.3            0   -1152449.3 2.9888656e-05 -1.7740452e-05 -1.2383323e-06 
Loop time of 3.73017 on 52 procs for 172 steps with 288751 atoms

99.9% CPU use with 52 MPI tasks x 1 OpenMP threads

Minimization stats:
  Stopping criterion = linesearch alpha is zero
  Energy initial, next-to-last, final = 
      -1152449.3439586  -1152449.34501453  -1152449.34501453
  Force two-norm initial, final = 0.14200963 0.00018192449
  Force max component initial, final = 0.061823564 2.9888656e-05
  Final line search alpha, max atom move = 0.25 7.4721641e-06
  Iterations, force evaluations = 172 347

MPI task timing breakdown:
Section |  min time  |  avg time  |  max time  |%varavg| %total
---------------------------------------------------------------
Pair    | 0.97429    | 2.7296     | 3.5803     |  45.7 | 73.18
Neigh   | 0          | 0          | 0          |   0.0 |  0.00
Comm    | 0.043674   | 0.59742    | 1.8947     |  70.3 | 16.02
Output  | 0.00011675 | 0.00012122 | 0.00031155 |   0.0 |  0.00
Modify  | 5.908e-05  | 0.0057625  | 0.012311   |   3.5 |  0.15
Other   |            | 0.3973     |            |       | 10.65

Nlocal:        5552.90 ave        7908 max           0 min
Histogram: 4 2 2 0 2 6 4 0 15 17
Nghost:        6213.54 ave        8769 max         412 min
Histogram: 4 0 4 0 8 0 4 5 7 20
Neighs:       158427.0 ave      230472 max           0 min
Histogram: 4 2 2 0 5 3 4 4 12 16

Total # of neighbors = 8238191
Ave neighs/atom = 28.530433
Neighbor list builds = 0
Dangerous builds = 0
The dot product: -1.07527590280305e-07
Setting atom values ...
  1 settings made for x
  1 settings made for y
  1 settings made for z
Setting up cg style minimization ...
  Unit style    : metal
  Current step  : 17062
Per MPI rank memory allocation (min/avg/max) = 5.465 | 6.344 | 6.728 Mbytes
Step PotEng KinEng TotEng v_fx v_fy v_fz 
   17062   -1152449.3            0   -1152449.3 -0.042051942  0.026845626 -0.0010945565 
   17278   -1152449.3            0   -1152449.3 -5.4078537e-06 1.6405933e-06 2.4585341e-06 
Loop time of 4.65789 on 52 procs for 216 steps with 288751 atoms

99.8% CPU use with 52 MPI tasks x 1 OpenMP threads

Minimization stats:
  Stopping criterion = energy tolerance
  Energy initial, next-to-last, final = 
     -1152449.34760157  -1152449.34866832  -1152449.34866832
  Force two-norm initial, final = 0.14225531 3.1474165e-05
  Force max component initial, final = 0.063418615 5.4078537e-06
  Final line search alpha, max atom move = 1.0000000 5.4078537e-06
  Iterations, force evaluations = 216 432

MPI task timing breakdown:
Section |  min time  |  avg time  |  max time  |%varavg| %total
---------------------------------------------------------------
Pair    | 1.214      | 3.3988     | 4.4758     |  51.0 | 72.97
Neigh   | 0          | 0          | 0          |   0.0 |  0.00
Comm    | 0.054681   | 0.74627    | 2.3723     |  78.0 | 16.02
Output  | 0          | 0          | 0          |   0.0 |  0.00
Modify  | 7.3586e-05 | 0.0071563  | 0.015191   |   3.9 |  0.15
Other   |            | 0.5056     |            |       | 10.86

Nlocal:        5552.90 ave        7910 max           0 min
Histogram: 4 2 2 0 2 6 4 0 15 17
Nghost:        6213.54 ave        8769 max         412 min
Histogram: 4 0 4 0 8 0 4 5 7 20
Neighs:       158427.0 ave      230543 max           0 min
Histogram: 4 2 2 0 5 3 4 4 12 16

Total # of neighbors = 8238188
Ave neighs/atom = 28.530422
Neighbor list builds = 0
Dangerous builds = 0
The dot product: 1.76827536849895e-08
Setting atom values ...
  1 settings made for x
  1 settings made for y
  1 settings made for z
Setting up cg style minimization ...
  Unit style    : metal
  Current step  : 17278
Per MPI rank memory allocation (min/avg/max) = 5.465 | 6.344 | 6.728 Mbytes
Step PotEng KinEng TotEng v_fx v_fy v_fz 
   17278   -1152449.3            0   -1152449.3 -0.040721945  0.027106278 -0.002781266 
   17464   -1152449.4            0   -1152449.4 7.6178336e-06 -2.4480672e-06 -3.2450561e-06 
Loop time of 4.01084 on 52 procs for 186 steps with 288751 atoms

99.9% CPU use with 52 MPI tasks x 1 OpenMP threads

Minimization stats:
  Stopping criterion = linesearch alpha is zero
  Energy initial, next-to-last, final = 
      -1152449.3497752  -1152449.35085135  -1152449.35085135
  Force two-norm initial, final = 0.14241158 0.00010442954
  Force max component initial, final = 0.064976724 2.1459188e-05
  Final line search alpha, max atom move = 0.5 1.0729594e-05
  Iterations, force evaluations = 186 373

MPI task timing breakdown:
Section |  min time  |  avg time  |  max time  |%varavg| %total
---------------------------------------------------------------
Pair    | 1.0493     | 2.9336     | 3.8539     |  47.4 | 73.14
Neigh   | 0          | 0          | 0          |   0.0 |  0.00
Comm    | 0.046659   | 0.64129    | 2.0364     |  72.8 | 15.99
Output  | 0          | 0          | 0          |   0.0 |  0.00
Modify  | 6.1836e-05 | 0.0061734  | 0.013097   |   3.7 |  0.15
Other   |            | 0.4297     |            |       | 10.71

Nlocal:        5552.90 ave        7913 max           0 min
Histogram: 4 2 2 0 2 6 4 1 14 17
Nghost:        6213.54 ave        8769 max         412 min
Histogram: 4 0 4 0 8 0 4 5 7 20
Neighs:       158427.0 ave      230645 max           0 min
Histogram: 4 2 2 0 5 3 4 4 12 16

Total # of neighbors = 8238188
Ave neighs/atom = 28.530422
Neighbor list builds = 0
Dangerous builds = 0
The dot product: -2.43323101790484e-08
Setting atom values ...
  1 settings made for x
  1 settings made for y
  1 settings made for z
Setting up cg style minimization ...
  Unit style    : metal
  Current step  : 17464
Per MPI rank memory allocation (min/avg/max) = 5.465 | 6.344 | 6.728 Mbytes
Step PotEng KinEng TotEng v_fx v_fy v_fz 
   17464   -1152449.4            0   -1152449.4 -0.039320313  0.027292953 -0.0044159405 
   17659   -1152449.4            0   -1152449.4 -7.399401e-06 8.9716228e-06 -6.3417524e-06 
Loop time of 4.21496 on 52 procs for 195 steps with 288751 atoms

99.8% CPU use with 52 MPI tasks x 1 OpenMP threads

Minimization stats:
  Stopping criterion = linesearch alpha is zero
  Energy initial, next-to-last, final = 
     -1152449.35049105  -1152449.35157345  -1152449.35157345
  Force two-norm initial, final = 0.14244836 8.5216316e-05
  Force max component initial, final = 0.066455704 1.2904354e-05
  Final line search alpha, max atom move = 0.5 6.4521772e-06
  Iterations, force evaluations = 195 391

MPI task timing breakdown:
Section |  min time  |  avg time  |  max time  |%varavg| %total
---------------------------------------------------------------
Pair    | 1.0973     | 3.0728     | 4.0431     |  48.6 | 72.90
Neigh   | 0          | 0          | 0          |   0.0 |  0.00
Comm    | 0.051718   | 0.67464    | 2.1338     |  74.3 | 16.01
Output  | 0          | 0          | 0          |   0.0 |  0.00
Modify  | 6.6902e-05 | 0.0064894  | 0.013775   |   3.7 |  0.15
Other   |            | 0.461      |            |       | 10.94

Nlocal:        5552.90 ave        7916 max           0 min
Histogram: 4 2 2 0 2 6 4 1 14 17
Nghost:        6213.54 ave        8769 max         412 min
Histogram: 4 0 4 0 8 0 4 5 7 20
Neighs:       158427.0 ave      230763 max           0 min
Histogram: 4 2 2 0 5 3 4 4 12 16

Total # of neighbors = 8238190
Ave neighs/atom = 28.530429
Neighbor list builds = 0
Dangerous builds = 0
The dot product: 3.17051134074672e-08
Setting atom values ...
  1 settings made for x
  1 settings made for y
  1 settings made for z
Setting up cg style minimization ...
  Unit style    : metal
  Current step  : 17659
Per MPI rank memory allocation (min/avg/max) = 5.465 | 6.344 | 6.728 Mbytes
Step PotEng KinEng TotEng v_fx v_fy v_fz 
   17659   -1152449.3            0   -1152449.3 -0.038577554  0.027581982 -0.0056067319 
   17815   -1152449.4            0   -1152449.4 -3.1387188e-05 -1.343511e-05 4.7023967e-05 
Loop time of 3.41454 on 52 procs for 156 steps with 288751 atoms

99.9% CPU use with 52 MPI tasks x 1 OpenMP threads

Minimization stats:
  Stopping criterion = linesearch alpha is zero
  Energy initial, next-to-last, final = 
     -1152449.34977877  -1152449.35086501  -1152449.35086501
  Force two-norm initial, final = 0.14251428 0.00027527403
  Force max component initial, final = 0.067917852 4.7023967e-05
  Final line search alpha, max atom move = 0.125 5.8779959e-06
  Iterations, force evaluations = 156 317

MPI task timing breakdown:
Section |  min time  |  avg time  |  max time  |%varavg| %total
---------------------------------------------------------------
Pair    | 0.89248    | 2.4944     | 3.2806     |  43.7 | 73.05
Neigh   | 0          | 0          | 0          |   0.0 |  0.00
Comm    | 0.040089   | 0.54697    | 1.7315     |  67.0 | 16.02
Output  | 0          | 0          | 0          |   0.0 |  0.00
Modify  | 5.2136e-05 | 0.0052498  | 0.011152   |   3.4 |  0.15
Other   |            | 0.3679     |            |       | 10.78

Nlocal:        5552.90 ave        7917 max           0 min
Histogram: 4 2 2 0 2 6 4 1 14 17
Nghost:        6213.54 ave        8769 max         412 min
Histogram: 4 0 4 0 8 0 4 5 7 20
Neighs:       158427.0 ave      230805 max           0 min
Histogram: 4 2 2 0 5 3 4 4 12 16

Total # of neighbors = 8238196
Ave neighs/atom = 28.530450
Neighbor list builds = 0
Dangerous builds = 0
The dot product: 6.20763985725612e-08
Setting atom values ...
  1 settings made for x
  1 settings made for y
  1 settings made for z
Setting up cg style minimization ...
  Unit style    : metal
  Current step  : 17815
Per MPI rank memory allocation (min/avg/max) = 5.465 | 6.344 | 6.728 Mbytes
Step PotEng KinEng TotEng v_fx v_fy v_fz 
   17815   -1152449.3            0   -1152449.3 -0.039270904  0.028056248 -0.005797614 
   17996   -1152449.3            0   -1152449.3 -1.5613882e-05 -1.0074402e-05 2.8246676e-05 
Loop time of 3.90386 on 52 procs for 181 steps with 288751 atoms

99.9% CPU use with 52 MPI tasks x 1 OpenMP threads

Minimization stats:
  Stopping criterion = energy tolerance
  Energy initial, next-to-last, final = 
     -1152449.34771636  -1152449.34880866  -1152449.34880866
  Force two-norm initial, final = 0.14274721 0.00011856668
  Force max component initial, final = 0.069301272 2.8246676e-05
  Final line search alpha, max atom move = 1.0000000 2.8246676e-05
  Iterations, force evaluations = 181 362

MPI task timing breakdown:
Section |  min time  |  avg time  |  max time  |%varavg| %total
---------------------------------------------------------------
Pair    | 1.0172     | 2.8473     | 3.7462     |  46.7 | 72.94
Neigh   | 0          | 0          | 0          |   0.0 |  0.00
Comm    | 0.046066   | 0.62384    | 1.9736     |  71.5 | 15.98
Output  | 0          | 0          | 0          |   0.0 |  0.00
Modify  | 6.2214e-05 | 0.0059945  | 0.012689   |   3.6 |  0.15
Other   |            | 0.4267     |            |       | 10.93

Nlocal:        5552.90 ave        7917 max           0 min
Histogram: 4 2 2 0 2 6 4 1 14 17
Nghost:        6213.54 ave        8769 max         412 min
Histogram: 4 0 4 0 8 0 4 5 7 20
Neighs:       158427.0 ave      230812 max           0 min
Histogram: 4 2 2 0 5 3 4 4 12 16

Total # of neighbors = 8238193
Ave neighs/atom = 28.530440
Neighbor list builds = 0
Dangerous builds = 0
The dot product: 3.12682061625e-08
Setting atom values ...
  1 settings made for x
  1 settings made for y
  1 settings made for z
Setting up cg style minimization ...
  Unit style    : metal
  Current step  : 17996
Per MPI rank memory allocation (min/avg/max) = 5.465 | 6.344 | 6.728 Mbytes
Step PotEng KinEng TotEng v_fx v_fy v_fz 
   17996   -1152449.3            0   -1152449.3 -0.042357941  0.028937615 -0.0044877383 
   18000   -1152449.3            0   -1152449.3 0.0030008546 -0.00098512638 -0.001215994 
   18140   -1152449.3            0   -1152449.3 2.8589318e-05 6.5424005e-06 -3.452652e-05 
Loop time of 3.11036 on 52 procs for 144 steps with 288751 atoms

99.9% CPU use with 52 MPI tasks x 1 OpenMP threads

Minimization stats:
  Stopping criterion = energy tolerance
  Energy initial, next-to-last, final = 
     -1152449.34448354   -1152449.3456134   -1152449.3456134
  Force two-norm initial, final = 0.14405265 0.00022336882
  Force max component initial, final = 0.070643883 4.4577213e-05
  Final line search alpha, max atom move = 1.0000000 4.4577213e-05
  Iterations, force evaluations = 144 288

MPI task timing breakdown:
Section |  min time  |  avg time  |  max time  |%varavg| %total
---------------------------------------------------------------
Pair    | 0.81055    | 2.2664     | 2.982      |  41.6 | 72.86
Neigh   | 0          | 0          | 0          |   0.0 |  0.00
Comm    | 0.036046   | 0.49721    | 1.5721     |  63.7 | 15.99
Output  | 0.00020472 | 0.00020872 | 0.00035498 |   0.0 |  0.01
Modify  | 4.931e-05  | 0.0047699  | 0.010136   |   3.2 |  0.15
Other   |            | 0.3418     |            |       | 10.99

Nlocal:        5552.90 ave        7918 max           0 min
Histogram: 4 2 2 0 2 6 4 1 14 17
Nghost:        6213.54 ave        8769 max         412 min
Histogram: 4 0 4 0 8 0 4 5 7 20
Neighs:       158427.0 ave      230844 max           0 min
Histogram: 4 2 2 0 5 3 4 4 12 16

Total # of neighbors = 8238193
Ave neighs/atom = 28.530440
Neighbor list builds = 0
Dangerous builds = 0
The dot product: -1.12393393314914e-07
Setting atom values ...
  1 settings made for x
  1 settings made for y
  1 settings made for z
Setting up cg style minimization ...
  Unit style    : metal
  Current step  : 18140
Per MPI rank memory allocation (min/avg/max) = 5.465 | 6.344 | 6.728 Mbytes
Step PotEng KinEng TotEng v_fx v_fy v_fz 
   18140   -1152449.3            0   -1152449.3 -0.049537181  0.030473778 -0.0006070887 
   18395   -1152449.3            0   -1152449.3 -4.5838974e-06 -2.4340589e-06 7.5176448e-06 
Loop time of 5.51603 on 52 procs for 255 steps with 288751 atoms

99.9% CPU use with 52 MPI tasks x 1 OpenMP threads

Minimization stats:
  Stopping criterion = linesearch alpha is zero
  Energy initial, next-to-last, final = 
     -1152449.34053444  -1152449.34898285  -1152449.34898285
  Force two-norm initial, final = 0.1494898 0.00015545664
  Force max component initial, final = 0.071913289 2.3564415e-05
  Final line search alpha, max atom move = 0.5 1.1782207e-05
  Iterations, force evaluations = 255 511

MPI task timing breakdown:
Section |  min time  |  avg time  |  max time  |%varavg| %total
---------------------------------------------------------------
Pair    | 1.4423     | 4.0188     | 5.2742     |  55.3 | 72.86
Neigh   | 1.8462e-05 | 0.005722   | 0.0084225  |   3.2 |  0.10
Comm    | 0.064344   | 0.88128    | 2.7872     |  84.9 | 15.98
Output  | 0          | 0          | 0          |   0.0 |  0.00
Modify  | 8.0812e-05 | 0.0084593  | 0.017934   |   4.3 |  0.15
Other   |            | 0.6018     |            |       | 10.91

Nlocal:        5552.90 ave        7908 max           0 min
Histogram: 4 2 2 0 2 6 4 0 15 17
Nghost:        6213.54 ave        8769 max         412 min
Histogram: 4 0 4 0 8 0 4 5 7 20
Neighs:       158427.0 ave      230533 max           0 min
Histogram: 4 2 2 0 5 3 4 4 12 16

Total # of neighbors = 8238201
Ave neighs/atom = 28.530467
Neighbor list builds = 1
Dangerous builds = 0
The dot product: 4.53540937541653e-07
