LAMMPS (29 Oct 2020)
OMP_NUM_THREADS environment is not set. Defaulting to 1 thread. (../comm.cpp:94)
  using 1 OpenMP thread(s) per MPI task
OMP_NUM_THREADS environment is not set. Defaulting to 1 thread. (../comm.cpp:94)
  using 1 OpenMP thread(s) per MPI task
Reading data file ...
  orthogonal box = (-122.39241 -121.13707 -37.090501) to (122.39241 121.13707 37.090501)
  13 by 4 by 2 MPI processor grid
  reading atoms ...
  288751 atoms
  read_data CPU = 0.384 seconds
199981 atoms in group inner
88770 atoms in group outer
1 atoms in group carbon
Neighbor list info ...
  update every 1 steps, delay 0 steps, check yes
  max neighbors/atom: 2000, page size: 100000
  master list distance cutoff = 5.6
  ghost atom cutoff = 5.6
  binsize = 2.8, bins = 88 87 27
  1 neighbor lists, perpetual/occasional/extra = 1 0 0
  (1) pair eam/alloy, perpetual
      attributes: half, newton on
      pair build: half/bin/atomonly/newton
      stencil: half/bin/3d/newton
      bin: standard
Setting up cg style minimization ...
  Unit style    : metal
  Current step  : 0
Per MPI rank memory allocation (min/avg/max) = 5.441 | 5.816 | 6.074 Mbytes
Step v_fx v_fy v_fz PotEng KinEng TotEng 
       0   -0.5424459  0.023503117  -0.47526366   -1152447.8            0   -1152447.8 
     175 2.3155827e-06 4.800471e-06 3.0184269e-06   -1152449.5            0   -1152449.5 
Loop time of 2.1129 on 104 procs for 175 steps with 288751 atoms

99.8% CPU use with 104 MPI tasks x 1 OpenMP threads

Minimization stats:
  Stopping criterion = energy tolerance
  Energy initial, next-to-last, final = 
     -1152447.84719251  -1152449.45035262  -1152449.45035262
  Force two-norm initial, final = 9.7774586 4.7719819e-05
  Force max component initial, final = 4.4641426 8.0445457e-06
  Final line search alpha, max atom move = 1.0000000 8.0445457e-06
  Iterations, force evaluations = 175 349

MPI task timing breakdown:
Section |  min time  |  avg time  |  max time  |%varavg| %total
---------------------------------------------------------------
Pair    | 0.54237    | 1.4754     | 1.934      |  32.6 | 69.83
Neigh   | 2.3335e-05 | 0.0058294  | 0.0088377  |   3.2 |  0.28
Comm    | 0.03865    | 0.34088    | 0.99545    |  47.0 | 16.13
Output  | 0          | 0          | 0          |   0.0 |  0.00
Modify  | 1.9598e-05 | 0.0018956  | 0.0048448  |   2.7 |  0.09
Other   |            | 0.2889     |            |       | 13.67

Nlocal:        2776.45 ave        3960 max           0 min
Histogram: 8 4 4 0 4 12 8 2 28 34
Nghost:        3879.01 ave        5424 max         232 min
Histogram: 8 0 8 0 16 0 8 8 16 40
Neighs:        79213.4 ave      115432 max           0 min
Histogram: 8 4 4 0 10 6 8 8 24 32

Total # of neighbors = 8238197
Ave neighs/atom = 28.530454
Neighbor list builds = 2
Dangerous builds = 1
Setting atom values ...
  1 settings made for x
  1 settings made for y
  1 settings made for z
Setting up cg style minimization ...
  Unit style    : metal
  Current step  : 175
Per MPI rank memory allocation (min/avg/max) = 5.441 | 5.816 | 6.074 Mbytes
Step PotEng KinEng TotEng v_fx v_fy v_fz 
     175   -1152449.4            0   -1152449.4 0.0074160084 -0.015062055 -0.024555162 
     354   -1152449.5            0   -1152449.5 1.3680765e-06 -9.7727469e-06 -1.0513015e-05 
Loop time of 2.13463 on 104 procs for 179 steps with 288751 atoms

99.9% CPU use with 104 MPI tasks x 1 OpenMP threads

Minimization stats:
  Stopping criterion = energy tolerance
  Energy initial, next-to-last, final = 
     -1152449.44965286  -1152449.45007938  -1152449.45007938
  Force two-norm initial, final = 0.094089097 9.6048587e-05
  Force max component initial, final = 0.043955622 2.1277233e-05
  Final line search alpha, max atom move = 1.0000000 2.1277233e-05
  Iterations, force evaluations = 179 358

MPI task timing breakdown:
Section |  min time  |  avg time  |  max time  |%varavg| %total
---------------------------------------------------------------
Pair    | 0.54395    | 1.515      | 1.9809     |  33.3 | 70.97
Neigh   | 0          | 0          | 0          |   0.0 |  0.00
Comm    | 0.033987   | 0.34938    | 1.048      |  48.1 | 16.37
Output  | 0          | 0          | 0          |   0.0 |  0.00
Modify  | 2.2108e-05 | 0.0029621  | 0.0063374  |   2.6 |  0.14
Other   |            | 0.2673     |            |       | 12.52

Nlocal:        2776.45 ave        3961 max           0 min
Histogram: 8 4 4 0 6 10 8 2 28 34
Nghost:        3879.01 ave        5425 max         232 min
Histogram: 8 0 8 0 16 0 8 8 16 40
Neighs:        79213.4 ave      115455 max           0 min
Histogram: 8 4 4 0 10 6 8 8 24 32

Total # of neighbors = 8238197
Ave neighs/atom = 28.530454
Neighbor list builds = 0
Dangerous builds = 0
Setting atom values ...
  1 settings made for x
  1 settings made for y
  1 settings made for z
Setting up cg style minimization ...
  Unit style    : metal
  Current step  : 354
Per MPI rank memory allocation (min/avg/max) = 5.441 | 5.816 | 6.074 Mbytes
Step PotEng KinEng TotEng v_fx v_fy v_fz 
     354   -1152449.4            0   -1152449.4 0.0084628982 -0.017037427 -0.038873731 
     570   -1152449.4            0   -1152449.4 -1.2606446e-06 3.5774037e-06 7.1126833e-06 
Loop time of 2.57511 on 104 procs for 216 steps with 288751 atoms

99.9% CPU use with 104 MPI tasks x 1 OpenMP threads

Minimization stats:
  Stopping criterion = energy tolerance
  Energy initial, next-to-last, final = 
     -1152449.44696291  -1152449.44825575  -1152449.44825575
  Force two-norm initial, final = 0.16109997 3.9339459e-05
  Force max component initial, final = 0.087243893 7.1126833e-06
  Final line search alpha, max atom move = 1.0000000 7.1126833e-06
  Iterations, force evaluations = 216 432

MPI task timing breakdown:
Section |  min time  |  avg time  |  max time  |%varavg| %total
---------------------------------------------------------------
Pair    | 0.65972    | 1.8176     | 2.3882     |  36.4 | 70.58
Neigh   | 0          | 0          | 0          |   0.0 |  0.00
Comm    | 0.046498   | 0.41633    | 1.2305     |  52.6 | 16.17
Output  | 0          | 0          | 0          |   0.0 |  0.00
Modify  | 2.885e-05  | 0.0035804  | 0.0076422  |   2.8 |  0.14
Other   |            | 0.3376     |            |       | 13.11

Nlocal:        2776.45 ave        3961 max           0 min
Histogram: 8 4 4 0 6 10 8 2 28 34
Nghost:        3879.01 ave        5424 max         232 min
Histogram: 8 0 8 0 16 0 8 8 16 40
Neighs:        79213.4 ave      115455 max           0 min
Histogram: 8 4 4 0 10 6 8 8 24 32

Total # of neighbors = 8238196
Ave neighs/atom = 28.530450
Neighbor list builds = 0
Dangerous builds = 0
The dot product: -2.07832930370016e-08
Setting atom values ...
  1 settings made for x
  1 settings made for y
  1 settings made for z
Setting up cg style minimization ...
  Unit style    : metal
  Current step  : 570
Per MPI rank memory allocation (min/avg/max) = 5.441 | 5.816 | 6.074 Mbytes
Step PotEng KinEng TotEng v_fx v_fy v_fz 
     570   -1152449.4            0   -1152449.4 0.0059091187 -0.0096654383 -0.031375032 
     700   -1152449.4            0   -1152449.4 -1.851165e-05 -1.8831902e-05 1.5327818e-05 
Loop time of 1.55159 on 104 procs for 130 steps with 288751 atoms

99.9% CPU use with 104 MPI tasks x 1 OpenMP threads

Minimization stats:
  Stopping criterion = energy tolerance
  Energy initial, next-to-last, final = 
     -1152449.44358779  -1152449.44482264  -1152449.44482264
  Force two-norm initial, final = 0.15527419 0.00016763336
  Force max component initial, final = 0.092295489 2.6496075e-05
  Final line search alpha, max atom move = 1.0000000 2.6496075e-05
  Iterations, force evaluations = 130 260

MPI task timing breakdown:
Section |  min time  |  avg time  |  max time  |%varavg| %total
---------------------------------------------------------------
Pair    | 0.39537    | 1.101      | 1.449      |  28.4 | 70.96
Neigh   | 0          | 0          | 0          |   0.0 |  0.00
Comm    | 0.02796    | 0.25294    | 0.75316    |  41.0 | 16.30
Output  | 0          | 0          | 0          |   0.0 |  0.00
Modify  | 1.5835e-05 | 0.002151   | 0.0046214  |   2.2 |  0.14
Other   |            | 0.1955     |            |       | 12.60

Nlocal:        2776.45 ave        3960 max           0 min
Histogram: 8 4 4 0 4 12 8 2 28 34
Nghost:        3879.01 ave        5424 max         232 min
Histogram: 8 0 8 0 16 0 8 8 16 40
Neighs:        79213.4 ave      115412 max           0 min
Histogram: 8 4 4 0 10 6 8 8 24 32

Total # of neighbors = 8238193
Ave neighs/atom = 28.530440
Neighbor list builds = 0
Dangerous builds = 0
The dot product: -2.87426266448615e-08
Setting atom values ...
  1 settings made for x
  1 settings made for y
  1 settings made for z
Setting up cg style minimization ...
  Unit style    : metal
  Current step  : 700
Per MPI rank memory allocation (min/avg/max) = 5.441 | 5.816 | 6.074 Mbytes
Step PotEng KinEng TotEng v_fx v_fy v_fz 
     700   -1152449.4            0   -1152449.4 0.0023389718 -0.0090547944 -0.025050401 
     822   -1152449.4            0   -1152449.4 1.3490422e-05 1.4884766e-05 -1.0369906e-05 
Loop time of 1.43398 on 104 procs for 122 steps with 288751 atoms

99.9% CPU use with 104 MPI tasks x 1 OpenMP threads

Minimization stats:
  Stopping criterion = energy tolerance
  Energy initial, next-to-last, final = 
     -1152449.43869465  -1152449.43988059  -1152449.43988059
  Force two-norm initial, final = 0.15173666 0.00021008142
  Force max component initial, final = 0.095996609 3.9431252e-05
  Final line search alpha, max atom move = 1.0000000 3.9431252e-05
  Iterations, force evaluations = 122 244

MPI task timing breakdown:
Section |  min time  |  avg time  |  max time  |%varavg| %total
---------------------------------------------------------------
Pair    | 0.36821    | 1.0229     | 1.3443     |  27.4 | 71.33
Neigh   | 0          | 0          | 0          |   0.0 |  0.00
Comm    | 0.022868   | 0.23231    | 0.69344    |  39.9 | 16.20
Output  | 0          | 0          | 0          |   0.0 |  0.00
Modify  | 1.5089e-05 | 0.0020183  | 0.004312   |   2.1 |  0.14
Other   |            | 0.1768     |            |       | 12.33

Nlocal:        2776.45 ave        3960 max           0 min
Histogram: 8 4 4 0 4 12 8 2 28 34
Nghost:        3879.01 ave        5424 max         232 min
Histogram: 8 0 8 0 16 0 8 8 16 40
Neighs:        79213.4 ave      115412 max           0 min
Histogram: 8 4 4 0 10 6 8 8 24 32

Total # of neighbors = 8238194
Ave neighs/atom = 28.530443
Neighbor list builds = 0
Dangerous builds = 0
The dot product: 5.80166080715535e-09
Setting atom values ...
  1 settings made for x
  1 settings made for y
  1 settings made for z
Setting up cg style minimization ...
  Unit style    : metal
  Current step  : 822
Per MPI rank memory allocation (min/avg/max) = 5.441 | 5.816 | 6.074 Mbytes
Step PotEng KinEng TotEng v_fx v_fy v_fz 
     822   -1152449.4            0   -1152449.4 -0.0028415591 -0.012836916 -0.019587805 
     965   -1152449.4            0   -1152449.4 -3.8454023e-06 1.4374365e-05 4.4965902e-05 
Loop time of 1.72519 on 104 procs for 143 steps with 288751 atoms

99.9% CPU use with 104 MPI tasks x 1 OpenMP threads

Minimization stats:
  Stopping criterion = energy tolerance
  Energy initial, next-to-last, final = 
     -1152449.43236538  -1152449.43353211  -1152449.43353211
  Force two-norm initial, final = 0.15013947 0.00017145497
  Force max component initial, final = 0.099047927 4.4965902e-05
  Final line search alpha, max atom move = 1.0000000 4.4965902e-05
  Iterations, force evaluations = 143 286

MPI task timing breakdown:
Section |  min time  |  avg time  |  max time  |%varavg| %total
---------------------------------------------------------------
Pair    | 0.43271    | 1.2096     | 1.5837     |  29.8 | 70.12
Neigh   | 0          | 0          | 0          |   0.0 |  0.00
Comm    | 0.03007    | 0.27672    | 0.81513    |  43.0 | 16.04
Output  | 0          | 0          | 0          |   0.0 |  0.00
Modify  | 1.785e-05  | 0.0023642  | 0.005057   |   2.3 |  0.14
Other   |            | 0.2365     |            |       | 13.71

Nlocal:        2776.45 ave        3960 max           0 min
Histogram: 8 4 4 0 4 12 8 2 28 34
Nghost:        3879.01 ave        5424 max         232 min
Histogram: 8 0 8 0 16 0 8 8 16 40
Neighs:        79213.4 ave      115412 max           0 min
Histogram: 8 4 4 0 10 6 8 8 24 32

Total # of neighbors = 8238194
Ave neighs/atom = 28.530443
Neighbor list builds = 0
Dangerous builds = 0
The dot product: -9.37850071022487e-08
Setting atom values ...
  1 settings made for x
  1 settings made for y
  1 settings made for z
Setting up cg style minimization ...
  Unit style    : metal
  Current step  : 965
Per MPI rank memory allocation (min/avg/max) = 5.441 | 5.816 | 6.074 Mbytes
Step PotEng KinEng TotEng v_fx v_fy v_fz 
     965   -1152449.4            0   -1152449.4 -0.0078480524 -0.016492689 -0.014546055 
    1000   -1152449.4            0   -1152449.4 -0.00012693868 -1.4908177e-05 0.00039944806 
    1140   -1152449.4            0   -1152449.4 -1.6197726e-06 4.1992735e-06 1.6159544e-05 
Loop time of 2.06347 on 104 procs for 175 steps with 288751 atoms

99.9% CPU use with 104 MPI tasks x 1 OpenMP threads

Minimization stats:
  Stopping criterion = energy tolerance
  Energy initial, next-to-last, final = 
     -1152449.42472334  -1152449.42589734  -1152449.42589734
  Force two-norm initial, final = 0.14951135 0.00011163222
  Force max component initial, final = 0.10164305 1.6159544e-05
  Final line search alpha, max atom move = 1.0000000 1.6159544e-05
  Iterations, force evaluations = 175 350

MPI task timing breakdown:
Section |  min time  |  avg time  |  max time  |%varavg| %total
---------------------------------------------------------------
Pair    | 0.52954    | 1.4683     | 1.9245     |  32.8 | 71.15
Neigh   | 0          | 0          | 0          |   0.0 |  0.00
Comm    | 0.03622    | 0.33456    | 0.99124    |  47.6 | 16.21
Output  | 0.00015769 | 0.00016047 | 0.00024789 |   0.0 |  0.01
Modify  | 2.1741e-05 | 0.0028945  | 0.0062043  |   2.5 |  0.14
Other   |            | 0.2576     |            |       | 12.48

Nlocal:        2776.45 ave        3959 max           0 min
Histogram: 8 4 4 0 4 12 8 2 28 34
Nghost:        3879.01 ave        5424 max         232 min
Histogram: 8 0 8 0 16 0 8 8 16 40
Neighs:        79213.4 ave      115389 max           0 min
Histogram: 8 4 4 0 10 6 8 8 24 32

Total # of neighbors = 8238194
Ave neighs/atom = 28.530443
Neighbor list builds = 0
Dangerous builds = 0
The dot product: -3.0106201047934e-08
Setting atom values ...
  1 settings made for x
  1 settings made for y
  1 settings made for z
Setting up cg style minimization ...
  Unit style    : metal
  Current step  : 1140
Per MPI rank memory allocation (min/avg/max) = 5.441 | 5.816 | 6.074 Mbytes
Step PotEng KinEng TotEng v_fx v_fy v_fz 
    1140   -1152449.4            0   -1152449.4 -0.010862908 -0.017283732 -0.010313485 
    1260   -1152449.4            0   -1152449.4 -7.6284565e-06 -1.9337993e-05 -2.7364067e-05 
Loop time of 1.40079 on 104 procs for 120 steps with 288751 atoms

99.9% CPU use with 104 MPI tasks x 1 OpenMP threads

Minimization stats:
  Stopping criterion = energy tolerance
  Energy initial, next-to-last, final = 
     -1152449.41580241  -1152449.41698624  -1152449.41698624
  Force two-norm initial, final = 0.14932907 0.00016691051
  Force max component initial, final = 0.10381027 3.0700923e-05
  Final line search alpha, max atom move = 1.0000000 3.0700923e-05
  Iterations, force evaluations = 120 240

MPI task timing breakdown:
Section |  min time  |  avg time  |  max time  |%varavg| %total
---------------------------------------------------------------
Pair    | 0.36312    | 1.0114     | 1.3199     |  27.1 | 72.20
Neigh   | 0          | 0          | 0          |   0.0 |  0.00
Comm    | 0.023815   | 0.22834    | 0.68506    |  39.9 | 16.30
Output  | 0          | 0          | 0          |   0.0 |  0.00
Modify  | 1.4557e-05 | 0.0019857  | 0.0042368  |   2.1 |  0.14
Other   |            | 0.159      |            |       | 11.35

Nlocal:        2776.45 ave        3959 max           0 min
Histogram: 8 4 4 0 4 12 8 2 28 34
Nghost:        3879.01 ave        5424 max         232 min
Histogram: 8 0 8 0 16 0 8 8 16 40
Neighs:        79213.4 ave      115389 max           0 min
Histogram: 8 4 4 0 10 6 8 8 24 32

Total # of neighbors = 8238193
Ave neighs/atom = 28.530440
Neighbor list builds = 0
Dangerous builds = 0
The dot product: 1.39839118448433e-07
Setting atom values ...
  1 settings made for x
  1 settings made for y
  1 settings made for z
Setting up cg style minimization ...
  Unit style    : metal
  Current step  : 1260
Per MPI rank memory allocation (min/avg/max) = 5.441 | 5.816 | 6.074 Mbytes
Step PotEng KinEng TotEng v_fx v_fy v_fz 
    1260   -1152449.4            0   -1152449.4 -0.011634761 -0.015637082 -0.0071209904 
    1388   -1152449.4            0   -1152449.4 2.6179821e-06 -3.6015794e-06 -2.0135407e-05 
Loop time of 1.50937 on 104 procs for 128 steps with 288751 atoms

99.9% CPU use with 104 MPI tasks x 1 OpenMP threads

Minimization stats:
  Stopping criterion = energy tolerance
  Energy initial, next-to-last, final = 
     -1152449.40558876  -1152449.40677451  -1152449.40677451
  Force two-norm initial, final = 0.14944123 0.00017107592
  Force max component initial, final = 0.10559403 2.0135407e-05
  Final line search alpha, max atom move = 1.0000000 2.0135407e-05
  Iterations, force evaluations = 128 256

MPI task timing breakdown:
Section |  min time  |  avg time  |  max time  |%varavg| %total
---------------------------------------------------------------
Pair    | 0.38387    | 1.0746     | 1.4089     |  28.1 | 71.19
Neigh   | 0          | 0          | 0          |   0.0 |  0.00
Comm    | 0.026624   | 0.24376    | 0.72932    |  41.1 | 16.15
Output  | 0          | 0          | 0          |   0.0 |  0.00
Modify  | 1.5679e-05 | 0.0021194  | 0.0045489  |   2.2 |  0.14
Other   |            | 0.1889     |            |       | 12.52

Nlocal:        2776.45 ave        3958 max           0 min
Histogram: 8 4 4 0 4 12 8 2 28 34
Nghost:        3879.01 ave        5424 max         232 min
Histogram: 8 0 8 0 16 0 8 8 16 40
Neighs:        79213.4 ave      115361 max           0 min
Histogram: 8 4 4 0 10 6 8 8 24 32

Total # of neighbors = 8238195
Ave neighs/atom = 28.530447
Neighbor list builds = 0
Dangerous builds = 0
The dot product: 2.30507631499273e-08
Setting atom values ...
  1 settings made for x
  1 settings made for y
  1 settings made for z
Setting up cg style minimization ...
  Unit style    : metal
  Current step  : 1388
Per MPI rank memory allocation (min/avg/max) = 5.441 | 5.816 | 6.074 Mbytes
Step PotEng KinEng TotEng v_fx v_fy v_fz 
    1388   -1152449.4            0   -1152449.4 -0.010476745 -0.012456569 -0.0046278653 
    1510   -1152449.4            0   -1152449.4 -4.4901359e-06 -1.1643112e-05 -2.2670797e-05 
Loop time of 1.44038 on 104 procs for 122 steps with 288751 atoms

99.9% CPU use with 104 MPI tasks x 1 OpenMP threads

Minimization stats:
  Stopping criterion = energy tolerance
  Energy initial, next-to-last, final = 
     -1152449.39404904  -1152449.39522712  -1152449.39522712
  Force two-norm initial, final = 0.14972376 0.00020377085
  Force max component initial, final = 0.10706954 2.4692358e-05
  Final line search alpha, max atom move = 1.0000000 2.4692358e-05
  Iterations, force evaluations = 122 244

MPI task timing breakdown:
Section |  min time  |  avg time  |  max time  |%varavg| %total
---------------------------------------------------------------
Pair    | 0.3692     | 1.0309     | 1.3549     |  27.4 | 71.57
Neigh   | 0          | 0          | 0          |   0.0 |  0.00
Comm    | 0.026269   | 0.23515    | 0.70374    |  39.9 | 16.33
Output  | 0          | 0          | 0          |   0.0 |  0.00
Modify  | 1.5041e-05 | 0.0020155  | 0.0043066  |   2.1 |  0.14
Other   |            | 0.1723     |            |       | 11.96

Nlocal:        2776.45 ave        3957 max           0 min
Histogram: 8 4 4 0 4 12 8 2 28 34
Nghost:        3879.01 ave        5424 max         232 min
Histogram: 8 0 8 0 16 0 8 8 16 40
Neighs:        79213.4 ave      115332 max           0 min
Histogram: 8 4 4 0 10 6 8 8 24 32

Total # of neighbors = 8238196
Ave neighs/atom = 28.530450
Neighbor list builds = 0
Dangerous builds = 0
The dot product: 8.34537849416228e-08
Setting atom values ...
  1 settings made for x
  1 settings made for y
  1 settings made for z
Setting up cg style minimization ...
  Unit style    : metal
  Current step  : 1510
Per MPI rank memory allocation (min/avg/max) = 5.441 | 5.816 | 6.074 Mbytes
Step PotEng KinEng TotEng v_fx v_fy v_fz 
    1510   -1152449.4            0   -1152449.4 -0.0079374452 -0.0086325509 -0.0028100436 
    1714   -1152449.4            0   -1152449.4 -1.9093048e-06 -2.3846373e-06 -1.7472293e-06 
Loop time of 2.42638 on 104 procs for 204 steps with 288751 atoms

99.9% CPU use with 104 MPI tasks x 1 OpenMP threads

Minimization stats:
  Stopping criterion = energy tolerance
  Energy initial, next-to-last, final = 
     -1152449.38114616  -1152449.38231327  -1152449.38231327
  Force two-norm initial, final = 0.150207 3.7191477e-05
  Force max component initial, final = 0.10844035 3.6751676e-06
  Final line search alpha, max atom move = 1.0000000 3.6751676e-06
  Iterations, force evaluations = 204 408

MPI task timing breakdown:
Section |  min time  |  avg time  |  max time  |%varavg| %total
---------------------------------------------------------------
Pair    | 0.62552    | 1.7204     | 2.2681     |  35.5 | 70.90
Neigh   | 0          | 0          | 0          |   0.0 |  0.00
Comm    | 0.036408   | 0.39593    | 1.1635     |  51.1 | 16.32
Output  | 0          | 0          | 0          |   0.0 |  0.00
Modify  | 2.4364e-05 | 0.003382   | 0.0072147  |   2.7 |  0.14
Other   |            | 0.3067     |            |       | 12.64

Nlocal:        2776.45 ave        3955 max           0 min
Histogram: 8 4 4 0 4 12 8 0 30 34
Nghost:        3879.01 ave        5424 max         232 min
Histogram: 8 0 8 0 16 0 8 8 16 40
Neighs:        79213.4 ave      115268 max           0 min
Histogram: 8 4 4 0 10 6 8 8 24 32

Total # of neighbors = 8238193
Ave neighs/atom = 28.530440
Neighbor list builds = 0
Dangerous builds = 0
The dot product: 1.61312777617557e-08
Setting atom values ...
  1 settings made for x
  1 settings made for y
  1 settings made for z
Setting up cg style minimization ...
  Unit style    : metal
  Current step  : 1714
Per MPI rank memory allocation (min/avg/max) = 5.441 | 5.816 | 6.074 Mbytes
Step PotEng KinEng TotEng v_fx v_fy v_fz 
    1714   -1152449.4            0   -1152449.4 -0.0045157038 -0.0046240215 -0.001445558 
    1859   -1152449.4            0   -1152449.4 -7.4240952e-06 8.0288892e-07 2.8220299e-05 
Loop time of 1.70423 on 104 procs for 145 steps with 288751 atoms

99.9% CPU use with 104 MPI tasks x 1 OpenMP threads

Minimization stats:
  Stopping criterion = energy tolerance
  Energy initial, next-to-last, final = 
     -1152449.36685622  -1152449.36801297  -1152449.36801297
  Force two-norm initial, final = 0.1509114 0.00011756818
  Force max component initial, final = 0.10981576 2.8220299e-05
  Final line search alpha, max atom move = 1.0000000 2.8220299e-05
  Iterations, force evaluations = 145 290

MPI task timing breakdown:
Section |  min time  |  avg time  |  max time  |%varavg| %total
---------------------------------------------------------------
Pair    | 0.43744    | 1.2225     | 1.5963     |  29.9 | 71.73
Neigh   | 0          | 0          | 0          |   0.0 |  0.00
Comm    | 0.026499   | 0.2803     | 0.85617    |  43.9 | 16.45
Output  | 0          | 0          | 0          |   0.0 |  0.00
Modify  | 1.7036e-05 | 0.0024005  | 0.005124   |   2.3 |  0.14
Other   |            | 0.1991     |            |       | 11.68

Nlocal:        2776.45 ave        3952 max           0 min
Histogram: 8 4 4 0 4 12 8 0 30 34
Nghost:        3879.01 ave        5424 max         232 min
Histogram: 8 0 8 0 16 0 8 8 16 40
Neighs:        79213.4 ave      115176 max           0 min
Histogram: 8 4 4 0 10 6 8 8 24 32

Total # of neighbors = 8238192
Ave neighs/atom = 28.530436
Neighbor list builds = 0
Dangerous builds = 0
The dot product: -6.77905744318821e-09
Setting atom values ...
  1 settings made for x
  1 settings made for y
  1 settings made for z
Setting up cg style minimization ...
  Unit style    : metal
  Current step  : 1859
Per MPI rank memory allocation (min/avg/max) = 5.441 | 5.816 | 6.074 Mbytes
Step PotEng KinEng TotEng v_fx v_fy v_fz 
    1859   -1152449.4            0   -1152449.4 -0.00068259131 -0.00079515053 -0.00067781122 
    2000   -1152449.4            0   -1152449.4 -5.50641e-06 -5.4376885e-06 -1.7724114e-06 
    2044   -1152449.4            0   -1152449.4 -4.4683378e-07 -4.519479e-07 -1.8427575e-07 
Loop time of 2.16057 on 104 procs for 185 steps with 288751 atoms

99.9% CPU use with 104 MPI tasks x 1 OpenMP threads

Minimization stats:
  Stopping criterion = energy tolerance
  Energy initial, next-to-last, final = 
     -1152449.35116353   -1152449.3523086   -1152449.3523086
  Force two-norm initial, final = 0.15186427 6.3241068e-05
  Force max component initial, final = 0.11133879 7.7672665e-06
  Final line search alpha, max atom move = 1.0000000 7.7672665e-06
  Iterations, force evaluations = 185 370

MPI task timing breakdown:
Section |  min time  |  avg time  |  max time  |%varavg| %total
---------------------------------------------------------------
Pair    | 0.55615    | 1.5484     | 2.0345     |  33.6 | 71.67
Neigh   | 0          | 0          | 0          |   0.0 |  0.00
Comm    | 0.035838   | 0.35249    | 1.0482     |  49.0 | 16.31
Output  | 0.00024201 | 0.00024567 | 0.00038272 |   0.0 |  0.01
Modify  | 2.3208e-05 | 0.0030595  | 0.0065419  |   2.6 |  0.14
Other   |            | 0.2563     |            |       | 11.86

Nlocal:        2776.45 ave        3948 max           0 min
Histogram: 8 4 4 0 4 12 8 0 28 36
Nghost:        3878.99 ave        5424 max         232 min
Histogram: 8 0 8 0 16 0 8 8 16 40
Neighs:        79213.4 ave      115033 max           0 min
Histogram: 8 4 4 0 10 6 8 8 24 32

Total # of neighbors = 8238192
Ave neighs/atom = 28.530436
Neighbor list builds = 0
Dangerous builds = 0
The dot product: 1.82916129742032e-09
Setting atom values ...
  1 settings made for x
  1 settings made for y
  1 settings made for z
Setting up cg style minimization ...
  Unit style    : metal
  Current step  : 2044
Per MPI rank memory allocation (min/avg/max) = 5.441 | 5.816 | 6.074 Mbytes
Step PotEng KinEng TotEng v_fx v_fy v_fz 
    2044   -1152449.3            0   -1152449.3 0.0030486926 0.0027338653 0.00017866531 
    2160   -1152449.3            0   -1152449.3 -9.6251749e-06 -2.4868194e-05 -6.3868446e-05 
Loop time of 1.36149 on 104 procs for 116 steps with 288751 atoms

99.9% CPU use with 104 MPI tasks x 1 OpenMP threads

Minimization stats:
  Stopping criterion = energy tolerance
  Energy initial, next-to-last, final = 
     -1152449.33404471  -1152449.33518098  -1152449.33518098
  Force two-norm initial, final = 0.15307278 0.00020056029
  Force max component initial, final = 0.11305056 6.3868446e-05
  Final line search alpha, max atom move = 1.0000000 6.3868446e-05
  Iterations, force evaluations = 116 232

MPI task timing breakdown:
Section |  min time  |  avg time  |  max time  |%varavg| %total
---------------------------------------------------------------
Pair    | 0.34999    | 0.97793    | 1.2789     |  26.7 | 71.83
Neigh   | 0          | 0          | 0          |   0.0 |  0.00
Comm    | 0.023095   | 0.22092    | 0.65781    |  39.1 | 16.23
Output  | 0          | 0          | 0          |   0.0 |  0.00
Modify  | 1.3765e-05 | 0.0019211  | 0.0040963  |   2.1 |  0.14
Other   |            | 0.1607     |            |       | 11.80

Nlocal:        2776.45 ave        3942 max           0 min
Histogram: 8 4 4 0 4 12 8 0 28 36
Nghost:        3878.99 ave        5424 max         232 min
Histogram: 8 0 8 0 16 0 8 8 16 40
Neighs:        79213.4 ave      114848 max           0 min
Histogram: 8 4 4 0 10 6 8 8 22 34

Total # of neighbors = 8238191
Ave neighs/atom = 28.530433
Neighbor list builds = 0
Dangerous builds = 0
The dot product: 8.69679019249876e-08
Setting atom values ...
  1 settings made for x
  1 settings made for y
  1 settings made for z
Setting up cg style minimization ...
  Unit style    : metal
  Current step  : 2160
Per MPI rank memory allocation (min/avg/max) = 5.441 | 5.816 | 6.074 Mbytes
Step PotEng KinEng TotEng v_fx v_fy v_fz 
    2160   -1152449.3            0   -1152449.3 0.0065747546  0.005941302 0.00085028673 
    2370   -1152449.3            0   -1152449.3 -5.2062846e-06 -5.1472029e-06 -2.4379423e-06 
Loop time of 2.46964 on 104 procs for 210 steps with 288751 atoms

99.9% CPU use with 104 MPI tasks x 1 OpenMP threads

Minimization stats:
  Stopping criterion = energy tolerance
  Energy initial, next-to-last, final = 
     -1152449.31547952  -1152449.31661531  -1152449.31661531
  Force two-norm initial, final = 0.15454687 2.8371500e-05
  Force max component initial, final = 0.1149823 5.2062846e-06
  Final line search alpha, max atom move = 1.0000000 5.2062846e-06
  Iterations, force evaluations = 210 420

MPI task timing breakdown:
Section |  min time  |  avg time  |  max time  |%varavg| %total
---------------------------------------------------------------
Pair    | 0.63194    | 1.7593     | 2.2996     |  35.9 | 71.24
Neigh   | 0          | 0          | 0          |   0.0 |  0.00
Comm    | 0.04262    | 0.39759    | 1.1896     |  52.6 | 16.10
Output  | 0          | 0          | 0          |   0.0 |  0.00
Modify  | 2.4403e-05 | 0.0034647  | 0.0074032  |   2.8 |  0.14
Other   |            | 0.3092     |            |       | 12.52

Nlocal:        2776.45 ave        3932 max           0 min
Histogram: 8 4 4 0 4 12 8 0 26 38
Nghost:        3879.01 ave        5424 max         232 min
Histogram: 8 0 8 0 16 0 8 8 16 40
Neighs:        79213.4 ave      114530 max           0 min
Histogram: 8 4 4 0 8 8 8 8 20 36

Total # of neighbors = 8238191
Ave neighs/atom = 28.530433
Neighbor list builds = 0
Dangerous builds = 0
The dot product: 3.98526735285165e-09
Setting atom values ...
  1 settings made for x
  1 settings made for y
  1 settings made for z
Setting up cg style minimization ...
  Unit style    : metal
  Current step  : 2370
Per MPI rank memory allocation (min/avg/max) = 5.441 | 5.816 | 6.074 Mbytes
Step PotEng KinEng TotEng v_fx v_fy v_fz 
    2370   -1152449.3            0   -1152449.3 0.0099194109  0.009041268  0.001699141 
    2492   -1152449.3            0   -1152449.3 -1.0291121e-05 -1.1438237e-05 -1.0091758e-05 
Loop time of 1.43232 on 104 procs for 122 steps with 288751 atoms

99.9% CPU use with 104 MPI tasks x 1 OpenMP threads

Minimization stats:
  Stopping criterion = energy tolerance
  Energy initial, next-to-last, final = 
     -1152449.29545837  -1152449.29660112  -1152449.29660112
  Force two-norm initial, final = 0.15630837 0.00015716085
  Force max component initial, final = 0.11708 2.3008381e-05
  Final line search alpha, max atom move = 1.0000000 2.3008381e-05
  Iterations, force evaluations = 122 244

MPI task timing breakdown:
Section |  min time  |  avg time  |  max time  |%varavg| %total
---------------------------------------------------------------
Pair    | 0.36785    | 1.0287     | 1.3464     |  27.5 | 71.82
Neigh   | 0          | 0          | 0          |   0.0 |  0.00
Comm    | 0.024201   | 0.23319    | 0.69631    |  40.0 | 16.28
Output  | 0          | 0          | 0          |   0.0 |  0.00
Modify  | 1.465e-05  | 0.0020178  | 0.0042967  |   2.1 |  0.14
Other   |            | 0.1684     |            |       | 11.76

Nlocal:        2776.45 ave        3930 max           0 min
Histogram: 8 4 4 0 4 12 8 0 26 38
Nghost:        3879.01 ave        5424 max         232 min
Histogram: 8 0 8 0 16 0 8 8 16 40
Neighs:        79213.4 ave      114464 max           0 min
Histogram: 8 4 4 0 8 8 8 8 20 36

Total # of neighbors = 8238191
Ave neighs/atom = 28.530433
Neighbor list builds = 0
Dangerous builds = 0
The dot product: -6.48265983445731e-09
Setting atom values ...
  1 settings made for x
  1 settings made for y
  1 settings made for z
Setting up cg style minimization ...
  Unit style    : metal
  Current step  : 2492
Per MPI rank memory allocation (min/avg/max) = 5.441 | 5.816 | 6.074 Mbytes
Step PotEng KinEng TotEng v_fx v_fy v_fz 
    2492   -1152449.3            0   -1152449.3  0.013160509   0.01202558 0.0021251045 
    2635   -1152449.3            0   -1152449.3 3.0203333e-06 8.1333142e-06 2.2428181e-05 
Loop time of 1.67161 on 104 procs for 143 steps with 288751 atoms

99.9% CPU use with 104 MPI tasks x 1 OpenMP threads

Minimization stats:
  Stopping criterion = energy tolerance
  Energy initial, next-to-last, final = 
     -1152449.27397369  -1152449.27513363  -1152449.27513363
  Force two-norm initial, final = 0.15845006 0.00017553973
  Force max component initial, final = 0.11939309 2.8376502e-05
  Final line search alpha, max atom move = 1.0000000 2.8376502e-05
  Iterations, force evaluations = 143 286

MPI task timing breakdown:
Section |  min time  |  avg time  |  max time  |%varavg| %total
---------------------------------------------------------------
Pair    | 0.43032    | 1.1977     | 1.5639     |  29.6 | 71.65
Neigh   | 0          | 0          | 0          |   0.0 |  0.00
Comm    | 0.026814   | 0.2706     | 0.8073     |  43.4 | 16.19
Output  | 0          | 0          | 0          |   0.0 |  0.00
Modify  | 1.6679e-05 | 0.0023654  | 0.0050686  |   2.3 |  0.14
Other   |            | 0.201      |            |       | 12.02

Nlocal:        2776.45 ave        3930 max           0 min
Histogram: 8 4 4 0 4 12 8 0 26 38
Nghost:        3879.07 ave        5424 max         232 min
Histogram: 8 0 8 0 16 0 8 8 16 40
Neighs:        79213.3 ave      114464 max           0 min
Histogram: 8 4 4 0 8 8 8 8 20 36

Total # of neighbors = 8238188
Ave neighs/atom = 28.530422
Neighbor list builds = 0
Dangerous builds = 0
The dot product: 3.11058111902843e-09
Setting atom values ...
  1 settings made for x
  1 settings made for y
  1 settings made for z
Setting up cg style minimization ...
  Unit style    : metal
  Current step  : 2635
Per MPI rank memory allocation (min/avg/max) = 5.441 | 5.816 | 6.074 Mbytes
Step PotEng KinEng TotEng v_fx v_fy v_fz 
    2635   -1152449.3            0   -1152449.3  0.016277367  0.015004626 0.0024148011 
    2775   -1152449.3            0   -1152449.3 -7.8148542e-07 2.8675604e-06 1.4590004e-05 
Loop time of 1.66275 on 104 procs for 140 steps with 288751 atoms

99.9% CPU use with 104 MPI tasks x 1 OpenMP threads

Minimization stats:
  Stopping criterion = energy tolerance
  Energy initial, next-to-last, final = 
     -1152449.25102594  -1152449.25221255  -1152449.25221255
  Force two-norm initial, final = 0.16098318 0.00016922006
  Force max component initial, final = 0.12182914 3.3878375e-05
  Final line search alpha, max atom move = 1.0000000 3.3878375e-05
  Iterations, force evaluations = 140 280

MPI task timing breakdown:
Section |  min time  |  avg time  |  max time  |%varavg| %total
---------------------------------------------------------------
Pair    | 0.42182    | 1.1832     | 1.5475     |  29.5 | 71.16
Neigh   | 0          | 0          | 0          |   0.0 |  0.00
Comm    | 0.032561   | 0.27274    | 0.80981    |  42.5 | 16.40
Output  | 0          | 0          | 0          |   0.0 |  0.00
Modify  | 1.7642e-05 | 0.0023184  | 0.0049553  |   2.3 |  0.14
Other   |            | 0.2045     |            |       | 12.30

Nlocal:        2776.45 ave        3930 max           0 min
Histogram: 8 4 4 0 4 12 8 0 26 38
Nghost:        3879.07 ave        5424 max         232 min
Histogram: 8 0 8 0 16 0 8 8 16 40
Neighs:        79213.3 ave      114464 max           0 min
Histogram: 8 4 4 0 8 8 8 8 20 36

Total # of neighbors = 8238188
Ave neighs/atom = 28.530422
Neighbor list builds = 0
Dangerous builds = 0
The dot product: -3.0767410988149e-09
Setting atom values ...
  1 settings made for x
  1 settings made for y
  1 settings made for z
Setting up cg style minimization ...
  Unit style    : metal
  Current step  : 2775
Per MPI rank memory allocation (min/avg/max) = 5.441 | 5.816 | 6.074 Mbytes
Step PotEng KinEng TotEng v_fx v_fy v_fz 
    2775   -1152449.2            0   -1152449.2  0.019182199  0.017906863 0.0024226719 
    2898   -1152449.2            0   -1152449.2 -3.2715454e-05 -1.7581313e-05 4.8973681e-05 
Loop time of 1.44899 on 104 procs for 123 steps with 288751 atoms

99.9% CPU use with 104 MPI tasks x 1 OpenMP threads

Minimization stats:
  Stopping criterion = energy tolerance
  Energy initial, next-to-last, final = 
     -1152449.22661839  -1152449.22784252  -1152449.22784252
  Force two-norm initial, final = 0.1640111 0.00020588546
  Force max component initial, final = 0.12453451 4.8973681e-05
  Final line search alpha, max atom move = 1.0000000 4.8973681e-05
  Iterations, force evaluations = 123 246

MPI task timing breakdown:
Section |  min time  |  avg time  |  max time  |%varavg| %total
---------------------------------------------------------------
Pair    | 0.36922    | 1.035      | 1.3584     |  27.6 | 71.43
Neigh   | 0          | 0          | 0          |   0.0 |  0.00
Comm    | 0.023143   | 0.23769    | 0.70394    |  40.0 | 16.40
Output  | 0          | 0          | 0          |   0.0 |  0.00
Modify  | 1.5472e-05 | 0.0020364  | 0.0043519  |   2.1 |  0.14
Other   |            | 0.1742     |            |       | 12.02

Nlocal:        2776.45 ave        3930 max           0 min
Histogram: 8 4 4 0 4 12 8 0 26 38
Nghost:        3879.07 ave        5424 max         232 min
Histogram: 8 0 8 0 16 0 8 8 16 40
Neighs:        79213.3 ave      114465 max           0 min
Histogram: 8 4 4 0 8 8 8 8 20 36

Total # of neighbors = 8238188
Ave neighs/atom = 28.530422
Neighbor list builds = 0
Dangerous builds = 0
The dot product: -1.76258781222048e-07
Setting atom values ...
  1 settings made for x
  1 settings made for y
  1 settings made for z
Setting up cg style minimization ...
  Unit style    : metal
  Current step  : 2898
Per MPI rank memory allocation (min/avg/max) = 5.441 | 5.816 | 6.074 Mbytes
Step PotEng KinEng TotEng v_fx v_fy v_fz 
    2898   -1152449.2            0   -1152449.2  0.021774928  0.020686653 0.0022331119 
    3000   -1152449.2            0   -1152449.2 5.8925978e-07 -2.6805489e-06 -1.3180561e-05 
    3077   -1152449.2            0   -1152449.2 1.391606e-06 5.5861362e-06 1.7566915e-05 
Loop time of 2.13175 on 104 procs for 179 steps with 288751 atoms

99.9% CPU use with 104 MPI tasks x 1 OpenMP threads

Minimization stats:
  Stopping criterion = energy tolerance
  Energy initial, next-to-last, final = 
     -1152449.20076367  -1152449.20203538  -1152449.20203538
  Force two-norm initial, final = 0.16738623 9.0468554e-05
  Force max component initial, final = 0.12731559 1.7566915e-05
  Final line search alpha, max atom move = 1.0000000 1.7566915e-05
  Iterations, force evaluations = 179 358

MPI task timing breakdown:
Section |  min time  |  avg time  |  max time  |%varavg| %total
---------------------------------------------------------------
Pair    | 0.54698    | 1.5135     | 1.9797     |  33.1 | 71.00
Neigh   | 0          | 0          | 0          |   0.0 |  0.00
Comm    | 0.037301   | 0.34869    | 1.0313     |  48.5 | 16.36
Output  | 0.00019918 | 0.0002022  | 0.00035163 |   0.0 |  0.01
Modify  | 2.1856e-05 | 0.0029527  | 0.0063502  |   2.6 |  0.14
Other   |            | 0.2664     |            |       | 12.50

Nlocal:        2776.45 ave        3930 max           0 min
Histogram: 8 4 4 0 4 12 8 0 26 38
Nghost:        3879.07 ave        5424 max         232 min
Histogram: 8 0 8 0 16 0 8 8 16 40
Neighs:        79213.3 ave      114465 max           0 min
Histogram: 8 4 4 0 8 8 8 8 20 36

Total # of neighbors = 8238183
Ave neighs/atom = 28.530405
Neighbor list builds = 0
Dangerous builds = 0
The dot product: 1.58991099217093e-08
Setting atom values ...
  1 settings made for x
  1 settings made for y
  1 settings made for z
Setting up cg style minimization ...
  Unit style    : metal
  Current step  : 3077
Per MPI rank memory allocation (min/avg/max) = 5.441 | 5.816 | 6.074 Mbytes
Step PotEng KinEng TotEng v_fx v_fy v_fz 
    3077   -1152449.2            0   -1152449.2  0.025209197  0.024377612 0.0015273672 
    3212   -1152449.2            0   -1152449.2 -7.5469276e-06 -8.0972571e-06 -3.706625e-06 
Loop time of 1.5919 on 104 procs for 135 steps with 288751 atoms

99.9% CPU use with 104 MPI tasks x 1 OpenMP threads

Minimization stats:
  Stopping criterion = energy tolerance
  Energy initial, next-to-last, final = 
      -1152449.1734868  -1152449.17482802  -1152449.17482802
  Force two-norm initial, final = 0.17143156 0.00011805945
  Force max component initial, final = 0.13023898 8.6390808e-06
  Final line search alpha, max atom move = 1.0000000 8.6390808e-06
  Iterations, force evaluations = 135 270

MPI task timing breakdown:
Section |  min time  |  avg time  |  max time  |%varavg| %total
---------------------------------------------------------------
Pair    | 0.40753    | 1.1402     | 1.4847     |  28.8 | 71.62
Neigh   | 0          | 0          | 0          |   0.0 |  0.00
Comm    | 0.030906   | 0.25999    | 0.78583    |  42.5 | 16.33
Output  | 0          | 0          | 0          |   0.0 |  0.00
Modify  | 1.5957e-05 | 0.0022312  | 0.0047882  |   2.2 |  0.14
Other   |            | 0.1895     |            |       | 11.90

Nlocal:        2776.45 ave        3930 max           0 min
Histogram: 8 4 4 0 4 12 8 0 26 38
Nghost:        3879.07 ave        5424 max         232 min
Histogram: 8 0 8 0 16 0 8 8 16 40
Neighs:        79213.3 ave      114469 max           0 min
Histogram: 8 4 4 0 8 8 8 8 20 36

Total # of neighbors = 8238183
Ave neighs/atom = 28.530405
Neighbor list builds = 0
Dangerous builds = 0
The dot product: -7.46895391462348e-08
Setting atom values ...
  1 settings made for x
  1 settings made for y
  1 settings made for z
Setting up cg style minimization ...
  Unit style    : metal
  Current step  : 3212
Per MPI rank memory allocation (min/avg/max) = 5.441 | 5.816 | 6.074 Mbytes
Step PotEng KinEng TotEng v_fx v_fy v_fz 
    3212   -1152449.1            0   -1152449.1  0.030336147  0.029049018 -0.0036822627 
    3377   -1152449.1            0   -1152449.1 -3.8855548e-06 -3.3825766e-06 1.8398341e-06 
Loop time of 1.92445 on 104 procs for 165 steps with 288751 atoms

99.9% CPU use with 104 MPI tasks x 1 OpenMP threads

Minimization stats:
  Stopping criterion = energy tolerance
  Energy initial, next-to-last, final = 
     -1152449.14482439   -1152449.1462889   -1152449.1462889
  Force two-norm initial, final = 0.1760082 0.0001594553
  Force max component initial, final = 0.13340156 1.1497005e-05
  Final line search alpha, max atom move = 1.0000000 1.1497005e-05
  Iterations, force evaluations = 165 330

MPI task timing breakdown:
Section |  min time  |  avg time  |  max time  |%varavg| %total
---------------------------------------------------------------
Pair    | 0.49864    | 1.3871     | 1.8026     |  31.7 | 72.08
Neigh   | 0          | 0          | 0          |   0.0 |  0.00
Comm    | 0.037198   | 0.31349    | 0.93927    |  46.6 | 16.29
Output  | 0          | 0          | 0          |   0.0 |  0.00
Modify  | 1.9961e-05 | 0.0027295  | 0.005888   |   2.5 |  0.14
Other   |            | 0.2211     |            |       | 11.49

Nlocal:        2776.45 ave        3930 max           0 min
Histogram: 8 4 4 0 4 12 8 0 26 38
Nghost:        3879.07 ave        5424 max         232 min
Histogram: 8 0 8 0 16 0 8 8 16 40
Neighs:        79213.3 ave      114475 max           0 min
Histogram: 8 4 4 0 8 8 8 8 20 36

Total # of neighbors = 8238185
Ave neighs/atom = 28.530412
Neighbor list builds = 0
Dangerous builds = 0
The dot product: -5.65870506039785e-08
Setting atom values ...
  1 settings made for x
  1 settings made for y
  1 settings made for z
Setting up cg style minimization ...
  Unit style    : metal
  Current step  : 3377
Per MPI rank memory allocation (min/avg/max) = 5.441 | 5.816 | 6.074 Mbytes
Step PotEng KinEng TotEng v_fx v_fy v_fz 
    3377   -1152449.1            0   -1152449.1  0.038986843  0.036288749 -0.017098077 
    3506   -1152449.1            0   -1152449.1 2.3841184e-06 7.5320468e-07 -7.0194829e-06 
Loop time of 1.508 on 104 procs for 129 steps with 288751 atoms

99.9% CPU use with 104 MPI tasks x 1 OpenMP threads

Minimization stats:
  Stopping criterion = energy tolerance
  Energy initial, next-to-last, final = 
      -1152449.1147163  -1152449.11645635  -1152449.11645635
  Force two-norm initial, final = 0.1832376 0.00011721553
  Force max component initial, final = 0.137035 1.6435945e-05
  Final line search alpha, max atom move = 1.0000000 1.6435945e-05
  Iterations, force evaluations = 129 258

MPI task timing breakdown:
Section |  min time  |  avg time  |  max time  |%varavg| %total
---------------------------------------------------------------
Pair    | 0.39076    | 1.0825     | 1.4113     |  28.1 | 71.78
Neigh   | 0          | 0          | 0          |   0.0 |  0.00
Comm    | 0.024447   | 0.24516    | 0.73493    |  41.3 | 16.26
Output  | 0          | 0          | 0          |   0.0 |  0.00
Modify  | 1.5504e-05 | 0.0021351  | 0.0045754  |   2.2 |  0.14
Other   |            | 0.1782     |            |       | 11.82

Nlocal:        2776.45 ave        3930 max           0 min
Histogram: 8 4 4 0 4 12 8 0 26 38
Nghost:        3879.07 ave        5424 max         232 min
Histogram: 8 0 8 0 16 0 8 8 16 40
Neighs:        79213.3 ave      114474 max           0 min
Histogram: 8 4 4 0 8 8 8 8 20 36

Total # of neighbors = 8238183
Ave neighs/atom = 28.530405
Neighbor list builds = 0
Dangerous builds = 0
The dot product: 6.68978097281764e-08
Setting atom values ...
  1 settings made for x
  1 settings made for y
  1 settings made for z
Setting up cg style minimization ...
  Unit style    : metal
  Current step  : 3506
Per MPI rank memory allocation (min/avg/max) = 5.441 | 5.816 | 6.074 Mbytes
Step PotEng KinEng TotEng v_fx v_fy v_fz 
    3506   -1152449.1            0   -1152449.1  0.047944427  0.046376723  -0.02924858 
    3633   -1152449.1            0   -1152449.1 5.1793384e-06 -3.1289966e-06 -3.7505748e-05 
Loop time of 1.48208 on 104 procs for 127 steps with 288751 atoms

99.9% CPU use with 104 MPI tasks x 1 OpenMP threads

Minimization stats:
  Stopping criterion = energy tolerance
  Energy initial, next-to-last, final = 
     -1152449.08328106  -1152449.08534661  -1152449.08534661
  Force two-norm initial, final = 0.19295986 0.00012940507
  Force max component initial, final = 0.14127961 3.7505748e-05
  Final line search alpha, max atom move = 1.0000000 3.7505748e-05
  Iterations, force evaluations = 127 254

MPI task timing breakdown:
Section |  min time  |  avg time  |  max time  |%varavg| %total
---------------------------------------------------------------
Pair    | 0.3822     | 1.0708     | 1.3961     |  28.0 | 72.25
Neigh   | 0          | 0          | 0          |   0.0 |  0.00
Comm    | 0.023731   | 0.24231    | 0.73468    |  41.2 | 16.35
Output  | 0          | 0          | 0          |   0.0 |  0.00
Modify  | 1.4979e-05 | 0.0020991  | 0.0044975  |   2.2 |  0.14
Other   |            | 0.1669     |            |       | 11.26

Nlocal:        2776.45 ave        3930 max           0 min
Histogram: 8 4 4 0 4 12 8 0 26 38
Nghost:        3879.07 ave        5424 max         232 min
Histogram: 8 0 8 0 16 0 8 8 16 40
Neighs:        79213.3 ave      114474 max           0 min
Histogram: 8 4 4 0 8 8 8 8 20 36

Total # of neighbors = 8238183
Ave neighs/atom = 28.530405
Neighbor list builds = 0
Dangerous builds = 0
The dot product: 2.90298241291569e-07
Setting atom values ...
  1 settings made for x
  1 settings made for y
  1 settings made for z
Setting up cg style minimization ...
  Unit style    : metal
  Current step  : 3633
Per MPI rank memory allocation (min/avg/max) = 5.441 | 5.816 | 6.074 Mbytes
Step PotEng KinEng TotEng v_fx v_fy v_fz 
    3633   -1152449.1            0   -1152449.1  0.053145434  0.055549112  -0.03790286 
    3756   -1152449.1            0   -1152449.1 -2.9890035e-05 -3.3492439e-05 1.1210687e-05 
Loop time of 1.42729 on 104 procs for 123 steps with 288751 atoms

99.9% CPU use with 104 MPI tasks x 1 OpenMP threads

Minimization stats:
  Stopping criterion = energy tolerance
  Energy initial, next-to-last, final = 
       -1152449.050627  -1152449.05296026  -1152449.05296026
  Force two-norm initial, final = 0.20169201 0.00024360237
  Force max component initial, final = 0.14557243 5.3719936e-05
  Final line search alpha, max atom move = 1.0000000 5.3719936e-05
  Iterations, force evaluations = 123 246

MPI task timing breakdown:
Section |  min time  |  avg time  |  max time  |%varavg| %total
---------------------------------------------------------------
Pair    | 0.37057    | 1.0312     | 1.3441     |  27.4 | 72.25
Neigh   | 0          | 0          | 0          |   0.0 |  0.00
Comm    | 0.025888   | 0.23196    | 0.7006     |  40.5 | 16.25
Output  | 0          | 0          | 0          |   0.0 |  0.00
Modify  | 1.4662e-05 | 0.0020326  | 0.0043625  |   2.1 |  0.14
Other   |            | 0.1621     |            |       | 11.36

Nlocal:        2776.45 ave        3930 max           0 min
Histogram: 8 4 4 0 4 12 8 0 26 38
Nghost:        3879.07 ave        5424 max         232 min
Histogram: 8 0 8 0 16 0 8 8 16 40
Neighs:        79213.3 ave      114474 max           0 min
Histogram: 8 4 4 0 8 8 8 8 20 36

Total # of neighbors = 8238182
Ave neighs/atom = 28.530402
Neighbor list builds = 0
Dangerous builds = 0
The dot product: -9.76503421408042e-07
Setting atom values ...
  1 settings made for x
  1 settings made for y
  1 settings made for z
Setting up cg style minimization ...
  Unit style    : metal
  Current step  : 3756
Per MPI rank memory allocation (min/avg/max) = 5.441 | 5.816 | 6.074 Mbytes
Step PotEng KinEng TotEng v_fx v_fy v_fz 
    3756     -1152449            0     -1152449  0.055078368  0.062037616 -0.050333409 
    3956     -1152449            0     -1152449 7.479628e-08 1.4609466e-06 6.7481531e-06 
Loop time of 2.34719 on 104 procs for 200 steps with 288751 atoms

99.9% CPU use with 104 MPI tasks x 1 OpenMP threads

Minimization stats:
  Stopping criterion = energy tolerance
  Energy initial, next-to-last, final = 
     -1152449.01682024  -1152449.01940549  -1152449.01940549
  Force two-norm initial, final = 0.20990078 7.8320582e-05
  Force max component initial, final = 0.14964946 1.1046781e-05
  Final line search alpha, max atom move = 1.0000000 1.1046781e-05
  Iterations, force evaluations = 200 400

MPI task timing breakdown:
Section |  min time  |  avg time  |  max time  |%varavg| %total
---------------------------------------------------------------
Pair    | 0.60773    | 1.6917     | 2.209      |  35.1 | 72.07
Neigh   | 0          | 0          | 0          |   0.0 |  0.00
Comm    | 0.041582   | 0.38392    | 1.1524     |  51.6 | 16.36
Output  | 0          | 0          | 0          |   0.0 |  0.00
Modify  | 2.3918e-05 | 0.0032983  | 0.0070679  |   2.7 |  0.14
Other   |            | 0.2682     |            |       | 11.43

Nlocal:        2776.45 ave        3930 max           0 min
Histogram: 8 4 4 0 4 12 8 0 26 38
Nghost:        3879.07 ave        5424 max         232 min
Histogram: 8 0 8 0 16 0 8 8 16 40
Neighs:        79213.2 ave      114468 max           0 min
Histogram: 8 4 4 0 8 8 8 8 20 36

Total # of neighbors = 8238178
Ave neighs/atom = 28.530388
Neighbor list builds = 0
Dangerous builds = 0
The dot product: -6.32323135203871e-08
Setting atom values ...
  1 settings made for x
  1 settings made for y
  1 settings made for z
Setting up cg style minimization ...
  Unit style    : metal
  Current step  : 3956
Per MPI rank memory allocation (min/avg/max) = 5.441 | 5.816 | 6.074 Mbytes
Step PotEng KinEng TotEng v_fx v_fy v_fz 
    3956     -1152449            0     -1152449    0.0536408  0.065105263 -0.068671982 
    4000     -1152449            0     -1152449 4.4766026e-05 3.4077403e-05 -0.00017828628 
    4133     -1152449            0     -1152449 2.4524418e-06 9.0993041e-06 3.3426756e-05 
Loop time of 2.05508 on 104 procs for 177 steps with 288751 atoms

99.9% CPU use with 104 MPI tasks x 1 OpenMP threads

Minimization stats:
  Stopping criterion = energy tolerance
  Energy initial, next-to-last, final = 
     -1152448.98210883   -1152448.9848903   -1152448.9848903
  Force two-norm initial, final = 0.21846303 0.00020667612
  Force max component initial, final = 0.15355927 3.3426756e-05
  Final line search alpha, max atom move = 1.0000000 3.3426756e-05
  Iterations, force evaluations = 177 354

MPI task timing breakdown:
Section |  min time  |  avg time  |  max time  |%varavg| %total
---------------------------------------------------------------
Pair    | 0.53036    | 1.4819     | 1.9379     |  33.0 | 72.11
Neigh   | 0          | 0          | 0          |   0.0 |  0.00
Comm    | 0.03574    | 0.33461    | 1.0061     |  48.4 | 16.28
Output  | 0.00016299 | 0.00016634 | 0.00026374 |   0.0 |  0.01
Modify  | 2.0885e-05 | 0.0029259  | 0.006252   |   2.5 |  0.14
Other   |            | 0.2355     |            |       | 11.46

Nlocal:        2776.45 ave        3930 max           0 min
Histogram: 8 4 4 0 4 12 8 0 26 38
Nghost:        3878.99 ave        5424 max         232 min
Histogram: 8 0 8 0 16 0 8 8 16 40
Neighs:        79213.2 ave      114463 max           0 min
Histogram: 8 4 4 0 8 8 8 8 20 36

Total # of neighbors = 8238178
Ave neighs/atom = 28.530388
Neighbor list builds = 0
Dangerous builds = 0
The dot product: -3.65963200128578e-07
Setting atom values ...
  1 settings made for x
  1 settings made for y
  1 settings made for z
Setting up cg style minimization ...
  Unit style    : metal
  Current step  : 4133
Per MPI rank memory allocation (min/avg/max) = 5.441 | 5.816 | 6.074 Mbytes
Step PotEng KinEng TotEng v_fx v_fy v_fz 
    4133   -1152448.9            0   -1152448.9  0.047433046  0.063624928 -0.081703378 
    4519     -1152449            0     -1152449 -1.2394589e-06 -2.0681937e-06 -1.261388e-06 
Loop time of 4.53863 on 104 procs for 386 steps with 288751 atoms

99.9% CPU use with 104 MPI tasks x 1 OpenMP threads

Minimization stats:
  Stopping criterion = energy tolerance
  Energy initial, next-to-last, final = 
      -1152448.9467255  -1152448.98109769  -1152448.98109769
  Force two-norm initial, final = 0.22436405 1.9646468e-05
  Force max component initial, final = 0.15708025 2.0681937e-06
  Final line search alpha, max atom move = 1.0000000 2.0681937e-06
  Iterations, force evaluations = 386 770

MPI task timing breakdown:
Section |  min time  |  avg time  |  max time  |%varavg| %total
---------------------------------------------------------------
Pair    | 1.1784     | 3.2438     | 4.256      |  48.4 | 71.47
Neigh   | 3.1546e-05 | 0.0087816  | 0.012989   |   3.9 |  0.19
Comm    | 0.07491    | 0.74312    | 2.2119     |  70.8 | 16.37
Output  | 0          | 0          | 0          |   0.0 |  0.00
Modify  | 4.4527e-05 | 0.0063414  | 0.013581   |   3.7 |  0.14
Other   |            | 0.5366     |            |       | 11.82

Nlocal:        2776.45 ave        3944 max           0 min
Histogram: 8 4 4 0 4 12 8 0 28 36
Nghost:        3879.02 ave        5426 max         232 min
Histogram: 8 0 8 0 16 0 8 8 16 40
Neighs:        79213.2 ave      114908 max           0 min
Histogram: 8 4 4 0 10 6 8 8 23 33

Total # of neighbors = 8238178
Ave neighs/atom = 28.530388
Neighbor list builds = 3
Dangerous builds = 0
The dot product: 2.20881789189394e-08
Setting atom values ...
  1 settings made for x
  1 settings made for y
  1 settings made for z
Setting up cg style minimization ...
  Unit style    : metal
  Current step  : 4519
Per MPI rank memory allocation (min/avg/max) = 5.441 | 5.816 | 6.074 Mbytes
Step PotEng KinEng TotEng v_fx v_fy v_fz 
    4519     -1152449            0     -1152449  0.021528697   0.05173106  -0.14005631 
    4680     -1152449            0     -1152449 1.2358023e-05 1.5884564e-05 4.9493344e-05 
Loop time of 1.88388 on 104 procs for 161 steps with 288751 atoms

99.9% CPU use with 104 MPI tasks x 1 OpenMP threads

Minimization stats:
  Stopping criterion = energy tolerance
  Energy initial, next-to-last, final = 
     -1152448.95874614  -1152448.96262655  -1152448.96262655
  Force two-norm initial, final = 0.25578164 0.00033078728
  Force max component initial, final = 0.16439949 8.7673946e-05
  Final line search alpha, max atom move = 1.0000000 8.7673946e-05
  Iterations, force evaluations = 161 322

MPI task timing breakdown:
Section |  min time  |  avg time  |  max time  |%varavg| %total
---------------------------------------------------------------
Pair    | 0.48384    | 1.3534     | 1.7724     |  31.6 | 71.84
Neigh   | 0          | 0          | 0          |   0.0 |  0.00
Comm    | 0.030173   | 0.30667    | 0.91448    |  46.3 | 16.28
Output  | 0          | 0          | 0          |   0.0 |  0.00
Modify  | 1.9348e-05 | 0.0026656  | 0.0056792  |   2.4 |  0.14
Other   |            | 0.2211     |            |       | 11.74

Nlocal:        2776.45 ave        3946 max           0 min
Histogram: 8 4 4 0 4 12 8 0 28 36
Nghost:        3879.03 ave        5429 max         232 min
Histogram: 8 0 8 0 16 0 8 8 16 40
Neighs:        79213.3 ave      114971 max           0 min
Histogram: 8 4 4 0 10 6 8 8 24 32

Total # of neighbors = 8238183
Ave neighs/atom = 28.530405
Neighbor list builds = 0
Dangerous builds = 0
The dot product: -1.17405192788453e-06
Setting atom values ...
  1 settings made for x
  1 settings made for y
  1 settings made for z
Setting up cg style minimization ...
  Unit style    : metal
  Current step  : 4680
Per MPI rank memory allocation (min/avg/max) = 5.441 | 5.816 | 6.074 Mbytes
Step PotEng KinEng TotEng v_fx v_fy v_fz 
    4680   -1152448.9            0   -1152448.9 0.0059255953  0.025072805 -0.068485181 
    4890   -1152448.9            0   -1152448.9 9.5474343e-08 1.0078535e-06 -3.9555915e-06 
Loop time of 2.46341 on 104 procs for 210 steps with 288751 atoms

99.9% CPU use with 104 MPI tasks x 1 OpenMP threads

Minimization stats:
  Stopping criterion = energy tolerance
  Energy initial, next-to-last, final = 
     -1152448.94018554  -1152448.94254897  -1152448.94254897
  Force two-norm initial, final = 0.22355598 3.3337168e-05
  Force max component initial, final = 0.16585536 3.9555915e-06
  Final line search alpha, max atom move = 1.0000000 3.9555915e-06
  Iterations, force evaluations = 210 420

MPI task timing breakdown:
Section |  min time  |  avg time  |  max time  |%varavg| %total
---------------------------------------------------------------
Pair    | 0.63787    | 1.7723     | 2.3016     |  35.9 | 71.94
Neigh   | 0          | 0          | 0          |   0.0 |  0.00
Comm    | 0.040168   | 0.40363    | 1.2119     |  52.6 | 16.38
Output  | 0          | 0          | 0          |   0.0 |  0.00
Modify  | 2.4403e-05 | 0.0034733  | 0.0074487  |   2.8 |  0.14
Other   |            | 0.284      |            |       | 11.53

Nlocal:        2776.45 ave        3951 max           0 min
Histogram: 8 4 4 0 4 12 8 0 30 34
Nghost:        3879.01 ave        5424 max         232 min
Histogram: 8 0 8 0 16 0 8 8 16 40
Neighs:        79213.3 ave      115135 max           0 min
Histogram: 8 4 4 0 10 6 8 8 24 32

Total # of neighbors = 8238184
Ave neighs/atom = 28.530409
Neighbor list builds = 0
Dangerous builds = 0
The dot product: 5.70241250878384e-08
Setting atom values ...
  1 settings made for x
  1 settings made for y
  1 settings made for z
Setting up cg style minimization ...
  Unit style    : metal
  Current step  : 4890
Per MPI rank memory allocation (min/avg/max) = 5.441 | 5.816 | 6.074 Mbytes
Step PotEng KinEng TotEng v_fx v_fy v_fz 
    4890   -1152448.9            0   -1152448.9 0.0010379042  0.012785276 -0.041465321 
    5000   -1152448.9            0   -1152448.9 1.2473728e-05 2.7701181e-05 -1.9285941e-05 
    5036   -1152448.9            0   -1152448.9 -2.4173904e-06 8.2783142e-07 -1.9829151e-05 
Loop time of 1.7079 on 104 procs for 146 steps with 288751 atoms

99.9% CPU use with 104 MPI tasks x 1 OpenMP threads

Minimization stats:
  Stopping criterion = energy tolerance
  Energy initial, next-to-last, final = 
     -1152448.92010159  -1152448.92238935  -1152448.92238935
  Force two-norm initial, final = 0.220821 0.00016958482
  Force max component initial, final = 0.16767128 5.8466751e-05
  Final line search alpha, max atom move = 1.0000000 5.8466751e-05
  Iterations, force evaluations = 146 292

MPI task timing breakdown:
Section |  min time  |  avg time  |  max time  |%varavg| %total
---------------------------------------------------------------
Pair    | 0.44079    | 1.2259     | 1.6045     |  30.0 | 71.78
Neigh   | 0          | 0          | 0          |   0.0 |  0.00
Comm    | 0.029339   | 0.27712    | 0.83185    |  44.1 | 16.23
Output  | 0.00023531 | 0.00024394 | 0.00038777 |   0.0 |  0.01
Modify  | 1.7151e-05 | 0.0024162  | 0.0051992  |   2.3 |  0.14
Other   |            | 0.2023     |            |       | 11.84

Nlocal:        2776.45 ave        3951 max           0 min
Histogram: 8 4 4 0 4 12 8 0 30 34
Nghost:        3879.05 ave        5425 max         232 min
Histogram: 8 0 8 0 16 0 8 8 16 40
Neighs:        79213.3 ave      115125 max           0 min
Histogram: 8 4 4 0 10 6 8 8 24 32

Total # of neighbors = 8238185
Ave neighs/atom = 28.530412
Neighbor list builds = 0
Dangerous builds = 0
The dot product: 1.65153169189508e-07
Setting atom values ...
  1 settings made for x
  1 settings made for y
  1 settings made for z
Setting up cg style minimization ...
  Unit style    : metal
  Current step  : 5036
Per MPI rank memory allocation (min/avg/max) = 5.441 | 5.816 | 6.074 Mbytes
Step PotEng KinEng TotEng v_fx v_fy v_fz 
    5036   -1152448.9            0   -1152448.9 -0.00054005915 0.0079149277 -0.030290944 
    5187   -1152448.9            0   -1152448.9 1.1598385e-05 1.3170793e-05 2.7349454e-05 
Loop time of 1.76557 on 104 procs for 151 steps with 288751 atoms

99.9% CPU use with 104 MPI tasks x 1 OpenMP threads

Minimization stats:
  Stopping criterion = energy tolerance
  Energy initial, next-to-last, final = 
     -1152448.90013395   -1152448.9021234   -1152448.9021234
  Force two-norm initial, final = 0.2208456 0.00018356455
  Force max component initial, final = 0.16972937 3.1614486e-05
  Final line search alpha, max atom move = 1.0000000 3.1614486e-05
  Iterations, force evaluations = 151 302

MPI task timing breakdown:
Section |  min time  |  avg time  |  max time  |%varavg| %total
---------------------------------------------------------------
Pair    | 0.45445    | 1.2707     | 1.6585     |  30.5 | 71.97
Neigh   | 0          | 0          | 0          |   0.0 |  0.00
Comm    | 0.033013   | 0.28791    | 0.86577    |  44.6 | 16.31
Output  | 0          | 0          | 0          |   0.0 |  0.00
Modify  | 1.7814e-05 | 0.0024978  | 0.0053407  |   2.3 |  0.14
Other   |            | 0.2045     |            |       | 11.58

Nlocal:        2776.45 ave        3953 max           0 min
Histogram: 8 4 4 0 4 12 8 0 30 34
Nghost:        3879.05 ave        5425 max         232 min
Histogram: 8 0 8 0 16 0 8 8 16 40
Neighs:        79213.3 ave      115199 max           0 min
Histogram: 8 4 4 0 10 6 8 8 24 32

Total # of neighbors = 8238182
Ave neighs/atom = 28.530402
Neighbor list builds = 0
Dangerous builds = 0
The dot product: -1.19369733532495e-07
Setting atom values ...
  1 settings made for x
  1 settings made for y
  1 settings made for z
Setting up cg style minimization ...
  Unit style    : metal
  Current step  : 5187
Per MPI rank memory allocation (min/avg/max) = 5.441 | 5.816 | 6.074 Mbytes
Step PotEng KinEng TotEng v_fx v_fy v_fz 
    5187   -1152448.9            0   -1152448.9 -0.00043303948 0.0055240627 -0.020298427 
    5385   -1152448.9            0   -1152448.9 8.8607692e-06 1.7034061e-05 -2.502331e-06 
Loop time of 2.29509 on 104 procs for 198 steps with 288751 atoms

99.9% CPU use with 104 MPI tasks x 1 OpenMP threads

Minimization stats:
  Stopping criterion = energy tolerance
  Energy initial, next-to-last, final = 
     -1152448.87880691  -1152448.88061443  -1152448.88061443
  Force two-norm initial, final = 0.21928993 7.2132343e-05
  Force max component initial, final = 0.17172995 1.7034061e-05
  Final line search alpha, max atom move = 1.0000000 1.7034061e-05
  Iterations, force evaluations = 198 396

MPI task timing breakdown:
Section |  min time  |  avg time  |  max time  |%varavg| %total
---------------------------------------------------------------
Pair    | 0.59555    | 1.6553     | 2.1648     |  34.8 | 72.12
Neigh   | 0          | 0          | 0          |   0.0 |  0.00
Comm    | 0.040762   | 0.3722     | 1.118      |  51.1 | 16.22
Output  | 0          | 0          | 0          |   0.0 |  0.00
Modify  | 2.4446e-05 | 0.0032676  | 0.0069719  |   2.7 |  0.14
Other   |            | 0.2643     |            |       | 11.52

Nlocal:        2776.45 ave        3951 max           0 min
Histogram: 8 4 4 0 4 12 8 0 30 34
Nghost:        3879.03 ave        5425 max         232 min
Histogram: 8 0 8 0 16 0 8 8 16 40
Neighs:        79213.3 ave      115125 max           0 min
Histogram: 8 4 4 0 10 6 8 8 24 32

Total # of neighbors = 8238180
Ave neighs/atom = 28.530395
Neighbor list builds = 0
Dangerous builds = 0
The dot product: 4.17866008392867e-09
Setting atom values ...
  1 settings made for x
  1 settings made for y
  1 settings made for z
Setting up cg style minimization ...
  Unit style    : metal
  Current step  : 5385
Per MPI rank memory allocation (min/avg/max) = 5.441 | 5.816 | 6.074 Mbytes
Step PotEng KinEng TotEng v_fx v_fy v_fz 
    5385   -1152448.9            0   -1152448.9 -0.00022696266 0.0038745357 -0.013472646 
    5526   -1152448.9            0   -1152448.9 -8.4226776e-06 -8.8381994e-06 -2.0752339e-05 
Loop time of 1.65272 on 104 procs for 141 steps with 288751 atoms

99.9% CPU use with 104 MPI tasks x 1 OpenMP threads

Minimization stats:
  Stopping criterion = energy tolerance
  Energy initial, next-to-last, final = 
      -1152448.8552988  -1152448.85721805  -1152448.85721805
  Force two-norm initial, final = 0.22317703 0.00021559663
  Force max component initial, final = 0.17394366 6.7381923e-05
  Final line search alpha, max atom move = 1.0000000 6.7381923e-05
  Iterations, force evaluations = 141 282

MPI task timing breakdown:
Section |  min time  |  avg time  |  max time  |%varavg| %total
---------------------------------------------------------------
Pair    | 0.42584    | 1.1917     | 1.5583     |  29.6 | 72.10
Neigh   | 0          | 0          | 0          |   0.0 |  0.00
Comm    | 0.028837   | 0.26986    | 0.81755    |  43.6 | 16.33
Output  | 0          | 0          | 0          |   0.0 |  0.00
Modify  | 1.6948e-05 | 0.0023309  | 0.0049897  |   2.3 |  0.14
Other   |            | 0.1889     |            |       | 11.43

Nlocal:        2776.45 ave        3949 max           0 min
Histogram: 8 4 4 0 4 12 8 0 28 36
Nghost:        3878.99 ave        5425 max         232 min
Histogram: 8 0 8 0 16 0 8 8 16 40
Neighs:        79213.3 ave      115060 max           0 min
Histogram: 8 4 4 0 10 6 8 8 24 32

Total # of neighbors = 8238179
Ave neighs/atom = 28.530391
Neighbor list builds = 0
Dangerous builds = 0
The dot product: 2.17934751465749e-08
Setting atom values ...
  1 settings made for x
  1 settings made for y
  1 settings made for z
Setting up cg style minimization ...
  Unit style    : metal
  Current step  : 5526
Per MPI rank memory allocation (min/avg/max) = 5.441 | 5.816 | 6.074 Mbytes
Step PotEng KinEng TotEng v_fx v_fy v_fz 
    5526   -1152448.8            0   -1152448.8 -0.00010966997 0.0029369158 -0.0097957783 
    5757   -1152448.8            0   -1152448.8 1.2678826e-06 2.5773116e-06 -8.0164614e-07 
Loop time of 2.7106 on 104 procs for 231 steps with 288751 atoms

99.9% CPU use with 104 MPI tasks x 1 OpenMP threads

Minimization stats:
  Stopping criterion = energy tolerance
  Energy initial, next-to-last, final = 
     -1152448.82967127  -1152448.83170252  -1152448.83170252
  Force two-norm initial, final = 0.22775492 3.2421631e-05
  Force max component initial, final = 0.17612051 7.3838095e-06
  Final line search alpha, max atom move = 1.0000000 7.3838095e-06
  Iterations, force evaluations = 231 462

MPI task timing breakdown:
Section |  min time  |  avg time  |  max time  |%varavg| %total
---------------------------------------------------------------
Pair    | 0.69517    | 1.9347     | 2.5436     |  37.6 | 71.37
Neigh   | 0          | 0          | 0          |   0.0 |  0.00
Comm    | 0.049924   | 0.44074    | 1.3135     |  54.9 | 16.26
Output  | 0          | 0          | 0          |   0.0 |  0.00
Modify  | 2.7331e-05 | 0.0038157  | 0.0081705  |   2.9 |  0.14
Other   |            | 0.3314     |            |       | 12.23

Nlocal:        2776.45 ave        3945 max           0 min
Histogram: 8 4 4 0 4 12 8 0 28 36
Nghost:        3878.99 ave        5425 max         232 min
Histogram: 8 0 8 0 16 0 8 8 16 40
Neighs:        79213.2 ave      114919 max           0 min
Histogram: 8 4 4 0 10 6 8 8 22 34

Total # of neighbors = 8238177
Ave neighs/atom = 28.530384
Neighbor list builds = 0
Dangerous builds = 0
The dot product: -2.24911970542756e-09
Setting atom values ...
  1 settings made for x
  1 settings made for y
  1 settings made for z
Setting up cg style minimization ...
  Unit style    : metal
  Current step  : 5757
Per MPI rank memory allocation (min/avg/max) = 5.441 | 5.816 | 6.074 Mbytes
Step PotEng KinEng TotEng v_fx v_fy v_fz 
    5757   -1152448.8            0   -1152448.8 2.7949031e-05 0.0025359388 -0.0077672142 
    5907   -1152448.8            0   -1152448.8 7.1875334e-06 1.4404399e-05 -4.0233933e-06 
Loop time of 1.75464 on 104 procs for 150 steps with 288751 atoms

99.9% CPU use with 104 MPI tasks x 1 OpenMP threads

Minimization stats:
  Stopping criterion = energy tolerance
  Energy initial, next-to-last, final = 
     -1152448.80181101  -1152448.80394198  -1152448.80394198
  Force two-norm initial, final = 0.23238649 0.00018724864
  Force max component initial, final = 0.1785108 4.7026049e-05
  Final line search alpha, max atom move = 1.0000000 4.7026049e-05
  Iterations, force evaluations = 150 300

MPI task timing breakdown:
Section |  min time  |  avg time  |  max time  |%varavg| %total
---------------------------------------------------------------
Pair    | 0.45059    | 1.2663     | 1.6546     |  30.5 | 72.17
Neigh   | 0          | 0          | 0          |   0.0 |  0.00
Comm    | 0.032045   | 0.2858     | 0.85698    |  44.9 | 16.29
Output  | 0          | 0          | 0          |   0.0 |  0.00
Modify  | 1.7874e-05 | 0.0024804  | 0.0053287  |   2.3 |  0.14
Other   |            | 0.2001     |            |       | 11.40

Nlocal:        2776.45 ave        3940 max           0 min
Histogram: 8 4 4 0 4 12 8 0 28 36
Nghost:        3878.99 ave        5425 max         232 min
Histogram: 8 0 8 0 16 0 8 8 16 40
Neighs:        79213.2 ave      114778 max           0 min
Histogram: 8 4 4 0 10 6 8 8 22 34

Total # of neighbors = 8238176
Ave neighs/atom = 28.530381
Neighbor list builds = 0
Dangerous builds = 0
The dot product: -1.57479983706715e-08
Setting atom values ...
  1 settings made for x
  1 settings made for y
  1 settings made for z
Setting up cg style minimization ...
  Unit style    : metal
  Current step  : 5907
Per MPI rank memory allocation (min/avg/max) = 5.441 | 5.816 | 6.074 Mbytes
Step PotEng KinEng TotEng v_fx v_fy v_fz 
    5907   -1152448.8            0   -1152448.8 0.00028574935  0.002560628 -0.0064133388 
    6000   -1152448.8            0   -1152448.8 1.0069182e-07 -5.3978594e-06 1.7539326e-05 
    6209   -1152448.8            0   -1152448.8 1.6589414e-08 5.1619022e-08 -6.7367499e-08 
Loop time of 3.53213 on 104 procs for 302 steps with 288751 atoms

99.9% CPU use with 104 MPI tasks x 1 OpenMP threads

Minimization stats:
  Stopping criterion = energy tolerance
  Energy initial, next-to-last, final = 
     -1152448.77164251  -1152448.77385052  -1152448.77385052
  Force two-norm initial, final = 0.23640951 1.7875619e-06
  Force max component initial, final = 0.18093803 4.5280749e-07
  Final line search alpha, max atom move = 1.0000000 4.5280749e-07
  Iterations, force evaluations = 302 604

MPI task timing breakdown:
Section |  min time  |  avg time  |  max time  |%varavg| %total
---------------------------------------------------------------
Pair    | 0.91102    | 2.5305     | 3.2934     |  42.9 | 71.64
Neigh   | 0          | 0          | 0          |   0.0 |  0.00
Comm    | 0.061306   | 0.57445    | 1.7409     |  63.3 | 16.26
Output  | 0.00017274 | 0.0001826  | 0.00031868 |   0.0 |  0.01
Modify  | 3.5082e-05 | 0.0049784  | 0.010673   |   3.3 |  0.14
Other   |            | 0.422      |            |       | 11.95

Nlocal:        2776.45 ave        3930 max           0 min
Histogram: 8 4 4 0 4 12 8 0 26 38
Nghost:        3878.97 ave        5425 max         232 min
Histogram: 8 0 8 0 16 0 8 8 16 40
Neighs:        79213.2 ave      114461 max           0 min
Histogram: 8 4 4 0 8 8 8 8 20 36

Total # of neighbors = 8238169
Ave neighs/atom = 28.530357
Neighbor list builds = 0
Dangerous builds = 0
The dot product: -8.0665004633386e-11
Setting up cg style minimization ...
  Unit style    : metal
  Current step  : 6209
Per MPI rank memory allocation (min/avg/max) = 5.441 | 5.816 | 6.074 Mbytes
Step PotEng KinEng TotEng v_fx v_fy v_fz 
    6209   -1152448.8            0   -1152448.8   -1.3547687   0.74463043   0.23694315 
    6464   -1152449.5            0   -1152449.5 -1.2941598e-05 -1.521893e-05 -4.233559e-05 
Loop time of 2.97829 on 104 procs for 255 steps with 288751 atoms

99.9% CPU use with 104 MPI tasks x 1 OpenMP threads

Minimization stats:
  Stopping criterion = energy tolerance
  Energy initial, next-to-last, final = 
     -1152448.77385052   -1152449.4503526   -1152449.4503526
  Force two-norm initial, final = 1.5639741 0.00016740402
  Force max component initial, final = 1.3547687 4.2335590e-05
  Final line search alpha, max atom move = 1.0000000 4.2335590e-05
  Iterations, force evaluations = 255 505

MPI task timing breakdown:
Section |  min time  |  avg time  |  max time  |%varavg| %total
---------------------------------------------------------------
Pair    | 0.77009    | 2.1279     | 2.7782     |  39.2 | 71.45
Neigh   | 3.0259e-05 | 0.0088504  | 0.013043   |   3.9 |  0.30
Comm    | 0.052662   | 0.48567    | 1.4527     |  57.3 | 16.31
Output  | 0          | 0          | 0          |   0.0 |  0.00
Modify  | 2.6893e-05 | 0.0027164  | 0.0069671  |   3.2 |  0.09
Other   |            | 0.3531     |            |       | 11.86

Nlocal:        2776.45 ave        3930 max           0 min
Histogram: 8 4 4 0 4 12 8 0 26 38
Nghost:        3879.05 ave        5426 max         232 min
Histogram: 8 0 8 0 16 0 8 8 16 40
Neighs:        79213.2 ave      114461 max           0 min
Histogram: 8 4 4 0 8 8 8 8 20 36

Total # of neighbors = 8238172
Ave neighs/atom = 28.530367
Neighbor list builds = 3
Dangerous builds = 0
OMP_NUM_THREADS environment is not set. Defaulting to 1 thread. (../comm.cpp:94)
  using 1 OpenMP thread(s) per MPI task
Reading data file ...
  orthogonal box = (-122.39241 -121.13707 -37.090501) to (122.39241 121.13707 37.090501)
  13 by 4 by 2 MPI processor grid
  reading atoms ...
  288751 atoms
  read_data CPU = 0.348 seconds
199981 atoms in group inner
88770 atoms in group outer
1 atoms in group carbon
Neighbor list info ...
  update every 1 steps, delay 0 steps, check yes
  max neighbors/atom: 2000, page size: 100000
  master list distance cutoff = 5.6
  ghost atom cutoff = 5.6
  binsize = 2.8, bins = 88 87 27
  1 neighbor lists, perpetual/occasional/extra = 1 0 0
  (1) pair eam/alloy, perpetual
      attributes: half, newton on
      pair build: half/bin/atomonly/newton
      stencil: half/bin/3d/newton
      bin: standard
Setting up cg style minimization ...
  Unit style    : metal
  Current step  : 0
Per MPI rank memory allocation (min/avg/max) = 5.441 | 5.816 | 6.074 Mbytes
Step v_fx v_fy v_fz PotEng KinEng TotEng 
       0   -0.5424459  0.023503117  -0.47526366   -1152447.8            0   -1152447.8 
     175 2.3155827e-06 4.800471e-06 3.0184269e-06   -1152449.5            0   -1152449.5 
Loop time of 2.0919 on 104 procs for 175 steps with 288751 atoms

99.9% CPU use with 104 MPI tasks x 1 OpenMP threads

Minimization stats:
  Stopping criterion = energy tolerance
  Energy initial, next-to-last, final = 
     -1152447.84719251  -1152449.45035262  -1152449.45035262
  Force two-norm initial, final = 9.7774586 4.7719819e-05
  Force max component initial, final = 4.4641426 8.0445457e-06
  Final line search alpha, max atom move = 1.0000000 8.0445457e-06
  Iterations, force evaluations = 175 349

MPI task timing breakdown:
Section |  min time  |  avg time  |  max time  |%varavg| %total
---------------------------------------------------------------
Pair    | 0.53469    | 1.4775     | 1.9559     |  32.9 | 70.63
Neigh   | 2.2211e-05 | 0.0058703  | 0.0086698  |   3.2 |  0.28
Comm    | 0.033811   | 0.33973    | 0.99242    |  47.6 | 16.24
Output  | 0          | 0          | 0          |   0.0 |  0.00
Modify  | 2.097e-05  | 0.0018838  | 0.004799   |   2.7 |  0.09
Other   |            | 0.2669     |            |       | 12.76

Nlocal:        2776.45 ave        3960 max           0 min
Histogram: 8 4 4 0 4 12 8 2 28 34
Nghost:        3879.01 ave        5424 max         232 min
Histogram: 8 0 8 0 16 0 8 8 16 40
Neighs:        79213.4 ave      115432 max           0 min
Histogram: 8 4 4 0 10 6 8 8 24 32

Total # of neighbors = 8238197
Ave neighs/atom = 28.530454
Neighbor list builds = 2
Dangerous builds = 1
Setting atom values ...
  1 settings made for x
  1 settings made for y
  1 settings made for z
Setting up cg style minimization ...
  Unit style    : metal
  Current step  : 175
Per MPI rank memory allocation (min/avg/max) = 5.441 | 5.816 | 6.074 Mbytes
Step PotEng KinEng TotEng v_fx v_fy v_fz 
     175   -1152449.4            0   -1152449.4 -0.050974236  0.019375168 -0.070703021 
     419   -1152449.4            0   -1152449.4 -6.0084552e-06 -2.6536802e-06 -3.9514962e-06 
Loop time of 2.85927 on 104 procs for 244 steps with 288751 atoms

99.9% CPU use with 104 MPI tasks x 1 OpenMP threads

Minimization stats:
  Stopping criterion = energy tolerance
  Energy initial, next-to-last, final = 
     -1152449.44525316  -1152449.44858478  -1152449.44858478
  Force two-norm initial, final = 0.2731298 2.2041693e-05
  Force max component initial, final = 0.11088786 6.0084552e-06
  Final line search alpha, max atom move = 1.0000000 6.0084552e-06
  Iterations, force evaluations = 244 488

MPI task timing breakdown:
Section |  min time  |  avg time  |  max time  |%varavg| %total
---------------------------------------------------------------
Pair    | 0.73267    | 2.0529     | 2.6895     |  38.9 | 71.80
Neigh   | 0          | 0          | 0          |   0.0 |  0.00
Comm    | 0.043079   | 0.469      | 1.3911     |  56.6 | 16.40
Output  | 0          | 0          | 0          |   0.0 |  0.00
Modify  | 2.9808e-05 | 0.0040352  | 0.0085913  |   3.0 |  0.14
Other   |            | 0.3333     |            |       | 11.66

Nlocal:        2776.45 ave        3961 max           0 min
Histogram: 8 4 4 0 6 10 8 2 28 34
Nghost:        3879.01 ave        5425 max         232 min
Histogram: 8 0 8 0 16 0 8 8 16 40
Neighs:        79213.4 ave      115455 max           0 min
Histogram: 8 4 4 0 10 6 8 8 24 32

Total # of neighbors = 8238198
Ave neighs/atom = 28.530457
Neighbor list builds = 0
Dangerous builds = 0
Setting atom values ...
  1 settings made for x
  1 settings made for y
[...]

Nlocal:        2776.45 ave        3957 max           0 min
Histogram: 8 4 4 0 4 12 8 6 24 34
Nghost:        3878.68 ave        5425 max         232 min
Histogram: 8 0 8 0 16 0 8 8 16 40
Neighs:        79213.3 ave      115332 max           0 min
Histogram: 8 4 4 0 10 6 8 8 24 32

Total # of neighbors = 8238180
Ave neighs/atom = 28.530395
Neighbor list builds = 0
Dangerous builds = 0
The dot product: 1.74426376884724e-08
Setting atom values ...
  1 settings made for x
  1 settings made for y
  1 settings made for z
Setting up cg style minimization ...
  Unit style    : metal
  Current step  : 4679
Per MPI rank memory allocation (min/avg/max) = 5.441 | 5.816 | 6.074 Mbytes
Step PotEng KinEng TotEng v_fx v_fy v_fz 
    4679   -1152448.9            0   -1152448.9 -0.018456449 -0.071632496 -0.052479999 
    4956     -1152449            0     -1152449 1.6010025e-06 4.121368e-06 -6.346998e-06 
Loop time of 3.24859 on 104 procs for 277 steps with 288751 atoms

99.9% CPU use with 104 MPI tasks x 1 OpenMP threads

Minimization stats:
  Stopping criterion = energy tolerance
  Energy initial, next-to-last, final = 
      -1152448.9095066  -1152448.95502324  -1152448.95502324
  Force two-norm initial, final = 0.21136959 3.4376927e-05
  Force max component initial, final = 0.1410438 6.3469980e-06
  Final line search alpha, max atom move = 1.0000000 6.3469980e-06
  Iterations, force evaluations = 277 554

MPI task timing breakdown:
Section |  min time  |  avg time  |  max time  |%varavg| %total
---------------------------------------------------------------
Pair    | 0.84843    | 2.3267     | 3.0316     |  40.9 | 71.62
Neigh   | 2.0304e-05 | 0.005877   | 0.0085398  |   3.2 |  0.18
Comm    | 0.061816   | 0.53056    | 1.582      |  60.3 | 16.33
Output  | 0          | 0          | 0          |   0.0 |  0.00
Modify  | 3.3826e-05 | 0.0045697  | 0.0098023  |   3.2 |  0.14
Other   |            | 0.3809     |            |       | 11.73

Nlocal:        2776.45 ave        3953 max           0 min
Histogram: 8 4 4 0 4 12 8 0 30 34
Nghost:        3878.64 ave        5426 max         232 min
Histogram: 8 0 8 0 16 0 8 8 16 40
Neighs:        79213.3 ave      115205 max           0 min
Histogram: 8 4 4 0 10 6 8 8 24 32

Total # of neighbors = 8238183
Ave neighs/atom = 28.530405
Neighbor list builds = 2
Dangerous builds = 0
The dot product: 1.02940958868672e-07
Setting atom values ...
  1 settings made for x
  1 settings made for y
  1 settings made for z
Setting up cg style minimization ...
  Unit style    : metal
  Current step  : 4956
Per MPI rank memory allocation (min/avg/max) = 5.441 | 5.816 | 6.074 Mbytes
Step PotEng KinEng TotEng v_fx v_fy v_fz 
    4956   -1152448.9            0   -1152448.9 -0.058196959  -0.11406952  -0.13618327 
    5000   -1152448.9            0   -1152448.9 0.0001288321 0.00019569693 0.00069901892 
    5179   -1152448.9            0   -1152448.9 3.5890306e-06 5.232834e-06 2.1005132e-05 
Loop time of 2.57826 on 104 procs for 223 steps with 288751 atoms

99.9% CPU use with 104 MPI tasks x 1 OpenMP threads

Minimization stats:
  Stopping criterion = energy tolerance
  Energy initial, next-to-last, final = 
     -1152448.93177585  -1152448.93785583  -1152448.93785583
  Force two-norm initial, final = 0.28131974 7.2335430e-05
  Force max component initial, final = 0.15987235 2.1005132e-05
  Final line search alpha, max atom move = 1.0000000 2.1005132e-05
  Iterations, force evaluations = 223 446

MPI task timing breakdown:
Section |  min time  |  avg time  |  max time  |%varavg| %total
---------------------------------------------------------------
Pair    | 0.67834    | 1.8751     | 2.4228     |  36.8 | 72.73
Neigh   | 0          | 0          | 0          |   0.0 |  0.00
Comm    | 0.038363   | 0.42305    | 1.2722     |  54.9 | 16.41
Output  | 0.00014521 | 0.0001484  | 0.0002716  |   0.0 |  0.01
Modify  | 2.7853e-05 | 0.0036815  | 0.0078903  |   2.9 |  0.14
Other   |            | 0.2763     |            |       | 10.72

Nlocal:        2776.45 ave        3959 max           0 min
Histogram: 8 4 4 0 4 12 8 4 26 34
Nghost:        3879.03 ave        5428 max         232 min
Histogram: 8 0 8 0 16 0 8 8 16 40
Neighs:        79213.3 ave      115389 max           0 min
Histogram: 8 4 4 0 10 6 8 8 24 32

Total # of neighbors = 8238183
Ave neighs/atom = 28.530405
Neighbor list builds = 0
Dangerous builds = 0
The dot product: -8.36703216990181e-07
Setting atom values ...
  1 settings made for x
  1 settings made for y
  1 settings made for z
Setting up cg style minimization ...
  Unit style    : metal
  Current step  : 5179
Per MPI rank memory allocation (min/avg/max) = 5.441 | 5.816 | 6.074 Mbytes
Step PotEng KinEng TotEng v_fx v_fy v_fz 
    5179   -1152448.9            0   -1152448.9 -0.030972041 -0.044303896 -0.071306536 
    5377   -1152448.9            0   -1152448.9 1.8482852e-06 1.2546713e-06 9.9302281e-06 
Loop time of 2.28604 on 104 procs for 198 steps with 288751 atoms

99.9% CPU use with 104 MPI tasks x 1 OpenMP threads

Minimization stats:
  Stopping criterion = energy tolerance
  Energy initial, next-to-last, final = 
     -1152448.91521598  -1152448.91827564  -1152448.91827564
  Force two-norm initial, final = 0.23496785 0.00011487699
  Force max component initial, final = 0.16608339 3.9685417e-05
  Final line search alpha, max atom move = 1.0000000 3.9685417e-05
  Iterations, force evaluations = 198 396

MPI task timing breakdown:
Section |  min time  |  avg time  |  max time  |%varavg| %total
---------------------------------------------------------------
Pair    | 0.59855    | 1.6624     | 2.1485     |  34.9 | 72.72
Neigh   | 0          | 0          | 0          |   0.0 |  0.00
Comm    | 0.036438   | 0.3737     | 1.1399     |  51.5 | 16.35
Output  | 0          | 0          | 0          |   0.0 |  0.00
Modify  | 2.4817e-05 | 0.003266   | 0.0070021  |   2.7 |  0.14
Other   |            | 0.2466     |            |       | 10.79

Nlocal:        2776.45 ave        3956 max           0 min
Histogram: 8 4 4 0 4 12 8 0 30 34
Nghost:        3879.01 ave        5424 max         232 min
Histogram: 8 0 8 0 16 0 8 8 16 40
Neighs:        79213.3 ave      115309 max           0 min
Histogram: 8 4 4 0 10 6 8 8 24 32

Total # of neighbors = 8238182
Ave neighs/atom = 28.530402
Neighbor list builds = 0
Dangerous builds = 0
The dot product: -1.79169713309718e-07
Setting atom values ...
  1 settings made for x
  1 settings made for y
  1 settings made for z
Setting up cg style minimization ...
  Unit style    : metal
  Current step  : 5377
Per MPI rank memory allocation (min/avg/max) = 5.441 | 5.816 | 6.074 Mbytes
Step PotEng KinEng TotEng v_fx v_fy v_fz 
    5377   -1152448.9            0   -1152448.9 -0.013550315 -0.013682047  -0.04118252 
    5537   -1152448.9            0   -1152448.9 1.9840389e-06 -7.8823614e-06 4.0069776e-05 
Loop time of 1.84702 on 104 procs for 160 steps with 288751 atoms

99.9% CPU use with 104 MPI tasks x 1 OpenMP threads

Minimization stats:
  Stopping criterion = energy tolerance
  Energy initial, next-to-last, final = 
     -1152448.89589271  -1152448.89793559  -1152448.89793559
  Force two-norm initial, final = 0.22304846 0.00022510872
  Force max component initial, final = 0.16948607 4.6652041e-05
  Final line search alpha, max atom move = 1.0000000 4.6652041e-05
  Iterations, force evaluations = 160 320

MPI task timing breakdown:
Section |  min time  |  avg time  |  max time  |%varavg| %total
---------------------------------------------------------------
Pair    | 0.4828     | 1.3424     | 1.7408     |  31.3 | 72.68
Neigh   | 0          | 0          | 0          |   0.0 |  0.00
Comm    | 0.02914    | 0.2997     | 0.90052    |  46.6 | 16.23
Output  | 0          | 0          | 0          |   0.0 |  0.00
Modify  | 2.0235e-05 | 0.0026428  | 0.0056379  |   2.4 |  0.14
Other   |            | 0.2023     |            |       | 10.95

Nlocal:        2776.45 ave        3954 max           0 min
Histogram: 8 4 4 0 4 12 8 0 30 34
Nghost:        3879.05 ave        5425 max         232 min
Histogram: 8 0 8 0 16 0 8 8 16 40
Neighs:        79213.3 ave      115235 max           0 min
Histogram: 8 4 4 0 10 6 8 8 24 32

Total # of neighbors = 8238182
Ave neighs/atom = 28.530402
Neighbor list builds = 0
Dangerous builds = 0
The dot product: -2.5766188074225e-07
Setting atom values ...
  1 settings made for x
  1 settings made for y
  1 settings made for z
Setting up cg style minimization ...
  Unit style    : metal
  Current step  : 5537
Per MPI rank memory allocation (min/avg/max) = 5.441 | 5.816 | 6.074 Mbytes
Step PotEng KinEng TotEng v_fx v_fy v_fz 
    5537   -1152448.9            0   -1152448.9 -0.0052700707 -0.0025559925 -0.023275747 
    5694   -1152448.9            0   -1152448.9 -6.1843216e-06 -5.215118e-06 -2.0180795e-05 
Loop time of 1.80828 on 104 procs for 157 steps with 288751 atoms

99.9% CPU use with 104 MPI tasks x 1 OpenMP threads

Minimization stats:
  Stopping criterion = energy tolerance
  Energy initial, next-to-last, final = 
     -1152448.87425025  -1152448.87609579  -1152448.87609579
  Force two-norm initial, final = 0.2203489 0.0002943907
  Force max component initial, final = 0.17200893 8.2424834e-05
  Final line search alpha, max atom move = 1.0000000 8.2424834e-05
  Iterations, force evaluations = 157 314

MPI task timing breakdown:
Section |  min time  |  avg time  |  max time  |%varavg| %total
---------------------------------------------------------------
Pair    | 0.47439    | 1.3155     | 1.7034     |  30.9 | 72.75
Neigh   | 0          | 0          | 0          |   0.0 |  0.00
Comm    | 0.027521   | 0.29524    | 0.88636    |  45.9 | 16.33
Output  | 0          | 0          | 0          |   0.0 |  0.00
Modify  | 1.9446e-05 | 0.0025951  | 0.0055305  |   2.4 |  0.14
Other   |            | 0.1949     |            |       | 10.78

Nlocal:        2776.45 ave        3952 max           0 min
Histogram: 8 4 4 0 4 12 8 0 30 34
Nghost:        3879.03 ave        5425 max         232 min
Histogram: 8 0 8 0 16 0 8 8 16 40
Neighs:        79213.3 ave      115158 max           0 min
Histogram: 8 4 4 0 10 6 8 8 24 32

Total # of neighbors = 8238180
Ave neighs/atom = 28.530395
Neighbor list builds = 0
Dangerous builds = 0
The dot product: 7.41566974463663e-08
Setting atom values ...
  1 settings made for x
  1 settings made for y
  1 settings made for z
Setting up cg style minimization ...
  Unit style    : metal
  Current step  : 5694
Per MPI rank memory allocation (min/avg/max) = 5.441 | 5.816 | 6.074 Mbytes
Step PotEng KinEng TotEng v_fx v_fy v_fz 
    5694   -1152448.9            0   -1152448.9 -0.0020583804 0.00076747962 -0.014331702 
    5832   -1152448.9            0   -1152448.9 3.9592863e-06 1.3338946e-05 -1.9011644e-05 
Loop time of 1.59415 on 104 procs for 138 steps with 288751 atoms

99.9% CPU use with 104 MPI tasks x 1 OpenMP threads

Minimization stats:
  Stopping criterion = energy tolerance
  Energy initial, next-to-last, final = 
     -1152448.85034463  -1152448.85229026  -1152448.85229026
  Force two-norm initial, final = 0.22408797 0.00029539466
  Force max component initial, final = 0.17420579 0.0001143801
  Final line search alpha, max atom move = 1.0000000 0.0001143801
  Iterations, force evaluations = 138 276

MPI task timing breakdown:
Section |  min time  |  avg time  |  max time  |%varavg| %total
---------------------------------------------------------------
Pair    | 0.41406    | 1.1603     | 1.503      |  29.2 | 72.78
Neigh   | 0          | 0          | 0          |   0.0 |  0.00
Comm    | 0.026956   | 0.25996    | 0.77766    |  43.4 | 16.31
Output  | 0          | 0          | 0          |   0.0 |  0.00
Modify  | 1.6584e-05 | 0.0022831  | 0.0048873  |   2.2 |  0.14
Other   |            | 0.1716     |            |       | 10.77

Nlocal:        2776.45 ave        3949 max           0 min
Histogram: 8 4 4 0 4 12 8 0 28 36
Nghost:        3878.99 ave        5425 max         232 min
Histogram: 8 0 8 0 16 0 8 8 16 40
Neighs:        79213.3 ave      115060 max           0 min
Histogram: 8 4 4 0 10 6 8 8 24 32

Total # of neighbors = 8238179
Ave neighs/atom = 28.530391
Neighbor list builds = 0
Dangerous builds = 0
The dot product: -5.30017265821995e-10
Setting atom values ...
  1 settings made for x
  1 settings made for y
  1 settings made for z
Setting up cg style minimization ...
  Unit style    : metal
  Current step  : 5832
Per MPI rank memory allocation (min/avg/max) = 5.441 | 5.816 | 6.074 Mbytes
Step PotEng KinEng TotEng v_fx v_fy v_fz 
    5832   -1152448.8            0   -1152448.8 -0.00079256287  0.001746062 -0.0099983534 
    6000   -1152448.8            0   -1152448.8 -4.670275e-06 -4.3504408e-06 -1.3154014e-05 
    6083   -1152448.8            0   -1152448.8 1.2644023e-07  2.77177e-08 6.3766241e-07 
Loop time of 2.90598 on 104 procs for 251 steps with 288751 atoms

99.9% CPU use with 104 MPI tasks x 1 OpenMP threads

Minimization stats:
  Stopping criterion = energy tolerance
  Energy initial, next-to-last, final = 
      -1152448.8242798    -1152448.826335    -1152448.826335
  Force two-norm initial, final = 0.22886281 1.5357220e-05
  Force max component initial, final = 0.1767354 5.2139651e-06
  Final line search alpha, max atom move = 1.0000000 5.2139651e-06
  Iterations, force evaluations = 251 502

MPI task timing breakdown:
Section |  min time  |  avg time  |  max time  |%varavg| %total
---------------------------------------------------------------
Pair    | 0.7538     | 2.101      | 2.7286     |  39.1 | 72.30
Neigh   | 0          | 0          | 0          |   0.0 |  0.00
Comm    | 0.049006   | 0.47522    | 1.4207     |  57.6 | 16.35
Output  | 0.0002906  | 0.00029612 | 0.00050229 |   0.0 |  0.01
Modify  | 3.2587e-05 | 0.0041383  | 0.0088275  |   3.0 |  0.14
Other   |            | 0.3253     |            |       | 11.19

Nlocal:        2776.45 ave        3945 max           0 min
Histogram: 8 4 4 0 4 12 8 0 28 36
Nghost:        3878.99 ave        5425 max         232 min
Histogram: 8 0 8 0 16 0 8 8 16 40
Neighs:        79213.2 ave      114919 max           0 min
Histogram: 8 4 4 0 10 6 8 8 22 34

Total # of neighbors = 8238176
Ave neighs/atom = 28.530381
Neighbor list builds = 0
Dangerous builds = 0
The dot product: -2.14358373425082e-10
Setting atom values ...
  1 settings made for x
  1 settings made for y
  1 settings made for z
Setting up cg style minimization ...
  Unit style    : metal
  Current step  : 6083
Per MPI rank memory allocation (min/avg/max) = 5.441 | 5.816 | 6.074 Mbytes
Step PotEng KinEng TotEng v_fx v_fy v_fz 
    6083   -1152448.8            0   -1152448.8 -0.00023070343 0.0020623325 -0.0077731624 
    6277   -1152448.8            0   -1152448.8 -1.6612512e-06 -2.2162833e-06 -2.5537142e-06 
Loop time of 2.24965 on 104 procs for 194 steps with 288751 atoms

99.9% CPU use with 104 MPI tasks x 1 OpenMP threads

Minimization stats:
  Stopping criterion = energy tolerance
  Energy initial, next-to-last, final = 
     -1152448.79596586  -1152448.79811452  -1152448.79811452
  Force two-norm initial, final = 0.23324854 9.8855699e-05
  Force max component initial, final = 0.17897021 3.8051439e-05
  Final line search alpha, max atom move = 1.0000000 3.8051439e-05
  Iterations, force evaluations = 194 388

MPI task timing breakdown:
Section |  min time  |  avg time  |  max time  |%varavg| %total
---------------------------------------------------------------
Pair    | 0.58147    | 1.6324     | 2.1098     |  34.7 | 72.56
Neigh   | 0          | 0          | 0          |   0.0 |  0.00
Comm    | 0.037677   | 0.36698    | 1.0914     |  51.1 | 16.31
Output  | 0          | 0          | 0          |   0.0 |  0.00
Modify  | 2.3216e-05 | 0.0032044  | 0.0068301  |   2.7 |  0.14
Other   |            | 0.2471     |            |       | 10.98

Nlocal:        2776.45 ave        3938 max           0 min
Histogram: 8 4 4 0 4 12 8 0 28 36
Nghost:        3878.99 ave        5425 max         232 min
Histogram: 8 0 8 0 16 0 8 8 16 40
Neighs:        79213.2 ave      114696 max           0 min
Histogram: 8 4 4 0 8 8 8 8 22 34

Total # of neighbors = 8238174
Ave neighs/atom = 28.530374
Neighbor list builds = 0
Dangerous builds = 0
The dot product: 2.09505234979856e-09
Setting atom values ...
  1 settings made for x
  1 settings made for y
  1 settings made for z
Setting up cg style minimization ...
  Unit style    : metal
  Current step  : 6277
Per MPI rank memory allocation (min/avg/max) = 5.441 | 5.816 | 6.074 Mbytes
Step PotEng KinEng TotEng v_fx v_fy v_fz 
    6277   -1152448.8            0   -1152448.8 0.0001994341 0.0024068953 -0.0064323045 
    6427   -1152448.8            0   -1152448.8 -3.801182e-07 -4.2390933e-07 -8.4165655e-07 
Loop time of 1.73978 on 104 procs for 150 steps with 288751 atoms

99.9% CPU use with 104 MPI tasks x 1 OpenMP threads

Minimization stats:
  Stopping criterion = energy tolerance
  Energy initial, next-to-last, final = 
     -1152448.76532903  -1152448.76754909  -1152448.76754909
  Force two-norm initial, final = 0.23711461 0.00018963368
  Force max component initial, final = 0.18139992 4.9209337e-05
  Final line search alpha, max atom move = 1.0000000 4.9209337e-05
  Iterations, force evaluations = 150 300

MPI task timing breakdown:
Section |  min time  |  avg time  |  max time  |%varavg| %total
---------------------------------------------------------------
Pair    | 0.45171    | 1.2586     | 1.6382     |  30.3 | 72.34
Neigh   | 0          | 0          | 0          |   0.0 |  0.00
Comm    | 0.026021   | 0.28435    | 0.85061    |  44.6 | 16.34
Output  | 0          | 0          | 0          |   0.0 |  0.00
Modify  | 1.8857e-05 | 0.0024778  | 0.0052848  |   2.3 |  0.14
Other   |            | 0.1944     |            |       | 11.17

Nlocal:        2776.45 ave        3930 max           0 min
Histogram: 8 4 4 0 4 12 8 0 26 38
Nghost:        3879.01 ave        5425 max         232 min
Histogram: 8 0 8 0 16 0 8 8 16 40
Neighs:        79213.2 ave      114461 max           0 min
Histogram: 8 4 4 0 8 8 8 8 20 36

Total # of neighbors = 8238169
Ave neighs/atom = 28.530357
Neighbor list builds = 0
Dangerous builds = 0
The dot product: 5.78004899653501e-11
Setting up cg style minimization ...
  Unit style    : metal
  Current step  : 6427
Per MPI rank memory allocation (min/avg/max) = 5.441 | 5.816 | 6.074 Mbytes
Step PotEng KinEng TotEng v_fx v_fy v_fz 
    6427   -1152448.8            0   -1152448.8    -1.375469    0.7562236   0.24032309 
    6718   -1152449.5            0   -1152449.5 -4.6882118e-07 -1.4194229e-06 -1.2051372e-07 
Loop time of 3.34541 on 104 procs for 291 steps with 288751 atoms

99.9% CPU use with 104 MPI tasks x 1 OpenMP threads

Minimization stats:
  Stopping criterion = energy tolerance
  Energy initial, next-to-last, final = 
     -1152448.76754909  -1152449.45035262  -1152449.45035262
  Force two-norm initial, final = 1.5879371 3.1315236e-05
  Force max component initial, final = 1.3754690 3.7556834e-06
  Final line search alpha, max atom move = 1.0000000 3.7556834e-06
  Iterations, force evaluations = 291 577

MPI task timing breakdown:
Section |  min time  |  avg time  |  max time  |%varavg| %total
---------------------------------------------------------------
Pair    | 0.88214    | 2.4289     | 3.1305     |  41.7 | 72.60
Neigh   | 3.0059e-05 | 0.0088328  | 0.012849   |   3.9 |  0.26
Comm    | 0.05259    | 0.54822    | 1.65       |  62.6 | 16.39
Output  | 0          | 0          | 0          |   0.0 |  0.00
Modify  | 3.4863e-05 | 0.0031136  | 0.0079666  |   3.5 |  0.09
Other   |            | 0.3563     |            |       | 10.65

Nlocal:        2776.45 ave        3930 max           0 min
Histogram: 8 4 4 0 4 12 8 0 26 38
Nghost:        3879.01 ave        5426 max         232 min
Histogram: 8 0 8 0 16 0 8 8 16 40
Neighs:        79213.2 ave      114461 max           0 min
Histogram: 8 4 4 0 8 8 8 8 20 36

Total # of neighbors = 8238172
Ave neighs/atom = 28.530367
Neighbor list builds = 3
Dangerous builds = 0
