LAMMPS (29 Oct 2020)
OMP_NUM_THREADS environment is not set. Defaulting to 1 thread. (../comm.cpp:94)
  using 1 OpenMP thread(s) per MPI task
OMP_NUM_THREADS environment is not set. Defaulting to 1 thread. (../comm.cpp:94)
  using 1 OpenMP thread(s) per MPI task
Reading data file ...
  orthogonal box = (-122.39241 -121.13707 -37.090501) to (122.39241 121.13707 37.090501)
  13 by 4 by 2 MPI processor grid
  reading atoms ...
  288751 atoms
  read_data CPU = 0.377 seconds
199981 atoms in group inner
88770 atoms in group outer
1 atoms in group carbon
Neighbor list info ...
  update every 1 steps, delay 0 steps, check yes
  max neighbors/atom: 2000, page size: 100000
  master list distance cutoff = 5.6
  ghost atom cutoff = 5.6
  binsize = 2.8, bins = 88 87 27
  1 neighbor lists, perpetual/occasional/extra = 1 0 0
  (1) pair eam/alloy, perpetual
      attributes: half, newton on
      pair build: half/bin/atomonly/newton
      stencil: half/bin/3d/newton
      bin: standard
Setting up cg style minimization ...
  Unit style    : metal
  Current step  : 0
Per MPI rank memory allocation (min/avg/max) = 5.441 | 5.816 | 6.074 Mbytes
Step v_fx v_fy v_fz PotEng KinEng TotEng 
       0   0.26593027   -0.4886395  -0.39936452   -1152447.8            0   -1152447.8 
     238 -2.8983763e-06 1.6890561e-07 4.3773551e-07   -1152449.5            0   -1152449.5 
Loop time of 2.80452 on 104 procs for 238 steps with 288751 atoms

99.8% CPU use with 104 MPI tasks x 1 OpenMP threads

Minimization stats:
  Stopping criterion = energy tolerance
  Energy initial, next-to-last, final = 
     -1152447.84845496  -1152449.45035286  -1152449.45035286
  Force two-norm initial, final = 9.7663153 9.2923229e-06
  Force max component initial, final = 5.1924105 2.8983763e-06
  Final line search alpha, max atom move = 1.0000000 2.8983763e-06
  Iterations, force evaluations = 238 475

MPI task timing breakdown:
Section |  min time  |  avg time  |  max time  |%varavg| %total
---------------------------------------------------------------
Pair    | 0.73091    | 1.9985     | 2.5962     |  38.0 | 71.26
Neigh   | 2.1705e-05 | 0.0058507  | 0.0084532  |   3.2 |  0.21
Comm    | 0.045995   | 0.45601    | 1.3496     |  55.6 | 16.26
Output  | 0          | 0          | 0          |   0.0 |  0.00
Modify  | 2.6387e-05 | 0.0025619  | 0.0065159  |   3.1 |  0.09
Other   |            | 0.3416     |            |       | 12.18

Nlocal:        2776.45 ave        3955 max           0 min
Histogram: 8 4 4 0 4 12 8 0 30 34
Nghost:        3879.07 ave        5424 max         232 min
Histogram: 8 0 8 0 16 0 8 8 16 40
Neighs:        79213.7 ave      115289 max           0 min
Histogram: 8 4 4 0 10 6 8 8 24 32

Total # of neighbors = 8238222
Ave neighs/atom = 28.530540
Neighbor list builds = 2
Dangerous builds = 0
Setting atom values ...
  1 settings made for x
  1 settings made for y
  1 settings made for z
Setting up cg style minimization ...
  Unit style    : metal
  Current step  : 238
Per MPI rank memory allocation (min/avg/max) = 5.441 | 5.816 | 6.074 Mbytes
Step PotEng KinEng TotEng v_fx v_fy v_fz 
     238   -1152449.4            0   -1152449.4 0.00026006305 -0.0097104525 -0.0087160883 
     504   -1152449.5            0   -1152449.5 3.6957205e-07 -1.4784505e-08 -5.942284e-07 
Loop time of 3.16093 on 104 procs for 266 steps with 288751 atoms

99.9% CPU use with 104 MPI tasks x 1 OpenMP threads

Minimization stats:
  Stopping criterion = energy tolerance
  Energy initial, next-to-last, final = 
     -1152449.44959013  -1152449.45008252  -1152449.45008252
  Force two-norm initial, final = 0.10181155 2.0600857e-06
  Force max component initial, final = 0.051607656 5.9422840e-07
  Final line search alpha, max atom move = 1.0000000 5.9422840e-07
  Iterations, force evaluations = 266 532

MPI task timing breakdown:
Section |  min time  |  avg time  |  max time  |%varavg| %total
---------------------------------------------------------------
Pair    | 0.81422    | 2.2493     | 2.9282     |  40.3 | 71.16
Neigh   | 0          | 0          | 0          |   0.0 |  0.00
Comm    | 0.059444   | 0.51662    | 1.5238     |  58.7 | 16.34
Output  | 0          | 0          | 0          |   0.0 |  0.00
Modify  | 3.4083e-05 | 0.0044042  | 0.0093307  |   3.1 |  0.14
Other   |            | 0.3906     |            |       | 12.36

Nlocal:        2776.45 ave        3958 max           0 min
Histogram: 8 4 4 0 4 12 8 2 28 34
Nghost:        3879.03 ave        5424 max         232 min
Histogram: 8 0 8 0 16 0 8 8 16 40
Neighs:        79213.4 ave      115370 max           0 min
Histogram: 8 4 4 0 10 6 8 8 24 32

Total # of neighbors = 8238197
Ave neighs/atom = 28.530454
Neighbor list builds = 0
Dangerous builds = 0
Setting atom values ...
  1 settings made for x
  1 settings made for y
  1 settings made for z
Setting up cg style minimization ...
  Unit style    : metal
  Current step  : 504
Per MPI rank memory allocation (min/avg/max) = 5.441 | 5.816 | 6.074 Mbytes
Step PotEng KinEng TotEng v_fx v_fy v_fz 
     504   -1152449.4            0   -1152449.4 -0.00045139164 -0.020422992 -0.018585934 
     715   -1152449.4            0   -1152449.4 -9.4582626e-06 -1.9343409e-07 1.7043828e-05 
Loop time of 2.48365 on 104 procs for 211 steps with 288751 atoms

99.9% CPU use with 104 MPI tasks x 1 OpenMP threads

Minimization stats:
  Stopping criterion = energy tolerance
  Energy initial, next-to-last, final = 
     -1152449.44665066  -1152449.44825722  -1152449.44825722
  Force two-norm initial, final = 0.18519235 6.4822456e-05
  Force max component initial, final = 0.093959223 1.7043828e-05
  Final line search alpha, max atom move = 1.0000000 1.7043828e-05
  Iterations, force evaluations = 211 422

MPI task timing breakdown:
Section |  min time  |  avg time  |  max time  |%varavg| %total
---------------------------------------------------------------
Pair    | 0.63421    | 1.7712     | 2.3095     |  36.1 | 71.32
Neigh   | 0          | 0          | 0          |   0.0 |  0.00
Comm    | 0.048285   | 0.40636    | 1.194      |  52.3 | 16.36
Output  | 0          | 0          | 0          |   0.0 |  0.00
Modify  | 2.6628e-05 | 0.0034932  | 0.007386   |   2.8 |  0.14
Other   |            | 0.3026     |            |       | 12.18

Nlocal:        2776.45 ave        3958 max           0 min
Histogram: 8 4 4 0 4 12 8 2 28 34
Nghost:        3879.03 ave        5424 max         232 min
Histogram: 8 0 8 0 16 0 8 8 16 40
Neighs:        79213.4 ave      115370 max           0 min
Histogram: 8 4 4 0 10 6 8 8 24 32

Total # of neighbors = 8238198
Ave neighs/atom = 28.530457
Neighbor list builds = 0
Dangerous builds = 0
The dot product: -3.58199270615891e-08
Setting atom values ...
  1 settings made for x
  1 settings made for y
  1 settings made for z
Setting up cg style minimization ...
  Unit style    : metal
  Current step  : 715
Per MPI rank memory allocation (min/avg/max) = 5.441 | 5.816 | 6.074 Mbytes
Step PotEng KinEng TotEng v_fx v_fy v_fz 
     715   -1152449.4            0   -1152449.4 -0.0021866134 -0.026626269 -0.024956841 
     871   -1152449.4            0   -1152449.4 3.2897059e-05 -5.0681634e-06 -7.614463e-05 
Loop time of 1.85274 on 104 procs for 156 steps with 288751 atoms

99.9% CPU use with 104 MPI tasks x 1 OpenMP threads

Minimization stats:
  Stopping criterion = energy tolerance
  Energy initial, next-to-last, final = 
     -1152449.44327992  -1152449.44489374  -1152449.44489374
  Force two-norm initial, final = 0.18667729 0.00023227707
  Force max component initial, final = 0.092487606 7.6144630e-05
  Final line search alpha, max atom move = 1.0000000 7.6144630e-05
  Iterations, force evaluations = 156 312

MPI task timing breakdown:
Section |  min time  |  avg time  |  max time  |%varavg| %total
---------------------------------------------------------------
Pair    | 0.47093    | 1.3185     | 1.7289     |  31.0 | 71.17
Neigh   | 0          | 0          | 0          |   0.0 |  0.00
Comm    | 0.037442   | 0.30443    | 0.89136    |  44.9 | 16.43
Output  | 0          | 0          | 0          |   0.0 |  0.00
Modify  | 1.8994e-05 | 0.0025805  | 0.0054795  |   2.4 |  0.14
Other   |            | 0.2272     |            |       | 12.26

Nlocal:        2776.45 ave        3957 max           0 min
Histogram: 8 4 4 0 4 12 8 2 28 34
Nghost:        3879.03 ave        5424 max         232 min
Histogram: 8 0 8 0 16 0 8 8 16 40
Neighs:        79213.4 ave      115340 max           0 min
Histogram: 8 4 4 0 10 6 8 8 24 32

Total # of neighbors = 8238196
Ave neighs/atom = 28.530450
Neighbor list builds = 0
Dangerous builds = 0
The dot product: 2.74587646391252e-07
Setting atom values ...
  1 settings made for x
  1 settings made for y
  1 settings made for z
Setting up cg style minimization ...
  Unit style    : metal
  Current step  : 871
Per MPI rank memory allocation (min/avg/max) = 5.441 | 5.816 | 6.074 Mbytes
Step PotEng KinEng TotEng v_fx v_fy v_fz 
     871   -1152449.4            0   -1152449.4 -0.0067700117 -0.031609109 -0.027120329 
     985   -1152449.4            0   -1152449.4 8.395159e-06 -3.5288337e-06 -2.6880548e-05 
Loop time of 1.3448 on 104 procs for 114 steps with 288751 atoms

99.9% CPU use with 104 MPI tasks x 1 OpenMP threads

Minimization stats:
  Stopping criterion = energy tolerance
  Energy initial, next-to-last, final = 
     -1152449.43858075  -1152449.44020392  -1152449.44020392
  Force two-norm initial, final = 0.18716229 0.00023329241
  Force max component initial, final = 0.089089577 4.1261805e-05
  Final line search alpha, max atom move = 1.0000000 4.1261805e-05
  Iterations, force evaluations = 114 228

MPI task timing breakdown:
Section |  min time  |  avg time  |  max time  |%varavg| %total
---------------------------------------------------------------
Pair    | 0.34285    | 0.95895    | 1.2525     |  26.6 | 71.31
Neigh   | 0          | 0          | 0          |   0.0 |  0.00
Comm    | 0.020527   | 0.2185     | 0.64393    |  38.2 | 16.25
Output  | 0          | 0          | 0          |   0.0 |  0.00
Modify  | 1.392e-05  | 0.0018901  | 0.0039956  |   2.0 |  0.14
Other   |            | 0.1655     |            |       | 12.30

Nlocal:        2776.45 ave        3957 max           0 min
Histogram: 8 4 4 0 4 12 8 2 28 34
Nghost:        3879.03 ave        5425 max         232 min
Histogram: 8 0 8 0 16 0 8 8 16 40
Neighs:        79213.4 ave      115339 max           0 min
Histogram: 8 4 4 0 10 6 8 8 24 32

Total # of neighbors = 8238195
Ave neighs/atom = 28.530447
Neighbor list builds = 0
Dangerous builds = 0
The dot product: 1.15858260500445e-07
Setting atom values ...
  1 settings made for x
  1 settings made for y
  1 settings made for z
Setting up cg style minimization ...
  Unit style    : metal
  Current step  : 985
Per MPI rank memory allocation (min/avg/max) = 5.441 | 5.816 | 6.074 Mbytes
Step PotEng KinEng TotEng v_fx v_fy v_fz 
     985   -1152449.4            0   -1152449.4 -0.011186251 -0.032442334 -0.023965085 
    1000   -1152449.4            0   -1152449.4 -3.189452e-05 0.00010230714 0.00028821526 
    1156   -1152449.4            0   -1152449.4 -7.1658374e-06 -3.952311e-06 1.5451172e-05 
Loop time of 2.02718 on 104 procs for 171 steps with 288751 atoms

99.9% CPU use with 104 MPI tasks x 1 OpenMP threads

Minimization stats:
  Stopping criterion = energy tolerance
  Energy initial, next-to-last, final = 
     -1152449.43257723   -1152449.4341793   -1152449.4341793
  Force two-norm initial, final = 0.18576816 0.00010852919
  Force max component initial, final = 0.085016762 2.4439925e-05
  Final line search alpha, max atom move = 1.0000000 2.4439925e-05
  Iterations, force evaluations = 171 342

MPI task timing breakdown:
Section |  min time  |  avg time  |  max time  |%varavg| %total
---------------------------------------------------------------
Pair    | 0.51329    | 1.444      | 1.8836     |  32.5 | 71.23
Neigh   | 0          | 0          | 0          |   0.0 |  0.00
Comm    | 0.034092   | 0.33179    | 0.96718    |  46.7 | 16.37
Output  | 0.00015398 | 0.00016228 | 0.00023358 |   0.0 |  0.01
Modify  | 2.1785e-05 | 0.0028263  | 0.0059844  |   2.5 |  0.14
Other   |            | 0.2484     |            |       | 12.25

Nlocal:        2776.45 ave        3957 max           0 min
Histogram: 8 4 4 0 4 12 8 2 28 34
Nghost:        3879.03 ave        5429 max         232 min
Histogram: 8 0 8 0 16 0 8 8 16 40
Neighs:        79213.4 ave      115339 max           0 min
Histogram: 8 4 4 0 10 6 8 8 24 32

Total # of neighbors = 8238197
Ave neighs/atom = 28.530454
Neighbor list builds = 0
Dangerous builds = 0
The dot product: -4.62706658642829e-08
Setting atom values ...
  1 settings made for x
  1 settings made for y
  1 settings made for z
Setting up cg style minimization ...
  Unit style    : metal
  Current step  : 1156
Per MPI rank memory allocation (min/avg/max) = 5.441 | 5.816 | 6.074 Mbytes
Step PotEng KinEng TotEng v_fx v_fy v_fz 
    1156   -1152449.4            0   -1152449.4 -0.013761609 -0.030708235  -0.01852756 
    1290   -1152449.4            0   -1152449.4 7.2529365e-07 -1.3024021e-06 -5.6630802e-06 
Loop time of 1.55647 on 104 procs for 134 steps with 288751 atoms

99.9% CPU use with 104 MPI tasks x 1 OpenMP threads

Minimization stats:
  Stopping criterion = energy tolerance
  Energy initial, next-to-last, final = 
     -1152449.42520551  -1152449.42677421  -1152449.42677421
  Force two-norm initial, final = 0.18367956 7.7623487e-05
  Force max component initial, final = 0.081486121 1.4349726e-05
  Final line search alpha, max atom move = 1.0000000 1.4349726e-05
  Iterations, force evaluations = 134 268

MPI task timing breakdown:
Section |  min time  |  avg time  |  max time  |%varavg| %total
---------------------------------------------------------------
Pair    | 0.40286    | 1.1233     | 1.4635     |  28.7 | 72.17
Neigh   | 0          | 0          | 0          |   0.0 |  0.00
Comm    | 0.023976   | 0.25354    | 0.75158    |  42.1 | 16.29
Output  | 0          | 0          | 0          |   0.0 |  0.00
Modify  | 1.648e-05  | 0.0022141  | 0.0046921  |   2.2 |  0.14
Other   |            | 0.1774     |            |       | 11.40

Nlocal:        2776.45 ave        3955 max           0 min
Histogram: 8 4 4 0 4 12 8 0 30 34
Nghost:        3879.03 ave        5429 max         232 min
Histogram: 8 0 8 0 16 0 8 8 16 40
Neighs:        79213.4 ave      115277 max           0 min
Histogram: 8 4 4 0 10 6 8 8 24 32

Total # of neighbors = 8238198
Ave neighs/atom = 28.530457
Neighbor list builds = 0
Dangerous builds = 0
The dot product: 1.88049549695877e-08
Setting atom values ...
  1 settings made for x
  1 settings made for y
  1 settings made for z
Setting up cg style minimization ...
  Unit style    : metal
  Current step  : 1290
Per MPI rank memory allocation (min/avg/max) = 5.441 | 5.816 | 6.074 Mbytes
Step PotEng KinEng TotEng v_fx v_fy v_fz 
    1290   -1152449.4            0   -1152449.4 -0.014447391 -0.027673337 -0.012941666 
    1400   -1152449.4            0   -1152449.4 1.5057022e-06 1.9125614e-06 -1.2388298e-06 
Loop time of 1.30299 on 104 procs for 110 steps with 288751 atoms

99.9% CPU use with 104 MPI tasks x 1 OpenMP threads

Minimization stats:
  Stopping criterion = energy tolerance
  Energy initial, next-to-last, final = 
      -1152449.4164128  -1152449.41795015  -1152449.41795015
  Force two-norm initial, final = 0.1816072 0.00020541847
  Force max component initial, final = 0.079094343 2.0866721e-05
  Final line search alpha, max atom move = 1.0000000 2.0866721e-05
  Iterations, force evaluations = 110 220

MPI task timing breakdown:
Section |  min time  |  avg time  |  max time  |%varavg| %total
---------------------------------------------------------------
Pair    | 0.32998    | 0.92932    | 1.2104     |  26.1 | 71.32
Neigh   | 0          | 0          | 0          |   0.0 |  0.00
Comm    | 0.020317   | 0.21205    | 0.6278     |  37.7 | 16.27
Output  | 0          | 0          | 0          |   0.0 |  0.00
Modify  | 1.3322e-05 | 0.0018245  | 0.0038825  |   2.0 |  0.14
Other   |            | 0.1598     |            |       | 12.26

Nlocal:        2776.45 ave        3955 max           0 min
Histogram: 8 4 4 0 4 12 8 0 30 34
Nghost:        3879.03 ave        5429 max         232 min
Histogram: 8 0 8 0 16 0 8 8 16 40
Neighs:        79213.5 ave      115277 max           0 min
Histogram: 8 4 4 0 10 6 8 8 24 32

Total # of neighbors = 8238199
Ave neighs/atom = 28.530461
Neighbor list builds = 0
Dangerous builds = 0
The dot product: -1.91335365151615e-10
Setting atom values ...
  1 settings made for x
  1 settings made for y
  1 settings made for z
Setting up cg style minimization ...
  Unit style    : metal
  Current step  : 1400
Per MPI rank memory allocation (min/avg/max) = 5.441 | 5.816 | 6.074 Mbytes
Step PotEng KinEng TotEng v_fx v_fy v_fz 
    1400   -1152449.4            0   -1152449.4 -0.013523164 -0.023606686 -0.0078095462 
    1516   -1152449.4            0   -1152449.4 -6.5131361e-07 8.3821323e-07 5.4190832e-06 
Loop time of 1.34962 on 104 procs for 116 steps with 288751 atoms

99.9% CPU use with 104 MPI tasks x 1 OpenMP threads

Minimization stats:
  Stopping criterion = energy tolerance
  Energy initial, next-to-last, final = 
     -1152449.40616598  -1152449.40768577  -1152449.40768577
  Force two-norm initial, final = 0.1797231 0.00017809317
  Force max component initial, final = 0.077797746 2.0801145e-05
  Final line search alpha, max atom move = 1.0000000 2.0801145e-05
  Iterations, force evaluations = 116 232

MPI task timing breakdown:
Section |  min time  |  avg time  |  max time  |%varavg| %total
---------------------------------------------------------------
Pair    | 0.35054    | 0.97469    | 1.267      |  26.6 | 72.22
Neigh   | 0          | 0          | 0          |   0.0 |  0.00
Comm    | 0.021613   | 0.21977    | 0.65832    |  39.4 | 16.28
Output  | 0          | 0          | 0          |   0.0 |  0.00
Modify  | 1.4172e-05 | 0.0019184  | 0.0040701  |   2.1 |  0.14
Other   |            | 0.1532     |            |       | 11.35

Nlocal:        2776.45 ave        3953 max           0 min
Histogram: 8 4 4 0 4 12 8 0 30 34
Nghost:        3879.03 ave        5429 max         232 min
Histogram: 8 0 8 0 16 0 8 8 16 40
Neighs:        79213.5 ave      115207 max           0 min
Histogram: 8 4 4 0 10 6 8 8 24 32

Total # of neighbors = 8238202
Ave neighs/atom = 28.530471
Neighbor list builds = 0
Dangerous builds = 0
The dot product: -5.36044345975684e-09
Setting atom values ...
  1 settings made for x
  1 settings made for y
  1 settings made for z
Setting up cg style minimization ...
  Unit style    : metal
  Current step  : 1516
Per MPI rank memory allocation (min/avg/max) = 5.441 | 5.816 | 6.074 Mbytes
Step PotEng KinEng TotEng v_fx v_fy v_fz 
    1516   -1152449.4            0   -1152449.4  -0.01068384 -0.017584226 -0.0030634813 
    1662   -1152449.4            0   -1152449.4 9.056528e-06 1.1840295e-06 -3.912108e-05 
Loop time of 1.75608 on 104 procs for 146 steps with 288751 atoms

99.9% CPU use with 104 MPI tasks x 1 OpenMP threads

Minimization stats:
  Stopping criterion = energy tolerance
  Energy initial, next-to-last, final = 
     -1152449.39446583  -1152449.39599682  -1152449.39599682
  Force two-norm initial, final = 0.17804681 0.00013384101
  Force max component initial, final = 0.077652704 3.9121080e-05
  Final line search alpha, max atom move = 1.0000000 3.9121080e-05
  Iterations, force evaluations = 146 292

MPI task timing breakdown:
Section |  min time  |  avg time  |  max time  |%varavg| %total
---------------------------------------------------------------
Pair    | 0.4401     | 1.2372     | 1.6148     |  30.1 | 70.45
Neigh   | 0          | 0          | 0          |   0.0 |  0.00
Comm    | 0.027622   | 0.28598    | 0.83465    |  42.9 | 16.28
Output  | 0          | 0          | 0          |   0.0 |  0.00
Modify  | 1.7651e-05 | 0.0024197  | 0.0051278  |   2.3 |  0.14
Other   |            | 0.2305     |            |       | 13.12

Nlocal:        2776.45 ave        3953 max           0 min
Histogram: 8 4 4 0 4 12 8 0 30 34
Nghost:        3879.03 ave        5429 max         232 min
Histogram: 8 0 8 0 16 0 8 8 16 40
Neighs:        79213.5 ave      115207 max           0 min
Histogram: 8 4 4 0 10 6 8 8 24 32

Total # of neighbors = 8238203
Ave neighs/atom = 28.530474
Neighbor list builds = 0
Dangerous builds = 0
The dot product: 2.73675355539083e-09
Setting atom values ...
  1 settings made for x
  1 settings made for y
  1 settings made for z
Setting up cg style minimization ...
  Unit style    : metal
  Current step  : 1662
Per MPI rank memory allocation (min/avg/max) = 5.441 | 5.816 | 6.074 Mbytes
Step PotEng KinEng TotEng v_fx v_fy v_fz 
    1662   -1152449.4            0   -1152449.4 -0.0061263934 -0.009147857 0.0019660113 
    1794   -1152449.4            0   -1152449.4 1.3034535e-06 2.6929483e-06 1.7785461e-06 
Loop time of 1.52833 on 104 procs for 132 steps with 288751 atoms

99.9% CPU use with 104 MPI tasks x 1 OpenMP threads

Minimization stats:
  Stopping criterion = energy tolerance
  Energy initial, next-to-last, final = 
     -1152449.38136012  -1152449.38295605  -1152449.38295605
  Force two-norm initial, final = 0.17688928 0.00019675994
  Force max component initial, final = 0.078906834 3.6189830e-05
  Final line search alpha, max atom move = 1.0000000 3.6189830e-05
  Iterations, force evaluations = 132 264

MPI task timing breakdown:
Section |  min time  |  avg time  |  max time  |%varavg| %total
---------------------------------------------------------------
Pair    | 0.39639    | 1.1093     | 1.4421     |  28.5 | 72.59
Neigh   | 0          | 0          | 0          |   0.0 |  0.00
Comm    | 0.023598   | 0.25018    | 0.74549    |  42.0 | 16.37
Output  | 0          | 0          | 0          |   0.0 |  0.00
Modify  | 1.5983e-05 | 0.0021808  | 0.0046331  |   2.2 |  0.14
Other   |            | 0.1666     |            |       | 10.90

Nlocal:        2776.45 ave        3951 max           0 min
Histogram: 8 4 4 0 4 12 8 0 30 34
Nghost:        3879.01 ave        5429 max         232 min
Histogram: 8 0 8 0 16 0 8 8 16 40
Neighs:        79213.5 ave      115132 max           0 min
Histogram: 8 4 4 0 10 6 8 8 24 32

Total # of neighbors = 8238203
Ave neighs/atom = 28.530474
Neighbor list builds = 0
Dangerous builds = 0
The dot product: 2.12436196893097e-08
Setting atom values ...
  1 settings made for x
  1 settings made for y
  1 settings made for z
Setting up cg style minimization ...
  Unit style    : metal
  Current step  : 1794
Per MPI rank memory allocation (min/avg/max) = 5.441 | 5.816 | 6.074 Mbytes
Step PotEng KinEng TotEng v_fx v_fy v_fz 
    1794   -1152449.4            0   -1152449.4 -0.00031456786 0.0030483166 0.0093819805 
    2000   -1152449.4            0   -1152449.4 -2.0033101e-07 6.3468274e-07 2.5584402e-06 
    2020   -1152449.4            0   -1152449.4 -7.645915e-07 2.0387771e-07 3.9639887e-06 
Loop time of 2.64219 on 104 procs for 226 steps with 288751 atoms

99.9% CPU use with 104 MPI tasks x 1 OpenMP threads

Minimization stats:
  Stopping criterion = energy tolerance
  Energy initial, next-to-last, final = 
     -1152449.36697747  -1152449.36885882  -1152449.36885882
  Force two-norm initial, final = 0.17680026 3.5585159e-05
  Force max component initial, final = 0.081811045 9.4111325e-06
  Final line search alpha, max atom move = 1.0000000 9.4111325e-06
  Iterations, force evaluations = 226 452

MPI task timing breakdown:
Section |  min time  |  avg time  |  max time  |%varavg| %total
---------------------------------------------------------------
Pair    | 0.68126    | 1.9037     | 2.4724     |  37.2 | 72.05
Neigh   | 0          | 0          | 0          |   0.0 |  0.00
Comm    | 0.046576   | 0.43298    | 1.2875     |  54.8 | 16.39
Output  | 0.00032306 | 0.0003291  | 0.00048323 |   0.0 |  0.01
Modify  | 2.8579e-05 | 0.0037335  | 0.0078971  |   2.9 |  0.14
Other   |            | 0.3015     |            |       | 11.41

Nlocal:        2776.45 ave        3951 max           0 min
Histogram: 8 4 4 0 4 12 8 0 30 34
Nghost:        3878.99 ave        5429 max         232 min
Histogram: 8 0 8 0 16 0 8 8 16 40
Neighs:        79213.5 ave      115133 max           0 min
Histogram: 8 4 4 0 10 6 8 8 24 32

Total # of neighbors = 8238205
Ave neighs/atom = 28.530481
Neighbor list builds = 0
Dangerous builds = 0
The dot product: 2.55442509185144e-08
Setting atom values ...
  1 settings made for x
  1 settings made for y
  1 settings made for z
Setting up cg style minimization ...
  Unit style    : metal
  Current step  : 2020
Per MPI rank memory allocation (min/avg/max) = 5.441 | 5.816 | 6.074 Mbytes
Step PotEng KinEng TotEng v_fx v_fy v_fz 
    2020   -1152449.4            0   -1152449.4 0.0056296011  0.022554831  0.023615482 
    2198   -1152449.4            0   -1152449.4 9.9490374e-06 -3.9717603e-06 -4.7148132e-05 
Loop time of 2.0698 on 104 procs for 178 steps with 288751 atoms

99.9% CPU use with 104 MPI tasks x 1 OpenMP threads

Minimization stats:
  Stopping criterion = energy tolerance
  Energy initial, next-to-last, final = 
      -1152449.3517865  -1152449.35391144  -1152449.35391144
  Force two-norm initial, final = 0.1793601 0.00021716704
  Force max component initial, final = 0.086958318 5.0195607e-05
  Final line search alpha, max atom move = 1.0000000 5.0195607e-05
  Iterations, force evaluations = 178 356

MPI task timing breakdown:
Section |  min time  |  avg time  |  max time  |%varavg| %total
---------------------------------------------------------------
Pair    | 0.53625    | 1.4914     | 1.9409     |  33.0 | 72.06
Neigh   | 0          | 0          | 0          |   0.0 |  0.00
Comm    | 0.032454   | 0.33716    | 1.0017     |  48.2 | 16.29
Output  | 0          | 0          | 0          |   0.0 |  0.00
Modify  | 2.1441e-05 | 0.0029401  | 0.0062355  |   2.5 |  0.14
Other   |            | 0.2382     |            |       | 11.51

Nlocal:        2776.45 ave        3951 max           0 min
Histogram: 8 4 4 0 4 12 8 0 30 34
Nghost:        3879.01 ave        5428 max         232 min
Histogram: 8 0 8 0 16 0 8 8 16 40
Neighs:        79213.5 ave      115132 max           0 min
Histogram: 8 4 4 0 10 6 8 8 24 32

Total # of neighbors = 8238204
Ave neighs/atom = 28.530478
Neighbor list builds = 0
Dangerous builds = 0
The dot product: -4.74092305706271e-07
Setting atom values ...
  1 settings made for x
  1 settings made for y
  1 settings made for z
Setting up cg style minimization ...
  Unit style    : metal
  Current step  : 2198
Per MPI rank memory allocation (min/avg/max) = 5.441 | 5.816 | 6.074 Mbytes
Step PotEng KinEng TotEng v_fx v_fy v_fz 
    2198   -1152449.3            0   -1152449.3 0.0073029937  0.037681773  0.031049301 
    2397   -1152449.3            0   -1152449.3 8.4045572e-06 1.2561572e-06 -2.6457892e-05 
Loop time of 2.31667 on 104 procs for 199 steps with 288751 atoms

99.9% CPU use with 104 MPI tasks x 1 OpenMP threads

Minimization stats:
  Stopping criterion = energy tolerance
  Energy initial, next-to-last, final = 
     -1152449.33585036  -1152449.33815042  -1152449.33815042
  Force two-norm initial, final = 0.1828268 0.00013087193
  Force max component initial, final = 0.09353678 3.6372185e-05
  Final line search alpha, max atom move = 1.0000000 3.6372185e-05
  Iterations, force evaluations = 199 398

MPI task timing breakdown:
Section |  min time  |  avg time  |  max time  |%varavg| %total
---------------------------------------------------------------
Pair    | 0.5997     | 1.6739     | 2.1864     |  34.9 | 72.26
Neigh   | 0          | 0          | 0          |   0.0 |  0.00
Comm    | 0.036101   | 0.37934    | 1.1269     |  51.1 | 16.37
Output  | 0          | 0          | 0          |   0.0 |  0.00
Modify  | 2.3465e-05 | 0.0032863  | 0.0069455  |   2.7 |  0.14
Other   |            | 0.2601     |            |       | 11.23

Nlocal:        2776.45 ave        3951 max           0 min
Histogram: 8 4 4 0 4 12 8 0 30 34
Nghost:        3879.11 ave        5427 max         232 min
Histogram: 8 0 8 0 16 0 8 8 16 40
Neighs:        79213.5 ave      115132 max           0 min
Histogram: 8 4 4 0 10 6 8 8 24 32

Total # of neighbors = 8238205
Ave neighs/atom = 28.530481
Neighbor list builds = 0
Dangerous builds = 0
The dot product: -2.19380821871959e-07
Setting atom values ...
  1 settings made for x
  1 settings made for y
  1 settings made for z
Setting up cg style minimization ...
  Unit style    : metal
  Current step  : 2397
Per MPI rank memory allocation (min/avg/max) = 5.441 | 5.816 | 6.074 Mbytes
Step PotEng KinEng TotEng v_fx v_fy v_fz 
    2397   -1152449.3            0   -1152449.3 0.0058267119  0.042150237  0.028520399 
    2604   -1152449.3            0   -1152449.3 -9.472665e-08 2.7411161e-06 3.2609453e-06 
Loop time of 2.40889 on 104 procs for 207 steps with 288751 atoms

99.9% CPU use with 104 MPI tasks x 1 OpenMP threads

Minimization stats:
  Stopping criterion = energy tolerance
  Energy initial, next-to-last, final = 
     -1152449.31901881  -1152449.32120637  -1152449.32120637
  Force two-norm initial, final = 0.18311396 0.00010001013
  Force max component initial, final = 0.099935843 1.7364723e-05
  Final line search alpha, max atom move = 1.0000000 1.7364723e-05
  Iterations, force evaluations = 207 414

MPI task timing breakdown:
Section |  min time  |  avg time  |  max time  |%varavg| %total
---------------------------------------------------------------
Pair    | 0.62434    | 1.7348     | 2.2552     |  35.5 | 72.02
Neigh   | 0          | 0          | 0          |   0.0 |  0.00
Comm    | 0.03856    | 0.39278    | 1.1657     |  52.3 | 16.31
Output  | 0          | 0          | 0          |   0.0 |  0.00
Modify  | 2.4784e-05 | 0.0034152  | 0.0072299  |   2.7 |  0.14
Other   |            | 0.2778     |            |       | 11.53

Nlocal:        2776.45 ave        3953 max           0 min
Histogram: 8 4 4 0 4 12 8 0 30 34
Nghost:        3879.11 ave        5426 max         232 min
Histogram: 8 0 8 0 16 0 8 8 16 40
Neighs:        79213.5 ave      115206 max           0 min
Histogram: 8 4 4 0 10 6 8 8 24 32

Total # of neighbors = 8238204
Ave neighs/atom = 28.530478
Neighbor list builds = 0
Dangerous builds = 0
The dot product: 6.67762588409321e-08
Setting atom values ...
  1 settings made for x
  1 settings made for y
  1 settings made for z
Setting up cg style minimization ...
  Unit style    : metal
  Current step  : 2604
Per MPI rank memory allocation (min/avg/max) = 5.441 | 5.816 | 6.074 Mbytes
Step PotEng KinEng TotEng v_fx v_fy v_fz 
    2604   -1152449.3            0   -1152449.3 0.0038824216  0.039031248  0.021865316 
    2789   -1152449.3            0   -1152449.3 1.7473841e-05 -5.7787364e-07 -4.7743192e-05 
Loop time of 2.17336 on 104 procs for 185 steps with 288751 atoms

99.9% CPU use with 104 MPI tasks x 1 OpenMP threads

Minimization stats:
  Stopping criterion = energy tolerance
  Energy initial, next-to-last, final = 
     -1152449.30088695  -1152449.30294769  -1152449.30294769
  Force two-norm initial, final = 0.18110251 0.00018008418
  Force max component initial, final = 0.10522844 4.7743192e-05
  Final line search alpha, max atom move = 1.0000000 4.7743192e-05
  Iterations, force evaluations = 185 370

MPI task timing breakdown:
Section |  min time  |  avg time  |  max time  |%varavg| %total
---------------------------------------------------------------
Pair    | 0.55549    | 1.559      | 2.0412     |  33.8 | 71.73
Neigh   | 0          | 0          | 0          |   0.0 |  0.00
Comm    | 0.036282   | 0.35614    | 1.054      |  48.9 | 16.39
Output  | 0          | 0          | 0          |   0.0 |  0.00
Modify  | 2.2307e-05 | 0.0030599  | 0.0065008  |   2.6 |  0.14
Other   |            | 0.2552     |            |       | 11.74

Nlocal:        2776.45 ave        3954 max           0 min
Histogram: 8 4 4 0 4 12 8 0 30 34
Nghost:        3879.12 ave        5426 max         232 min
Histogram: 8 0 8 0 16 0 8 8 16 40
Neighs:        79213.5 ave      115241 max           0 min
Histogram: 8 4 4 0 10 6 8 8 24 32

Total # of neighbors = 8238209
Ave neighs/atom = 28.530495
Neighbor list builds = 0
Dangerous builds = 0
The dot product: -3.65481349551757e-07
Setting atom values ...
  1 settings made for x
  1 settings made for y
  1 settings made for z
Setting up cg style minimization ...
  Unit style    : metal
  Current step  : 2789
Per MPI rank memory allocation (min/avg/max) = 5.441 | 5.816 | 6.074 Mbytes
Step PotEng KinEng TotEng v_fx v_fy v_fz 
    2789   -1152449.3            0   -1152449.3 0.0020041951  0.033489675  0.016813294 
    2987   -1152449.3            0   -1152449.3 1.470597e-05 1.2297938e-06 -3.6152404e-05 
Loop time of 2.29726 on 104 procs for 198 steps with 288751 atoms

99.9% CPU use with 104 MPI tasks x 1 OpenMP threads

Minimization stats:
  Stopping criterion = energy tolerance
  Energy initial, next-to-last, final = 
     -1152449.28142243  -1152449.28342255  -1152449.28342255
  Force two-norm initial, final = 0.17884894 0.00012249939
  Force max component initial, final = 0.10946964 3.6152404e-05
  Final line search alpha, max atom move = 1.0000000 3.6152404e-05
  Iterations, force evaluations = 198 396

MPI task timing breakdown:
Section |  min time  |  avg time  |  max time  |%varavg| %total
---------------------------------------------------------------
Pair    | 0.59325    | 1.6582     | 2.1634     |  34.8 | 72.18
Neigh   | 0          | 0          | 0          |   0.0 |  0.00
Comm    | 0.034579   | 0.37374    | 1.1097     |  51.1 | 16.27
Output  | 0          | 0          | 0          |   0.0 |  0.00
Modify  | 2.3896e-05 | 0.0032674  | 0.0069366  |   2.7 |  0.14
Other   |            | 0.262      |            |       | 11.41

Nlocal:        2776.45 ave        3956 max           0 min
Histogram: 8 4 4 0 4 12 8 0 30 34
Nghost:        3879.13 ave        5425 max         232 min
Histogram: 8 0 8 0 16 0 8 8 16 40
Neighs:        79213.6 ave      115307 max           0 min
Histogram: 8 4 4 0 10 6 8 8 24 32

Total # of neighbors = 8238212
Ave neighs/atom = 28.530506
Neighbor list builds = 0
Dangerous builds = 0
The dot product: -2.69650665853732e-07
Setting atom values ...
  1 settings made for x
  1 settings made for y
  1 settings made for z
Setting up cg style minimization ...
  Unit style    : metal
  Current step  : 2987
Per MPI rank memory allocation (min/avg/max) = 5.441 | 5.816 | 6.074 Mbytes
Step PotEng KinEng TotEng v_fx v_fy v_fz 
    2987   -1152449.3            0   -1152449.3 -0.00020336359  0.027825778  0.015074741 
    3000   -1152449.3            0   -1152449.3 -0.00041717189 0.00099032973 0.0014999393 
    3252   -1152449.3            0   -1152449.3 -1.0812186e-08 -1.1762303e-07 -3.6291768e-08 
Loop time of 3.13401 on 104 procs for 265 steps with 288751 atoms

99.9% CPU use with 104 MPI tasks x 1 OpenMP threads

Minimization stats:
  Stopping criterion = energy tolerance
  Energy initial, next-to-last, final = 
     -1152449.26076208  -1152449.26267954  -1152449.26267954
  Force two-norm initial, final = 0.17684194 7.5601567e-06
  Force max component initial, final = 0.11285506 1.5866600e-06
  Final line search alpha, max atom move = 1.0000000 1.5866600e-06
  Iterations, force evaluations = 265 530

MPI task timing breakdown:
Section |  min time  |  avg time  |  max time  |%varavg| %total
---------------------------------------------------------------
Pair    | 0.79691    | 2.2361     | 2.9207     |  40.5 | 71.35
Neigh   | 0          | 0          | 0          |   0.0 |  0.00
Comm    | 0.050473   | 0.51396    | 1.5079     |  58.5 | 16.40
Output  | 0.00015628 | 0.00015822 | 0.00022513 |   0.0 |  0.01
Modify  | 3.1888e-05 | 0.0043761  | 0.0092821  |   3.1 |  0.14
Other   |            | 0.3794     |            |       | 12.10

Nlocal:        2776.45 ave        3956 max           0 min
Histogram: 8 4 4 0 4 12 8 0 30 34
Nghost:        3879.12 ave        5425 max         232 min
Histogram: 8 0 8 0 16 0 8 8 16 40
Neighs:        79213.6 ave      115306 max           0 min
Histogram: 8 4 4 0 10 6 8 8 24 32

Total # of neighbors = 8238217
Ave neighs/atom = 28.530523
Neighbor list builds = 0
Dangerous builds = 0
The dot product: -1.2697543951488e-09
Setting atom values ...
  1 settings made for x
  1 settings made for y
  1 settings made for z
Setting up cg style minimization ...
  Unit style    : metal
  Current step  : 3252
Per MPI rank memory allocation (min/avg/max) = 5.441 | 5.816 | 6.074 Mbytes
Step PotEng KinEng TotEng v_fx v_fy v_fz 
    3252   -1152449.2            0   -1152449.2 -0.0019504437  0.022696855   0.01412471 
    3516   -1152449.2            0   -1152449.2 -3.806124e-07 -1.1142081e-07 7.9346466e-07 
Loop time of 3.06621 on 104 procs for 264 steps with 288751 atoms

99.9% CPU use with 104 MPI tasks x 1 OpenMP threads

Minimization stats:
  Stopping criterion = energy tolerance
  Energy initial, next-to-last, final = 
     -1152449.23885427  -1152449.24073427  -1152449.24073427
  Force two-norm initial, final = 0.17521504 7.5855399e-06
  Force max component initial, final = 0.11585817 1.3429816e-06
  Final line search alpha, max atom move = 1.0000000 1.3429816e-06
  Iterations, force evaluations = 264 528

MPI task timing breakdown:
Section |  min time  |  avg time  |  max time  |%varavg| %total
---------------------------------------------------------------
Pair    | 0.79255    | 2.2135     | 2.8869     |  40.3 | 72.19
Neigh   | 0          | 0          | 0          |   0.0 |  0.00
Comm    | 0.052165   | 0.50102    | 1.4857     |  59.0 | 16.34
Output  | 0          | 0          | 0          |   0.0 |  0.00
Modify  | 3.2744e-05 | 0.0043548  | 0.0092247  |   3.1 |  0.14
Other   |            | 0.3474     |            |       | 11.33

Nlocal:        2776.45 ave        3956 max           0 min
Histogram: 8 4 4 0 4 12 8 0 30 34
Nghost:        3879.12 ave        5425 max         232 min
Histogram: 8 0 8 0 16 0 8 8 16 40
Neighs:        79213.6 ave      115314 max           0 min
Histogram: 8 4 4 0 10 6 8 8 24 32

Total # of neighbors = 8238212
Ave neighs/atom = 28.530506
Neighbor list builds = 0
Dangerous builds = 0
The dot product: 6.29017569116312e-09
Setting atom values ...
  1 settings made for x
  1 settings made for y
  1 settings made for z
Setting up cg style minimization ...
  Unit style    : metal
  Current step  : 3516
Per MPI rank memory allocation (min/avg/max) = 5.441 | 5.816 | 6.074 Mbytes
Step PotEng KinEng TotEng v_fx v_fy v_fz 
    3516   -1152449.2            0   -1152449.2 -0.0040733876   0.01987101  0.015651587 
    3694   -1152449.2            0   -1152449.2 -2.4684908e-05 -9.118606e-07 5.1052989e-05 
Loop time of 2.07802 on 104 procs for 178 steps with 288751 atoms

99.9% CPU use with 104 MPI tasks x 1 OpenMP threads

Minimization stats:
  Stopping criterion = energy tolerance
  Energy initial, next-to-last, final = 
     -1152449.21579412   -1152449.2178143   -1152449.2178143
  Force two-norm initial, final = 0.17423459 0.00021297461
  Force max component initial, final = 0.11863894 5.2068882e-05
  Final line search alpha, max atom move = 1.0000000 5.2068882e-05
  Iterations, force evaluations = 178 356

MPI task timing breakdown:
Section |  min time  |  avg time  |  max time  |%varavg| %total
---------------------------------------------------------------
Pair    | 0.53532    | 1.5013     | 1.9548     |  33.1 | 72.25
Neigh   | 0          | 0          | 0          |   0.0 |  0.00
Comm    | 0.032467   | 0.34171    | 1.0149     |  48.5 | 16.44
Output  | 0          | 0          | 0          |   0.0 |  0.00
Modify  | 2.1371e-05 | 0.0029395  | 0.0063089  |   2.6 |  0.14
Other   |            | 0.2321     |            |       | 11.17

Nlocal:        2776.45 ave        3957 max           0 min
Histogram: 8 4 4 0 4 12 8 2 28 34
Nghost:        3879.12 ave        5425 max         232 min
Histogram: 8 0 8 0 16 0 8 8 16 40
Neighs:        79213.6 ave      115348 max           0 min
Histogram: 8 4 4 0 10 6 8 8 24 32

Total # of neighbors = 8238211
Ave neighs/atom = 28.530502
Neighbor list builds = 0
Dangerous builds = 0
The dot product: 6.02596727519655e-07
Setting atom values ...
  1 settings made for x
  1 settings made for y
  1 settings made for z
Setting up cg style minimization ...
  Unit style    : metal
  Current step  : 3694
Per MPI rank memory allocation (min/avg/max) = 5.441 | 5.816 | 6.074 Mbytes
Step PotEng KinEng TotEng v_fx v_fy v_fz 
    3694   -1152449.2            0   -1152449.2 -0.0085961653  0.021709674  0.023052123 
    3892   -1152449.2            0   -1152449.2 -2.3355501e-06 2.0875693e-06 5.1379699e-06 
Loop time of 2.30248 on 104 procs for 198 steps with 288751 atoms

99.9% CPU use with 104 MPI tasks x 1 OpenMP threads

Minimization stats:
  Stopping criterion = energy tolerance
  Energy initial, next-to-last, final = 
      -1152449.1920582  -1152449.19427786  -1152449.19427786
  Force two-norm initial, final = 0.17437179 0.00010550767
  Force max component initial, final = 0.12118337 2.4713852e-05
  Final line search alpha, max atom move = 1.0000000 2.4713852e-05
  Iterations, force evaluations = 198 396

MPI task timing breakdown:
Section |  min time  |  avg time  |  max time  |%varavg| %total
---------------------------------------------------------------
Pair    | 0.59481    | 1.666      | 2.1676     |  34.9 | 72.36
Neigh   | 0          | 0          | 0          |   0.0 |  0.00
Comm    | 0.037815   | 0.37681    | 1.1236     |  51.5 | 16.37
Output  | 0          | 0          | 0          |   0.0 |  0.00
Modify  | 2.3632e-05 | 0.0032611  | 0.0069238  |   2.7 |  0.14
Other   |            | 0.2564     |            |       | 11.13

Nlocal:        2776.45 ave        3957 max           0 min
Histogram: 8 4 4 0 4 12 8 2 28 34
Nghost:        3879.07 ave        5425 max         232 min
Histogram: 8 0 8 0 16 0 8 8 16 40
Neighs:        79213.6 ave      115343 max           0 min
Histogram: 8 4 4 0 10 6 8 8 24 32

Total # of neighbors = 8238212
Ave neighs/atom = 28.530506
Neighbor list builds = 0
Dangerous builds = 0
The dot product: 9.59377253630221e-08
Setting atom values ...
  1 settings made for x
  1 settings made for y
  1 settings made for z
Setting up cg style minimization ...
  Unit style    : metal
  Current step  : 3892
Per MPI rank memory allocation (min/avg/max) = 5.441 | 5.816 | 6.074 Mbytes
Step PotEng KinEng TotEng v_fx v_fy v_fz 
    3892   -1152449.2            0   -1152449.2 -0.013455208  0.024946063  0.029717516 
    4000   -1152449.2            0   -1152449.2 -0.00010732919 -5.0947152e-06 0.00018983289 
    4060   -1152449.2            0   -1152449.2 -4.7722689e-06 -2.7388719e-06 7.8594432e-06 
Loop time of 1.95333 on 104 procs for 168 steps with 288751 atoms

99.9% CPU use with 104 MPI tasks x 1 OpenMP threads

Minimization stats:
  Stopping criterion = energy tolerance
  Energy initial, next-to-last, final = 
     -1152449.16788046  -1152449.17006581  -1152449.17006581
  Force two-norm initial, final = 0.17518786 0.00021344557
  Force max component initial, final = 0.12390724 1.9225987e-05
  Final line search alpha, max atom move = 1.0000000 1.9225987e-05
  Iterations, force evaluations = 168 336

MPI task timing breakdown:
Section |  min time  |  avg time  |  max time  |%varavg| %total
---------------------------------------------------------------
Pair    | 0.50733    | 1.4117     | 1.8423     |  32.0 | 72.27
Neigh   | 0          | 0          | 0          |   0.0 |  0.00
Comm    | 0.029993   | 0.31829    | 0.94141    |  47.0 | 16.29
Output  | 0.00020896 | 0.00021193 | 0.00033466 |   0.0 |  0.01
Modify  | 2.0368e-05 | 0.0027731  | 0.0058768  |   2.5 |  0.14
Other   |            | 0.2204     |            |       | 11.28

Nlocal:        2776.45 ave        3957 max           0 min
Histogram: 8 4 4 0 4 12 8 2 28 34
Nghost:        3879.04 ave        5425 max         232 min
Histogram: 8 0 8 0 16 0 8 8 16 40
Neighs:        79213.6 ave      115343 max           0 min
Histogram: 8 4 4 0 10 6 8 8 24 32

Total # of neighbors = 8238215
Ave neighs/atom = 28.530516
Neighbor list builds = 0
Dangerous builds = 0
The dot product: 1.05435557523551e-07
Setting atom values ...
  1 settings made for x
  1 settings made for y
  1 settings made for z
Setting up cg style minimization ...
  Unit style    : metal
  Current step  : 4060
Per MPI rank memory allocation (min/avg/max) = 5.441 | 5.816 | 6.074 Mbytes
Step PotEng KinEng TotEng v_fx v_fy v_fz 
    4060   -1152449.1            0   -1152449.1 -0.014490228  0.023772631  0.028141181 
    4240   -1152449.1            0   -1152449.1 -2.4701815e-06 -4.9624227e-06 3.1769552e-06 
Loop time of 2.10066 on 104 procs for 180 steps with 288751 atoms

99.9% CPU use with 104 MPI tasks x 1 OpenMP threads

Minimization stats:
  Stopping criterion = energy tolerance
  Energy initial, next-to-last, final = 
     -1152449.14281307  -1152449.14486992  -1152449.14486992
  Force two-norm initial, final = 0.17467236 0.00016498885
  Force max component initial, final = 0.12693942 3.4457805e-05
  Final line search alpha, max atom move = 1.0000000 3.4457805e-05
  Iterations, force evaluations = 180 360

MPI task timing breakdown:
Section |  min time  |  avg time  |  max time  |%varavg| %total
---------------------------------------------------------------
Pair    | 0.54203    | 1.5084     | 1.9664     |  33.1 | 71.81
Neigh   | 0          | 0          | 0          |   0.0 |  0.00
Comm    | 0.04202    | 0.34232    | 1.018      |  48.6 | 16.30
Output  | 0          | 0          | 0          |   0.0 |  0.00
Modify  | 2.1577e-05 | 0.00297    | 0.006316   |   2.6 |  0.14
Other   |            | 0.2469     |            |       | 11.76

Nlocal:        2776.45 ave        3958 max           0 min
Histogram: 8 4 4 0 4 12 8 2 28 34
Nghost:        3879.01 ave        5424 max         232 min
Histogram: 8 0 8 0 16 0 8 8 16 40
Neighs:        79213.6 ave      115375 max           0 min
Histogram: 8 4 4 0 10 6 8 8 24 32

Total # of neighbors = 8238215
Ave neighs/atom = 28.530516
Neighbor list builds = 0
Dangerous builds = 0
The dot product: 1.62220727253506e-08
Setting atom values ...
  1 settings made for x
  1 settings made for y
  1 settings made for z
Setting up cg style minimization ...
  Unit style    : metal
  Current step  : 4240
Per MPI rank memory allocation (min/avg/max) = 5.441 | 5.816 | 6.074 Mbytes
Step PotEng KinEng TotEng v_fx v_fy v_fz 
    4240   -1152449.1            0   -1152449.1 -0.013528475  0.020293112  0.023731527 
    4435   -1152449.1            0   -1152449.1 -1.1993959e-06 -3.1403298e-06 1.4059945e-06 
Loop time of 2.28696 on 104 procs for 195 steps with 288751 atoms

99.9% CPU use with 104 MPI tasks x 1 OpenMP threads

Minimization stats:
  Stopping criterion = energy tolerance
  Energy initial, next-to-last, final = 
     -1152449.11663162  -1152449.11849805  -1152449.11849805
  Force two-norm initial, final = 0.17381534 0.00010536263
  Force max component initial, final = 0.1298933 2.2094281e-05
  Final line search alpha, max atom move = 1.0000000 2.2094281e-05
  Iterations, force evaluations = 195 390

MPI task timing breakdown:
Section |  min time  |  avg time  |  max time  |%varavg| %total
---------------------------------------------------------------
Pair    | 0.59064    | 1.6434     | 2.1461     |  34.5 | 71.86
Neigh   | 0          | 0          | 0          |   0.0 |  0.00
Comm    | 0.036622   | 0.3733     | 1.1038     |  50.6 | 16.32
Output  | 0          | 0          | 0          |   0.0 |  0.00
Modify  | 2.3486e-05 | 0.0032257  | 0.0068197  |   2.7 |  0.14
Other   |            | 0.267      |            |       | 11.68

Nlocal:        2776.45 ave        3958 max           0 min
Histogram: 8 4 4 0 4 12 8 2 28 34
Nghost:        3879.01 ave        5424 max         232 min
Histogram: 8 0 8 0 16 0 8 8 16 40
Neighs:        79213.6 ave      115374 max           0 min
Histogram: 8 4 4 0 10 6 8 8 24 32

Total # of neighbors = 8238213
Ave neighs/atom = 28.530509
Neighbor list builds = 0
Dangerous builds = 0
The dot product: 2.58220908897523e-09
Setting atom values ...
  1 settings made for x
  1 settings made for y
  1 settings made for z
Setting up cg style minimization ...
  Unit style    : metal
  Current step  : 4435
Per MPI rank memory allocation (min/avg/max) = 5.441 | 5.816 | 6.074 Mbytes
Step PotEng KinEng TotEng v_fx v_fy v_fz 
    4435   -1152449.1            0   -1152449.1  -0.01093754  0.015845842  0.017818466 
    4695   -1152449.1            0   -1152449.1 8.0417404e-07 2.102253e-07 -1.1527654e-06 
Loop time of 3.04938 on 104 procs for 260 steps with 288751 atoms

99.9% CPU use with 104 MPI tasks x 1 OpenMP threads

Minimization stats:
  Stopping criterion = energy tolerance
  Energy initial, next-to-last, final = 
     -1152449.08910954  -1152449.09084475  -1152449.09084475
  Force two-norm initial, final = 0.17326674 6.0175285e-06
  Force max component initial, final = 0.13278972 1.1527654e-06
  Final line search alpha, max atom move = 1.0000000 1.1527654e-06
  Iterations, force evaluations = 260 520

MPI task timing breakdown:
Section |  min time  |  avg time  |  max time  |%varavg| %total
---------------------------------------------------------------
Pair    | 0.78025    | 2.1825     | 2.8585     |  40.1 | 71.57
Neigh   | 0          | 0          | 0          |   0.0 |  0.00
Comm    | 0.046872   | 0.4969     | 1.4623     |  58.0 | 16.30
Output  | 0          | 0          | 0          |   0.0 |  0.00
Modify  | 3.1024e-05 | 0.0042882  | 0.0090988  |   3.1 |  0.14
Other   |            | 0.3657     |            |       | 11.99

Nlocal:        2776.45 ave        3959 max           0 min
Histogram: 8 4 4 0 4 12 8 2 28 34
Nghost:        3878.96 ave        5424 max         232 min
Histogram: 8 0 8 0 16 0 8 8 16 40
Neighs:        79213.6 ave      115407 max           0 min
Histogram: 8 4 4 0 10 6 8 8 24 32

Total # of neighbors = 8238213
Ave neighs/atom = 28.530509
Neighbor list builds = 0
Dangerous builds = 0
The dot product: -1.20886523025964e-08
Setting atom values ...
  1 settings made for x
  1 settings made for y
  1 settings made for z
Setting up cg style minimization ...
  Unit style    : metal
  Current step  : 4695
Per MPI rank memory allocation (min/avg/max) = 5.441 | 5.816 | 6.074 Mbytes
Step PotEng KinEng TotEng v_fx v_fy v_fz 
    4695   -1152449.1            0   -1152449.1 -0.0080970914  0.011358574  0.012464484 
    4858   -1152449.1            0   -1152449.1 -2.2667288e-05 -7.2409608e-06 3.1130995e-05 
Loop time of 1.92639 on 104 procs for 163 steps with 288751 atoms

99.9% CPU use with 104 MPI tasks x 1 OpenMP threads

Minimization stats:
  Stopping criterion = energy tolerance
  Energy initial, next-to-last, final = 
     -1152449.06024543  -1152449.06190364  -1152449.06190364
  Force two-norm initial, final = 0.17332446 0.00022995933
  Force max component initial, final = 0.13548072 3.8120494e-05
  Final line search alpha, max atom move = 1.0000000 3.8120494e-05
  Iterations, force evaluations = 163 326

MPI task timing breakdown:
Section |  min time  |  avg time  |  max time  |%varavg| %total
---------------------------------------------------------------
Pair    | 0.49888    | 1.3817     | 1.8086     |  31.6 | 71.73
Neigh   | 0          | 0          | 0          |   0.0 |  0.00
Comm    | 0.040048   | 0.31689    | 0.93535    |  46.0 | 16.45
Output  | 0          | 0          | 0          |   0.0 |  0.00
Modify  | 2.0025e-05 | 0.0026983  | 0.0057279  |   2.4 |  0.14
Other   |            | 0.2251     |            |       | 11.68

Nlocal:        2776.45 ave        3960 max           0 min
Histogram: 8 4 4 0 4 12 8 2 28 34
Nghost:        3879.00 ave        5425 max         232 min
Histogram: 8 0 8 0 16 0 8 8 16 40
Neighs:        79213.6 ave      115423 max           0 min
Histogram: 8 4 4 0 10 6 8 8 24 32

Total # of neighbors = 8238214
Ave neighs/atom = 28.530512
Neighbor list builds = 0
Dangerous builds = 0
The dot product: 2.7685922036942e-07
Setting atom values ...
  1 settings made for x
  1 settings made for y
  1 settings made for z
Setting up cg style minimization ...
  Unit style    : metal
  Current step  : 4858
Per MPI rank memory allocation (min/avg/max) = 5.441 | 5.816 | 6.074 Mbytes
Step PotEng KinEng TotEng v_fx v_fy v_fz 
    4858     -1152449            0     -1152449 -0.0055290767  0.007474532 0.0081468169 
    5000     -1152449            0     -1152449  4.04254e-05 1.0102523e-05 -5.4077451e-05 
    5038     -1152449            0     -1152449 1.4066075e-05 5.5842798e-06 -1.8640982e-05 
Loop time of 2.08794 on 104 procs for 180 steps with 288751 atoms

99.9% CPU use with 104 MPI tasks x 1 OpenMP threads

Minimization stats:
  Stopping criterion = energy tolerance
  Energy initial, next-to-last, final = 
     -1152449.03009011  -1152449.03173105  -1152449.03173105
  Force two-norm initial, final = 0.17384356 0.00016064184
  Force max component initial, final = 0.13787741 3.6312470e-05
  Final line search alpha, max atom move = 1.0000000 3.6312470e-05
  Iterations, force evaluations = 180 360

MPI task timing breakdown:
Section |  min time  |  avg time  |  max time  |%varavg| %total
---------------------------------------------------------------
Pair    | 0.54183    | 1.5067     | 1.9695     |  33.2 | 72.16
Neigh   | 0          | 0          | 0          |   0.0 |  0.00
Comm    | 0.032409   | 0.34115    | 1.0173     |  48.6 | 16.34
Output  | 0.00014866 | 0.00015921 | 0.00029288 |   0.0 |  0.01
Modify  | 2.1672e-05 | 0.0029731  | 0.0063038  |   2.6 |  0.14
Other   |            | 0.2369     |            |       | 11.35

Nlocal:        2776.45 ave        3961 max           0 min
Histogram: 8 4 4 0 6 10 8 2 28 34
Nghost:        3878.94 ave        5425 max         232 min
Histogram: 8 0 8 0 16 0 8 8 16 40
Neighs:        79213.6 ave      115466 max           0 min
Histogram: 8 4 4 0 10 6 8 8 24 32

Total # of neighbors = 8238218
Ave neighs/atom = 28.530526
Neighbor list builds = 0
Dangerous builds = 0
The dot product: -1.48342809168748e-07
Setting atom values ...
  1 settings made for x
  1 settings made for y
  1 settings made for z
Setting up cg style minimization ...
  Unit style    : metal
  Current step  : 5038
Per MPI rank memory allocation (min/avg/max) = 5.441 | 5.816 | 6.074 Mbytes
Step PotEng KinEng TotEng v_fx v_fy v_fz 
    5038     -1152449            0     -1152449 -0.0036264061 0.0045706714 0.0051478759 
    5272     -1152449            0     -1152449 5.7405631e-06 1.0561997e-06 -7.5076746e-06 
Loop time of 2.72921 on 104 procs for 234 steps with 288751 atoms

99.9% CPU use with 104 MPI tasks x 1 OpenMP threads

Minimization stats:
  Stopping criterion = energy tolerance
  Energy initial, next-to-last, final = 
      -1152448.9987926  -1152449.00044155  -1152449.00044155
  Force two-norm initial, final = 0.17462292 2.8138637e-05
  Force max component initial, final = 0.1400601 7.5076746e-06
  Final line search alpha, max atom move = 1.0000000 7.5076746e-06
  Iterations, force evaluations = 234 468

MPI task timing breakdown:
Section |  min time  |  avg time  |  max time  |%varavg| %total
---------------------------------------------------------------
Pair    | 0.70343    | 1.9693     | 2.5776     |  37.9 | 72.16
Neigh   | 0          | 0          | 0          |   0.0 |  0.00
Comm    | 0.042775   | 0.44979    | 1.3305     |  55.4 | 16.48
Output  | 0          | 0          | 0          |   0.0 |  0.00
Modify  | 2.7516e-05 | 0.0038606  | 0.0082167  |   2.9 |  0.14
Other   |            | 0.3063     |            |       | 11.22

Nlocal:        2776.45 ave        3961 max           0 min
Histogram: 8 4 4 0 6 10 8 2 28 34
Nghost:        3878.90 ave        5425 max         232 min
Histogram: 8 0 8 0 16 0 8 8 16 40
Neighs:        79213.6 ave      115465 max           0 min
Histogram: 8 4 4 0 10 6 8 8 24 32

Total # of neighbors = 8238216
Ave neighs/atom = 28.530519
Neighbor list builds = 0
Dangerous builds = 0
The dot product: -5.61455250199477e-08
Setting atom values ...
  1 settings made for x
  1 settings made for y
  1 settings made for z
Setting up cg style minimization ...
  Unit style    : metal
  Current step  : 5272
Per MPI rank memory allocation (min/avg/max) = 5.441 | 5.816 | 6.074 Mbytes
Step PotEng KinEng TotEng v_fx v_fy v_fz 
    5272     -1152449            0     -1152449 -0.0018785698 0.0025534419 0.0026119135 
    5534     -1152449            0     -1152449 7.0731825e-07 1.7186759e-07 -9.0092779e-07 
Loop time of 3.06407 on 104 procs for 262 steps with 288751 atoms

99.9% CPU use with 104 MPI tasks x 1 OpenMP threads

Minimization stats:
  Stopping criterion = energy tolerance
  Energy initial, next-to-last, final = 
     -1152448.96643509  -1152448.96809388  -1152448.96809388
  Force two-norm initial, final = 0.1754698 8.2291622e-06
  Force max component initial, final = 0.14195846 1.4580224e-06
  Final line search alpha, max atom move = 1.0000000 1.4580224e-06
  Iterations, force evaluations = 262 524

MPI task timing breakdown:
Section |  min time  |  avg time  |  max time  |%varavg| %total
---------------------------------------------------------------
Pair    | 0.78641    | 2.2028     | 2.8749     |  40.2 | 71.89
Neigh   | 0          | 0          | 0          |   0.0 |  0.00
Comm    | 0.049468   | 0.50008    | 1.4825     |  58.8 | 16.32
Output  | 0          | 0          | 0          |   0.0 |  0.00
Modify  | 3.1322e-05 | 0.0043132  | 0.0091523  |   3.1 |  0.14
Other   |            | 0.3569     |            |       | 11.65

Nlocal:        2776.45 ave        3961 max           0 min
Histogram: 8 4 4 0 6 10 8 2 28 34
Nghost:        3878.89 ave        5425 max         232 min
Histogram: 8 0 8 0 16 0 8 8 16 40
Neighs:        79213.6 ave      115466 max           0 min
Histogram: 8 4 4 0 10 6 8 8 24 32

Total # of neighbors = 8238218
Ave neighs/atom = 28.530526
Neighbor list builds = 0
Dangerous builds = 0
The dot product: -6.2684387948335e-09
Setting atom values ...
  1 settings made for x
  1 settings made for y
  1 settings made for z
Setting up cg style minimization ...
  Unit style    : metal
  Current step  : 5534
Per MPI rank memory allocation (min/avg/max) = 5.441 | 5.816 | 6.074 Mbytes
Step PotEng KinEng TotEng v_fx v_fy v_fz 
    5534   -1152448.9            0   -1152448.9 -0.00035375836 0.0013308929 0.00054078883 
    5739   -1152448.9            0   -1152448.9 -2.025915e-06 -1.8388842e-06 2.4340043e-06 
Loop time of 2.39899 on 104 procs for 205 steps with 288751 atoms

99.9% CPU use with 104 MPI tasks x 1 OpenMP threads

Minimization stats:
  Stopping criterion = energy tolerance
  Energy initial, next-to-last, final = 
      -1152448.9331136  -1152448.93482869  -1152448.93482869
  Force two-norm initial, final = 0.17631579 8.9517926e-05
  Force max component initial, final = 0.143652 7.9413209e-06
  Final line search alpha, max atom move = 1.0000000 7.9413209e-06
  Iterations, force evaluations = 205 410

MPI task timing breakdown:
Section |  min time  |  avg time  |  max time  |%varavg| %total
---------------------------------------------------------------
Pair    | 0.62286    | 1.7287     | 2.251      |  35.4 | 72.06
Neigh   | 0          | 0          | 0          |   0.0 |  0.00
Comm    | 0.040129   | 0.39198    | 1.1721     |  51.9 | 16.34
Output  | 0          | 0          | 0          |   0.0 |  0.00
Modify  | 2.5525e-05 | 0.0033893  | 0.0071579  |   2.7 |  0.14
Other   |            | 0.2749     |            |       | 11.46

Nlocal:        2776.45 ave        3961 max           0 min
Histogram: 8 4 4 0 6 10 8 2 28 34
Nghost:        3878.87 ave        5425 max         232 min
Histogram: 8 0 8 0 16 0 8 8 16 40
Neighs:        79213.6 ave      115465 max           0 min
Histogram: 8 4 4 0 10 6 8 8 24 32

Total # of neighbors = 8238215
Ave neighs/atom = 28.530516
Neighbor list builds = 0
Dangerous builds = 0
The dot product: 1.60687665799006e-08
Setting atom values ...
  1 settings made for x
  1 settings made for y
  1 settings made for z
Setting up cg style minimization ...
  Unit style    : metal
  Current step  : 5739
Per MPI rank memory allocation (min/avg/max) = 5.441 | 5.816 | 6.074 Mbytes
Step PotEng KinEng TotEng v_fx v_fy v_fz 
    5739   -1152448.9            0   -1152448.9 0.0010422346 0.00066939304 -0.0012482467 
    5926   -1152448.9            0   -1152448.9 -1.6074099e-05 -1.5493629e-06 1.9852573e-05 
Loop time of 2.16999 on 104 procs for 187 steps with 288751 atoms

99.9% CPU use with 104 MPI tasks x 1 OpenMP threads

Minimization stats:
  Stopping criterion = energy tolerance
  Energy initial, next-to-last, final = 
     -1152448.89897704  -1152448.90061476  -1152448.90061476
  Force two-norm initial, final = 0.17703542 0.00014056351
  Force max component initial, final = 0.14506911 2.4264689e-05
  Final line search alpha, max atom move = 1.0000000 2.4264689e-05
  Iterations, force evaluations = 187 374

MPI task timing breakdown:
Section |  min time  |  avg time  |  max time  |%varavg| %total
---------------------------------------------------------------
Pair    | 0.56105    | 1.5686     | 2.0442     |  33.9 | 72.29
Neigh   | 0          | 0          | 0          |   0.0 |  0.00
Comm    | 0.034825   | 0.35395    | 1.0548     |  50.0 | 16.31
Output  | 0          | 0          | 0          |   0.0 |  0.00
Modify  | 2.252e-05  | 0.0030832  | 0.0065613  |   2.6 |  0.14
Other   |            | 0.2443     |            |       | 11.26

Nlocal:        2776.45 ave        3960 max           0 min
Histogram: 8 4 4 0 4 12 8 2 28 34
Nghost:        3878.85 ave        5425 max         232 min
Histogram: 8 0 8 0 16 0 8 8 16 40
Neighs:        79213.6 ave      115436 max           0 min
Histogram: 8 4 4 0 10 6 8 8 24 32

Total # of neighbors = 8238214
Ave neighs/atom = 28.530512
Neighbor list builds = 0
Dangerous builds = 0
The dot product: 1.11609239564384e-07
Setting atom values ...
  1 settings made for x
  1 settings made for y
  1 settings made for z
Setting up cg style minimization ...
  Unit style    : metal
  Current step  : 5926
Per MPI rank memory allocation (min/avg/max) = 5.441 | 5.816 | 6.074 Mbytes
Step PotEng KinEng TotEng v_fx v_fy v_fz 
    5926   -1152448.9            0   -1152448.9 0.0035061809 0.0002809586 -0.0042696903 
    6000   -1152448.9            0   -1152448.9 -0.00011617085 -2.2502846e-05 0.0001405726 
    6095   -1152448.9            0   -1152448.9 -1.4633824e-05 -2.3727409e-06 1.7739025e-05 
Loop time of 1.97089 on 104 procs for 169 steps with 288751 atoms

99.9% CPU use with 104 MPI tasks x 1 OpenMP threads

Minimization stats:
  Stopping criterion = energy tolerance
  Energy initial, next-to-last, final = 
     -1152448.86373684  -1152448.86534669  -1152448.86534669
  Force two-norm initial, final = 0.17827365 0.00022530215
  Force max component initial, final = 0.14676591 2.0695288e-05
  Final line search alpha, max atom move = 1.0000000 2.0695288e-05
  Iterations, force evaluations = 169 338

MPI task timing breakdown:
Section |  min time  |  avg time  |  max time  |%varavg| %total
---------------------------------------------------------------
Pair    | 0.50848    | 1.4214     | 1.8575     |  32.2 | 72.12
Neigh   | 0          | 0          | 0          |   0.0 |  0.00
Comm    | 0.030715   | 0.32107    | 0.95256    |  47.2 | 16.29
Output  | 0.00023821 | 0.00024179 | 0.00035937 |   0.0 |  0.01
Modify  | 2.0243e-05 | 0.0027908  | 0.0059185  |   2.5 |  0.14
Other   |            | 0.2254     |            |       | 11.44

Nlocal:        2776.45 ave        3960 max           0 min
Histogram: 8 4 4 0 4 12 8 2 28 34
Nghost:        3878.84 ave        5425 max         232 min
Histogram: 8 0 8 0 16 0 8 8 16 40
Neighs:        79213.6 ave      115436 max           0 min
Histogram: 8 4 4 0 10 6 8 8 24 32

Total # of neighbors = 8238214
Ave neighs/atom = 28.530512
Neighbor list builds = 0
Dangerous builds = 0
The dot product: 8.1703521232585e-08
Setting atom values ...
  1 settings made for x
  1 settings made for y
  1 settings made for z
Setting up cg style minimization ...
  Unit style    : metal
  Current step  : 6095
Per MPI rank memory allocation (min/avg/max) = 5.441 | 5.816 | 6.074 Mbytes
Step PotEng KinEng TotEng v_fx v_fy v_fz 
    6095   -1152448.8            0   -1152448.8  0.006057262 0.00021959336 -0.0073082171 
    6284   -1152448.8            0   -1152448.8 1.6017564e-05 1.5768939e-06 -1.925787e-05 
Loop time of 2.2252 on 104 procs for 189 steps with 288751 atoms

99.9% CPU use with 104 MPI tasks x 1 OpenMP threads

Minimization stats:
  Stopping criterion = energy tolerance
  Energy initial, next-to-last, final = 
     -1152448.82742374  -1152448.82913664  -1152448.82913664
  Force two-norm initial, final = 0.17956712 0.00021216577
  Force max component initial, final = 0.14836243 1.9257870e-05
  Final line search alpha, max atom move = 1.0000000 1.9257870e-05
  Iterations, force evaluations = 189 378

MPI task timing breakdown:
Section |  min time  |  avg time  |  max time  |%varavg| %total
---------------------------------------------------------------
Pair    | 0.56761    | 1.5857     | 2.0698     |  34.0 | 71.26
Neigh   | 0          | 0          | 0          |   0.0 |  0.00
Comm    | 0.03594    | 0.36164    | 1.0674     |  49.6 | 16.25
Output  | 0          | 0          | 0          |   0.0 |  0.00
Modify  | 2.344e-05  | 0.0031194  | 0.0066091  |   2.6 |  0.14
Other   |            | 0.2747     |            |       | 12.35

Nlocal:        2776.45 ave        3960 max           0 min
Histogram: 8 4 4 0 4 12 8 2 28 34
Nghost:        3878.82 ave        5425 max         232 min
Histogram: 8 0 8 0 16 0 8 8 16 40
Neighs:        79213.6 ave      115437 max           0 min
Histogram: 8 4 4 0 10 6 8 8 24 32

Total # of neighbors = 8238216
Ave neighs/atom = 28.530519
Neighbor list builds = 0
Dangerous builds = 0
The dot product: -8.15637155334181e-08
Setting atom values ...
  1 settings made for x
  1 settings made for y
  1 settings made for z
Setting up cg style minimization ...
  Unit style    : metal
  Current step  : 6284
Per MPI rank memory allocation (min/avg/max) = 5.441 | 5.816 | 6.074 Mbytes
Step PotEng KinEng TotEng v_fx v_fy v_fz 
    6284   -1152448.8            0   -1152448.8 0.0078244126 0.00047634328 -0.0093296634 
    6471   -1152448.8            0   -1152448.8 2.1985051e-05 4.3983537e-06 -2.6005245e-05 
Loop time of 2.21024 on 104 procs for 187 steps with 288751 atoms

99.9% CPU use with 104 MPI tasks x 1 OpenMP threads

Minimization stats:
  Stopping criterion = energy tolerance
  Energy initial, next-to-last, final = 
     -1152448.79039748  -1152448.79202148  -1152448.79202148
  Force two-norm initial, final = 0.18015354 0.00015132574
  Force max component initial, final = 0.14942181 3.2942121e-05
  Final line search alpha, max atom move = 1.0000000 3.2942121e-05
  Iterations, force evaluations = 187 374

MPI task timing breakdown:
Section |  min time  |  avg time  |  max time  |%varavg| %total
---------------------------------------------------------------
Pair    | 0.56267    | 1.5787     | 2.0723     |  34.0 | 71.43
Neigh   | 0          | 0          | 0          |   0.0 |  0.00
Comm    | 0.037174   | 0.36176    | 1.0648     |  49.4 | 16.37
Output  | 0          | 0          | 0          |   0.0 |  0.00
Modify  | 2.2533e-05 | 0.0030982  | 0.0065703  |   2.6 |  0.14
Other   |            | 0.2667     |            |       | 12.07

Nlocal:        2776.45 ave        3960 max           0 min
Histogram: 8 4 4 0 4 12 8 2 28 34
Nghost:        3878.81 ave        5425 max         232 min
Histogram: 8 0 8 0 16 0 8 8 16 40
Neighs:        79213.6 ave      115437 max           0 min
Histogram: 8 4 4 0 10 6 8 8 24 32

Total # of neighbors = 8238213
Ave neighs/atom = 28.530509
Neighbor list builds = 0
Dangerous builds = 0
The dot product: -7.76403089898673e-08
Setting atom values ...
  1 settings made for x
  1 settings made for y
  1 settings made for z
Setting up cg style minimization ...
  Unit style    : metal
  Current step  : 6471
Per MPI rank memory allocation (min/avg/max) = 5.441 | 5.816 | 6.074 Mbytes
Step PotEng KinEng TotEng v_fx v_fy v_fz 
    6471   -1152448.8            0   -1152448.8  0.010851707 0.0010329953 -0.012824063 
    6653   -1152448.8            0   -1152448.8 1.0026426e-05 1.8756719e-06 -1.1785024e-05 
Loop time of 2.11223 on 104 procs for 182 steps with 288751 atoms

99.9% CPU use with 104 MPI tasks x 1 OpenMP threads

Minimization stats:
  Stopping criterion = energy tolerance
  Energy initial, next-to-last, final = 
     -1152448.75226545   -1152448.7538946   -1152448.7538946
  Force two-norm initial, final = 0.18120573 0.00016750391
  Force max component initial, final = 0.15081119 1.1785024e-05
  Final line search alpha, max atom move = 1.0000000 1.1785024e-05
  Iterations, force evaluations = 182 364

MPI task timing breakdown:
Section |  min time  |  avg time  |  max time  |%varavg| %total
---------------------------------------------------------------
Pair    | 0.54455    | 1.5233     | 1.9927     |  33.4 | 72.12
Neigh   | 0          | 0          | 0          |   0.0 |  0.00
Comm    | 0.03123    | 0.34522    | 1.0223     |  48.8 | 16.34
Output  | 0          | 0          | 0          |   0.0 |  0.00
Modify  | 2.1703e-05 | 0.0030093  | 0.0063649  |   2.6 |  0.14
Other   |            | 0.2407     |            |       | 11.40

Nlocal:        2776.45 ave        3960 max           0 min
Histogram: 8 4 4 0 4 12 8 2 28 34
Nghost:        3878.79 ave        5425 max         232 min
Histogram: 8 0 8 0 16 0 8 8 16 40
Neighs:        79213.6 ave      115436 max           0 min
Histogram: 8 4 4 0 10 6 8 8 24 32

Total # of neighbors = 8238212
Ave neighs/atom = 28.530506
Neighbor list builds = 0
Dangerous builds = 0
The dot product: -2.11559769362521e-08
Setting atom values ...
  1 settings made for x
  1 settings made for y
  1 settings made for z
Setting up cg style minimization ...
  Unit style    : metal
  Current step  : 6653
Per MPI rank memory allocation (min/avg/max) = 5.441 | 5.816 | 6.074 Mbytes
Step PotEng KinEng TotEng v_fx v_fy v_fz 
    6653   -1152448.7            0   -1152448.7  0.013646721  0.001886896 -0.016021123 
    6816   -1152448.7            0   -1152448.7 1.6710789e-05 2.3516944e-06 -1.9615417e-05 
Loop time of 1.91491 on 104 procs for 163 steps with 288751 atoms

99.9% CPU use with 104 MPI tasks x 1 OpenMP threads

Minimization stats:
  Stopping criterion = energy tolerance
  Energy initial, next-to-last, final = 
       -1152448.713201  -1152448.71499063  -1152448.71499063
  Force two-norm initial, final = 0.18169484 0.0001347933
  Force max component initial, final = 0.15189021 1.9615417e-05
  Final line search alpha, max atom move = 1.0000000 1.9615417e-05
  Iterations, force evaluations = 163 326

MPI task timing breakdown:
Section |  min time  |  avg time  |  max time  |%varavg| %total
---------------------------------------------------------------
Pair    | 0.4892     | 1.3751     | 1.801      |  31.7 | 71.81
Neigh   | 0          | 0          | 0          |   0.0 |  0.00
Comm    | 0.032481   | 0.31347    | 0.92795    |  46.4 | 16.37
Output  | 0          | 0          | 0          |   0.0 |  0.00
Modify  | 1.9052e-05 | 0.0026937  | 0.0057129  |   2.4 |  0.14
Other   |            | 0.2236     |            |       | 11.68

Nlocal:        2776.45 ave        3959 max           0 min
Histogram: 8 4 4 0 4 12 8 2 28 34
Nghost:        3878.80 ave        5425 max         232 min
Histogram: 8 0 8 0 16 0 8 8 16 40
Neighs:        79213.6 ave      115414 max           0 min
Histogram: 8 4 4 0 10 6 8 8 24 32

Total # of neighbors = 8238212
Ave neighs/atom = 28.530506
Neighbor list builds = 0
Dangerous builds = 0
The dot product: -2.30044802172019e-08
Setting atom values ...
  1 settings made for x
  1 settings made for y
  1 settings made for z
Setting up cg style minimization ...
  Unit style    : metal
  Current step  : 6816
Per MPI rank memory allocation (min/avg/max) = 5.441 | 5.816 | 6.074 Mbytes
Step PotEng KinEng TotEng v_fx v_fy v_fz 
    6816   -1152448.7            0   -1152448.7  0.015598122 0.0025551832 -0.018235625 
    6963   -1152448.7            0   -1152448.7 -3.3433482e-05 -7.5329762e-06 3.8938519e-05 
Loop time of 1.70787 on 104 procs for 147 steps with 288751 atoms

99.9% CPU use with 104 MPI tasks x 1 OpenMP threads

Minimization stats:
  Stopping criterion = energy tolerance
  Energy initial, next-to-last, final = 
     -1152448.67382613  -1152448.67557034  -1152448.67557034
  Force two-norm initial, final = 0.18059767 0.00018948994
  Force max component initial, final = 0.1519198 4.7553685e-05
  Final line search alpha, max atom move = 1.0000000 4.7553685e-05
  Iterations, force evaluations = 147 294

MPI task timing breakdown:
Section |  min time  |  avg time  |  max time  |%varavg| %total
---------------------------------------------------------------
Pair    | 0.44191    | 1.2335     | 1.6091     |  30.1 | 72.23
Neigh   | 0          | 0          | 0          |   0.0 |  0.00
Comm    | 0.026533   | 0.2788     | 0.8298     |  44.2 | 16.32
Output  | 0          | 0          | 0          |   0.0 |  0.00
Modify  | 1.7913e-05 | 0.0024291  | 0.0051475  |   2.3 |  0.14
Other   |            | 0.1931     |            |       | 11.31

Nlocal:        2776.45 ave        3959 max           0 min
Histogram: 8 4 4 0 4 12 8 2 28 34
Nghost:        3878.78 ave        5425 max         232 min
Histogram: 8 0 8 0 16 0 8 8 16 40
Neighs:        79213.5 ave      115404 max           0 min
Histogram: 8 4 4 0 10 6 8 8 24 32

Total # of neighbors = 8238205
Ave neighs/atom = 28.530481
Neighbor list builds = 0
Dangerous builds = 0
The dot product: -7.68556517860282e-09
Setting atom values ...
  1 settings made for x
  1 settings made for y
  1 settings made for z
Setting up cg style minimization ...
  Unit style    : metal
  Current step  : 6963
Per MPI rank memory allocation (min/avg/max) = 5.441 | 5.816 | 6.074 Mbytes
Step PotEng KinEng TotEng v_fx v_fy v_fz 
    6963   -1152448.6            0   -1152448.6  0.018271607 0.0037617609 -0.021315674 
    7000   -1152448.6            0   -1152448.6 -0.00012081161 0.00013521298 0.00015286189 
    7170   -1152448.6            0   -1152448.6 1.2835847e-05 6.7692315e-06 -1.4666969e-05 
Loop time of 2.42397 on 104 procs for 207 steps with 288751 atoms

99.9% CPU use with 104 MPI tasks x 1 OpenMP threads

Minimization stats:
  Stopping criterion = energy tolerance
  Energy initial, next-to-last, final = 
     -1152448.63407511  -1152448.63606181  -1152448.63606181
  Force two-norm initial, final = 0.17961791 0.00014223809
  Force max component initial, final = 0.15165662 2.9244298e-05
  Final line search alpha, max atom move = 1.0000000 2.9244298e-05
  Iterations, force evaluations = 207 414

MPI task timing breakdown:
Section |  min time  |  avg time  |  max time  |%varavg| %total
---------------------------------------------------------------
Pair    | 0.62449    | 1.7428     | 2.279      |  35.6 | 71.90
Neigh   | 0          | 0          | 0          |   0.0 |  0.00
Comm    | 0.037676   | 0.39688    | 1.1677     |  51.9 | 16.37
Output  | 0.0001544  | 0.00016396 | 0.00025793 |   0.0 |  0.01
Modify  | 2.4941e-05 | 0.0034217  | 0.0072513  |   2.7 |  0.14
Other   |            | 0.2807     |            |       | 11.58

Nlocal:        2776.45 ave        3959 max           0 min
Histogram: 8 4 4 0 4 12 8 2 28 34
Nghost:        3878.72 ave        5425 max         232 min
Histogram: 8 0 8 0 16 0 8 8 16 40
Neighs:        79213.5 ave      115404 max           0 min
Histogram: 8 4 4 0 10 6 8 8 24 32

Total # of neighbors = 8238200
Ave neighs/atom = 28.530464
Neighbor list builds = 0
Dangerous builds = 0
The dot product: 3.39493981448338e-09
Setting atom values ...
  1 settings made for x
  1 settings made for y
  1 settings made for z
Setting up cg style minimization ...
  Unit style    : metal
  Current step  : 7170
Per MPI rank memory allocation (min/avg/max) = 5.441 | 5.816 | 6.074 Mbytes
Step PotEng KinEng TotEng v_fx v_fy v_fz 
    7170   -1152448.6            0   -1152448.6   0.02095471 0.0014230169 -0.024704877 
    7402   -1152448.6            0   -1152448.6 2.947688e-06 1.5874419e-06 -3.3672772e-06 
Loop time of 2.69388 on 104 procs for 232 steps with 288751 atoms

99.9% CPU use with 104 MPI tasks x 1 OpenMP threads

Minimization stats:
  Stopping criterion = energy tolerance
  Energy initial, next-to-last, final = 
     -1152448.59529837  -1152448.59744232  -1152448.59744232
  Force two-norm initial, final = 0.17781976 6.1046227e-05
  Force max component initial, final = 0.14924642 7.2381133e-06
  Final line search alpha, max atom move = 1.0000000 7.2381133e-06
  Iterations, force evaluations = 232 464

MPI task timing breakdown:
Section |  min time  |  avg time  |  max time  |%varavg| %total
---------------------------------------------------------------
Pair    | 0.69772    | 1.9453     | 2.5376     |  37.8 | 72.21
Neigh   | 0          | 0          | 0          |   0.0 |  0.00
Comm    | 0.043122   | 0.43942    | 1.3113     |  55.6 | 16.31
Output  | 0          | 0          | 0          |   0.0 |  0.00
Modify  | 2.7604e-05 | 0.0038286  | 0.0081045  |   2.9 |  0.14
Other   |            | 0.3054     |            |       | 11.34

Nlocal:        2776.45 ave        3958 max           0 min
Histogram: 8 4 4 0 4 12 8 2 28 34
Nghost:        3878.72 ave        5426 max         232 min
Histogram: 8 0 8 0 16 0 8 8 16 40
Neighs:        79213.5 ave      115376 max           0 min
Histogram: 8 4 4 0 10 6 8 8 24 32

Total # of neighbors = 8238205
Ave neighs/atom = 28.530481
Neighbor list builds = 0
Dangerous builds = 0
The dot product: -2.19513114369742e-10
Setting atom values ...
  1 settings made for x
  1 settings made for y
  1 settings made for z
Setting up cg style minimization ...
  Unit style    : metal
  Current step  : 7402
Per MPI rank memory allocation (min/avg/max) = 5.441 | 5.816 | 6.074 Mbytes
Step PotEng KinEng TotEng v_fx v_fy v_fz 
    7402   -1152448.6            0   -1152448.6   0.02202567 -0.00050164389  -0.02616833 
    7636   -1152448.6            0   -1152448.6 -1.0942613e-05 -2.5699187e-06 1.2770252e-05 
Loop time of 2.74202 on 104 procs for 234 steps with 288751 atoms

99.9% CPU use with 104 MPI tasks x 1 OpenMP threads

Minimization stats:
  Stopping criterion = energy tolerance
  Energy initial, next-to-last, final = 
     -1152448.55833792  -1152448.57009032  -1152448.57009032
  Force two-norm initial, final = 0.18456327 0.00013864738
  Force max component initial, final = 0.14665842 1.7909193e-05
  Final line search alpha, max atom move = 1.0000000 1.7909193e-05
  Iterations, force evaluations = 234 468

MPI task timing breakdown:
Section |  min time  |  avg time  |  max time  |%varavg| %total
---------------------------------------------------------------
Pair    | 0.70794    | 1.9717     | 2.5675     |  37.9 | 71.91
Neigh   | 1.0188e-05 | 0.0029505  | 0.0042802  |   2.2 |  0.11
Comm    | 0.041746   | 0.44852    | 1.338      |  55.5 | 16.36
Output  | 0          | 0          | 0          |   0.0 |  0.00
Modify  | 2.8852e-05 | 0.0038675  | 0.0082088  |   2.9 |  0.14
Other   |            | 0.315      |            |       | 11.49

Nlocal:        2776.45 ave        3958 max           0 min
Histogram: 8 4 4 0 4 12 8 2 28 34
Nghost:        3878.69 ave        5425 max         232 min
Histogram: 8 0 8 0 16 0 8 8 16 40
Neighs:        79213.4 ave      115376 max           0 min
Histogram: 8 4 4 0 10 6 8 8 24 32

Total # of neighbors = 8238195
Ave neighs/atom = 28.530447
Neighbor list builds = 1
Dangerous builds = 0
The dot product: 2.4231993971904e-07
Setting atom values ...
  1 settings made for x
  1 settings made for y
  1 settings made for z
Setting up cg style minimization ...
  Unit style    : metal
  Current step  : 7636
Per MPI rank memory allocation (min/avg/max) = 5.441 | 5.816 | 6.074 Mbytes
Step PotEng KinEng TotEng v_fx v_fy v_fz 
    7636   -1152448.5            0   -1152448.5  0.014499778 0.0020533972 -0.016407351 
    8000   -1152448.5            0   -1152448.5 3.2172588e-05 4.5119423e-06 -3.640893e-05 
[...]
Histogram: 8 4 4 0 6 10 8 4 26 34
Nghost:        3879.12 ave        5424 max         232 min
Histogram: 8 0 8 0 16 0 8 8 16 40
Neighs:        79213.1 ave      115496 max           0 min
Histogram: 8 4 4 0 10 6 8 8 24 32

Total # of neighbors = 8238166
Ave neighs/atom = 28.530346
Neighbor list builds = 0
Dangerous builds = 0
The dot product: -6.42887862538856e-09
Setting atom values ...
  1 settings made for x
  1 settings made for y
  1 settings made for z
Setting up cg style minimization ...
  Unit style    : metal
  Current step  : 6822
Per MPI rank memory allocation (min/avg/max) = 5.441 | 5.816 | 6.074 Mbytes
Step PotEng KinEng TotEng v_fx v_fy v_fz 
    6822   -1152448.7            0   -1152448.7 -0.0033984589 -0.00094195487 -0.0057999863 
    6955   -1152448.7            0   -1152448.7 1.5658677e-05 4.5593722e-06 2.8170431e-05 
Loop time of 1.55832 on 104 procs for 133 steps with 288751 atoms

99.9% CPU use with 104 MPI tasks x 1 OpenMP threads

Minimization stats:
  Stopping criterion = energy tolerance
  Energy initial, next-to-last, final = 
      -1152448.6999324  -1152448.70222587  -1152448.70222587
  Force two-norm initial, final = 0.24231696 0.00023667127
  Force max component initial, final = 0.21696007 9.2478810e-05
  Final line search alpha, max atom move = 1.0000000 9.2478810e-05
  Iterations, force evaluations = 133 266

MPI task timing breakdown:
Section |  min time  |  avg time  |  max time  |%varavg| %total
---------------------------------------------------------------
Pair    | 0.40382    | 1.1195     | 1.4664     |  28.5 | 71.84
Neigh   | 0          | 0          | 0          |   0.0 |  0.00
Comm    | 0.02611    | 0.25301    | 0.75063    |  41.5 | 16.24
Output  | 0          | 0          | 0          |   0.0 |  0.00
Modify  | 1.7165e-05 | 0.0022013  | 0.0046721  |   2.2 |  0.14
Other   |            | 0.1836     |            |       | 11.78

Nlocal:        2776.45 ave        3961 max           0 min
Histogram: 8 4 4 0 6 10 8 3 27 34
Nghost:        3879.11 ave        5424 max         232 min
Histogram: 8 0 8 0 16 0 8 8 16 40
Neighs:        79213.1 ave      115479 max           0 min
Histogram: 8 4 4 0 10 6 8 8 24 32

Total # of neighbors = 8238165
Ave neighs/atom = 28.530343
Neighbor list builds = 0
Dangerous builds = 0
The dot product: 3.30723863883398e-08
Setting atom values ...
  1 settings made for x
  1 settings made for y
  1 settings made for z
Setting up cg style minimization ...
  Unit style    : metal
  Current step  : 6955
Per MPI rank memory allocation (min/avg/max) = 5.441 | 5.816 | 6.074 Mbytes
Step PotEng KinEng TotEng v_fx v_fy v_fz 
    6955   -1152448.7            0   -1152448.7 -0.0041212742 -0.00096951851 -0.0059601109 
    7000   -1152448.7            0   -1152448.7 2.5734987e-05 -2.8894549e-05 -0.00019491779 
    7093   -1152448.7            0   -1152448.7 -7.5198667e-06 -4.1365786e-06 -2.6600798e-05 
Loop time of 1.6477 on 104 procs for 138 steps with 288751 atoms

99.9% CPU use with 104 MPI tasks x 1 OpenMP threads

Minimization stats:
  Stopping criterion = energy tolerance
  Energy initial, next-to-last, final = 
     -1152448.66231955   -1152448.6646255   -1152448.6646255
  Force two-norm initial, final = 0.24421704 0.00028004533
  Force max component initial, final = 0.21974477 0.00011966599
  Final line search alpha, max atom move = 1.0000000 0.00011966599
  Iterations, force evaluations = 138 276

MPI task timing breakdown:
Section |  min time  |  avg time  |  max time  |%varavg| %total
---------------------------------------------------------------
Pair    | 0.41804    | 1.1633     | 1.5221     |  29.2 | 70.60
Neigh   | 0          | 0          | 0          |   0.0 |  0.00
Comm    | 0.027494   | 0.26918    | 0.79124    |  41.6 | 16.34
Output  | 0.00016222 | 0.00017072 | 0.00031137 |   0.0 |  0.01
Modify  | 1.7942e-05 | 0.0022831  | 0.0048587  |   2.2 |  0.14
Other   |            | 0.2128     |            |       | 12.92

Nlocal:        2776.45 ave        3961 max           0 min
Histogram: 8 4 4 0 6 10 8 3 27 34
Nghost:        3879.09 ave        5424 max         232 min
Histogram: 8 0 8 0 16 0 8 8 16 40
Neighs:        79213.1 ave      115471 max           0 min
Histogram: 8 4 4 0 10 6 8 8 24 32

Total # of neighbors = 8238163
Ave neighs/atom = 28.530336
Neighbor list builds = 0
Dangerous builds = 0
The dot product: -2.67296423914714e-08
Setting atom values ...
  1 settings made for x
  1 settings made for y
  1 settings made for z
Setting up cg style minimization ...
  Unit style    : metal
  Current step  : 7093
Per MPI rank memory allocation (min/avg/max) = 5.441 | 5.816 | 6.074 Mbytes
Step PotEng KinEng TotEng v_fx v_fy v_fz 
    7093   -1152448.6            0   -1152448.6 -0.0050426456 -0.0010805597 -0.0066653109 
    7251   -1152448.6            0   -1152448.6 3.7054033e-06 -9.8590474e-07 -7.0090023e-06 
Loop time of 1.84196 on 104 procs for 158 steps with 288751 atoms

99.9% CPU use with 104 MPI tasks x 1 OpenMP threads

Minimization stats:
  Stopping criterion = energy tolerance
  Energy initial, next-to-last, final = 
     -1152448.62231586  -1152448.62462115  -1152448.62462115
  Force two-norm initial, final = 0.24595284 0.00029322489
  Force max component initial, final = 0.22279305 0.00012367974
  Final line search alpha, max atom move = 1.0000000 0.00012367974
  Iterations, force evaluations = 158 316

MPI task timing breakdown:
Section |  min time  |  avg time  |  max time  |%varavg| %total
---------------------------------------------------------------
Pair    | 0.48041    | 1.3283     | 1.7361     |  31.0 | 72.11
Neigh   | 0          | 0          | 0          |   0.0 |  0.00
Comm    | 0.028077   | 0.30042    | 0.89122    |  45.2 | 16.31
Output  | 0          | 0          | 0          |   0.0 |  0.00
Modify  | 1.9768e-05 | 0.0026099  | 0.005575   |   2.4 |  0.14
Other   |            | 0.2106     |            |       | 11.43

Nlocal:        2776.45 ave        3961 max           0 min
Histogram: 8 4 4 0 6 10 8 3 27 34
Nghost:        3879.09 ave        5424 max         232 min
Histogram: 8 0 8 0 16 0 8 8 16 40
Neighs:        79213.1 ave      115471 max           0 min
Histogram: 8 4 4 0 10 6 8 8 24 32

Total # of neighbors = 8238162
Ave neighs/atom = 28.530332
Neighbor list builds = 0
Dangerous builds = 0
The dot product: -3.96318558010793e-09
Setting atom values ...
  1 settings made for x
  1 settings made for y
  1 settings made for z
Setting up cg style minimization ...
  Unit style    : metal
  Current step  : 7251
Per MPI rank memory allocation (min/avg/max) = 5.441 | 5.816 | 6.074 Mbytes
Step PotEng KinEng TotEng v_fx v_fy v_fz 
    7251   -1152448.6            0   -1152448.6 -0.0061530417 -0.0012422323 -0.0077035549 
    7485   -1152448.6            0   -1152448.6 5.8369123e-07 -1.8389819e-07 -1.3020273e-06 
Loop time of 2.73797 on 104 procs for 234 steps with 288751 atoms

99.9% CPU use with 104 MPI tasks x 1 OpenMP threads

Minimization stats:
  Stopping criterion = energy tolerance
  Energy initial, next-to-last, final = 
     -1152448.57994943  -1152448.58224123  -1152448.58224123
  Force two-norm initial, final = 0.24740216 3.8947300e-05
  Force max component initial, final = 0.22566236 1.7477228e-05
  Final line search alpha, max atom move = 1.0000000 1.7477228e-05
  Iterations, force evaluations = 234 468

MPI task timing breakdown:
Section |  min time  |  avg time  |  max time  |%varavg| %total
---------------------------------------------------------------
Pair    | 0.71236    | 1.9651     | 2.5787     |  37.8 | 71.77
Neigh   | 0          | 0          | 0          |   0.0 |  0.00
Comm    | 0.042097   | 0.44738    | 1.3202     |  55.0 | 16.34
Output  | 0          | 0          | 0          |   0.0 |  0.00
Modify  | 3.0099e-05 | 0.00386    | 0.0081969  |   2.9 |  0.14
Other   |            | 0.3216     |            |       | 11.75

Nlocal:        2776.45 ave        3961 max           0 min
Histogram: 8 4 4 0 6 10 8 3 27 34
Nghost:        3879.09 ave        5424 max         232 min
Histogram: 8 0 8 0 16 0 8 8 16 40
Neighs:        79213.1 ave      115472 max           0 min
Histogram: 8 4 4 0 10 6 8 8 24 32

Total # of neighbors = 8238161
Ave neighs/atom = 28.530329
Neighbor list builds = 0
Dangerous builds = 0
The dot product: -8.45644059710938e-10
Setting atom values ...
  1 settings made for x
  1 settings made for y
  1 settings made for z
Setting up cg style minimization ...
  Unit style    : metal
  Current step  : 7485
Per MPI rank memory allocation (min/avg/max) = 5.441 | 5.816 | 6.074 Mbytes
Step PotEng KinEng TotEng v_fx v_fy v_fz 
    7485   -1152448.5            0   -1152448.5 -0.0075910727 -0.0014675821 -0.0091487209 
    7658   -1152448.5            0   -1152448.5 1.082687e-06 1.3698393e-06 9.1756277e-06 
Loop time of 2.0193 on 104 procs for 173 steps with 288751 atoms

99.9% CPU use with 104 MPI tasks x 1 OpenMP threads

Minimization stats:
  Stopping criterion = energy tolerance
  Energy initial, next-to-last, final = 
     -1152448.53525426   -1152448.5375275   -1152448.5375275
  Force two-norm initial, final = 0.24880078 0.00017983804
  Force max component initial, final = 0.22846498 7.7856552e-05
  Final line search alpha, max atom move = 1.0000000 7.7856552e-05
  Iterations, force evaluations = 173 346

MPI task timing breakdown:
Section |  min time  |  avg time  |  max time  |%varavg| %total
---------------------------------------------------------------
Pair    | 0.52121    | 1.4543     | 1.9041     |  32.7 | 72.02
Neigh   | 0          | 0          | 0          |   0.0 |  0.00
Comm    | 0.02955    | 0.33436    | 0.98289    |  46.8 | 16.56
Output  | 0          | 0          | 0          |   0.0 |  0.00
Modify  | 2.2298e-05 | 0.0028543  | 0.0060773  |   2.5 |  0.14
Other   |            | 0.2278     |            |       | 11.28

Nlocal:        2776.45 ave        3961 max           0 min
Histogram: 8 4 4 0 6 10 8 2 28 34
Nghost:        3879.09 ave        5424 max         232 min
Histogram: 8 0 8 0 16 0 8 8 16 40
Neighs:        79213.1 ave      115472 max           0 min
Histogram: 8 4 4 0 10 6 8 8 24 32

Total # of neighbors = 8238161
Ave neighs/atom = 28.530329
Neighbor list builds = 0
Dangerous builds = 0
The dot product: 7.72036418253636e-09
Setting atom values ...
  1 settings made for x
  1 settings made for y
  1 settings made for z
Setting up cg style minimization ...
  Unit style    : metal
  Current step  : 7658
Per MPI rank memory allocation (min/avg/max) = 5.441 | 5.816 | 6.074 Mbytes
Step PotEng KinEng TotEng v_fx v_fy v_fz 
    7658   -1152448.5            0   -1152448.5 -0.009457596 -0.0017178702 -0.010729882 
    7796   -1152448.5            0   -1152448.5 6.3300443e-06 -1.2563465e-06 -9.2476272e-06 
Loop time of 1.61006 on 104 procs for 138 steps with 288751 atoms

99.9% CPU use with 104 MPI tasks x 1 OpenMP threads

Minimization stats:
  Stopping criterion = energy tolerance
  Energy initial, next-to-last, final = 
      -1152448.4882808  -1152448.49053463  -1152448.49053463
  Force two-norm initial, final = 0.25034486 0.00023186356
  Force max component initial, final = 0.23132294 0.00011127753
  Final line search alpha, max atom move = 1.0000000 0.00011127753
  Iterations, force evaluations = 138 276

MPI task timing breakdown:
Section |  min time  |  avg time  |  max time  |%varavg| %total
---------------------------------------------------------------
Pair    | 0.41913    | 1.1585     | 1.5171     |  29.0 | 71.95
Neigh   | 0          | 0          | 0          |   0.0 |  0.00
Comm    | 0.023572   | 0.26135    | 0.77217    |  42.1 | 16.23
Output  | 0          | 0          | 0          |   0.0 |  0.00
Modify  | 1.7852e-05 | 0.0022888  | 0.0053945  |   2.3 |  0.14
Other   |            | 0.188      |            |       | 11.67

Nlocal:        2776.45 ave        3961 max           0 min
Histogram: 8 4 4 0 6 10 8 2 28 34
Nghost:        3879.12 ave        5424 max         232 min
Histogram: 8 0 8 0 16 0 8 8 16 40
Neighs:        79213.1 ave      115473 max           0 min
Histogram: 8 4 4 0 10 6 8 8 24 32

Total # of neighbors = 8238163
Ave neighs/atom = 28.530336
Neighbor list builds = 0
Dangerous builds = 0
The dot product: -8.63794451849238e-09
Setting atom values ...
  1 settings made for x
  1 settings made for y
  1 settings made for z
Setting up cg style minimization ...
  Unit style    : metal
  Current step  : 7796
Per MPI rank memory allocation (min/avg/max) = 5.441 | 5.816 | 6.074 Mbytes
Step PotEng KinEng TotEng v_fx v_fy v_fz 
    7796   -1152448.4            0   -1152448.4 -0.011956636 -0.0020467912 -0.012773697 
    7938   -1152448.4            0   -1152448.4 -1.1172303e-05 2.4030456e-07 2.858172e-06 
Loop time of 1.65589 on 104 procs for 142 steps with 288751 atoms

99.9% CPU use with 104 MPI tasks x 1 OpenMP threads

Minimization stats:
  Stopping criterion = energy tolerance
  Energy initial, next-to-last, final = 
      -1152448.4390862   -1152448.4413225   -1152448.4413225
  Force two-norm initial, final = 0.25235026 0.00025067466
  Force max component initial, final = 0.23451783 0.00011503734
  Final line search alpha, max atom move = 1.0000000 0.00011503734
  Iterations, force evaluations = 142 284

MPI task timing breakdown:
Section |  min time  |  avg time  |  max time  |%varavg| %total
---------------------------------------------------------------
Pair    | 0.43027    | 1.1958     | 1.561      |  29.5 | 72.22
Neigh   | 0          | 0          | 0          |   0.0 |  0.00
Comm    | 0.025646   | 0.2712     | 0.80226    |  43.0 | 16.38
Output  | 0          | 0          | 0          |   0.0 |  0.00
Modify  | 1.8465e-05 | 0.0023444  | 0.0049881  |   2.3 |  0.14
Other   |            | 0.1865     |            |       | 11.26

Nlocal:        2776.45 ave        3961 max           0 min
Histogram: 8 4 4 0 6 10 8 2 28 34
Nghost:        3879.12 ave        5424 max         232 min
Histogram: 8 0 8 0 16 0 8 8 16 40
Neighs:        79213.1 ave      115474 max           0 min
Histogram: 8 4 4 0 10 6 8 8 24 32

Total # of neighbors = 8238163
Ave neighs/atom = 28.530336
Neighbor list builds = 0
Dangerous builds = 0
The dot product: 9.69910155164642e-09
Setting atom values ...
  1 settings made for x
  1 settings made for y
  1 settings made for z
Setting up cg style minimization ...
  Unit style    : metal
  Current step  : 7938
Per MPI rank memory allocation (min/avg/max) = 5.441 | 5.816 | 6.074 Mbytes
Step PotEng KinEng TotEng v_fx v_fy v_fz 
    7938   -1152448.4            0   -1152448.4 -0.015569248 -0.0024863929 -0.015403547 
    8000   -1152448.4            0   -1152448.4 3.0916377e-05 -3.4466785e-05 -0.00024167496 
    8113   -1152448.4            0   -1152448.4 1.1200251e-05 -4.3010808e-06 -3.0996025e-05 
Loop time of 2.04316 on 104 procs for 175 steps with 288751 atoms

99.9% CPU use with 104 MPI tasks x 1 OpenMP threads

Minimization stats:
  Stopping criterion = energy tolerance
  Energy initial, next-to-last, final = 
     -1152448.38773627  -1152448.38996171  -1152448.38996171
  Force two-norm initial, final = 0.25481067 0.00025275666
  Force max component initial, final = 0.23786148 9.7644241e-05
  Final line search alpha, max atom move = 1.0000000 9.7644241e-05
  Iterations, force evaluations = 175 350

MPI task timing breakdown:
Section |  min time  |  avg time  |  max time  |%varavg| %total
---------------------------------------------------------------
Pair    | 0.53759    | 1.473      | 1.9153     |  32.5 | 72.09
Neigh   | 0          | 0          | 0          |   0.0 |  0.00
Comm    | 0.031216   | 0.33355    | 1.002      |  47.7 | 16.33
Output  | 0.00014371 | 0.00015427 | 0.00028453 |   0.0 |  0.01
Modify  | 2.2231e-05 | 0.0028928  | 0.0061711  |   2.5 |  0.14
Other   |            | 0.2336     |            |       | 11.43

Nlocal:        2776.45 ave        3961 max           0 min
Histogram: 8 4 4 0 6 10 8 2 28 34
Nghost:        3879.14 ave        5424 max         232 min
Histogram: 8 0 8 0 16 0 8 8 16 40
Neighs:        79213.1 ave      115474 max           0 min
Histogram: 8 4 4 0 10 6 8 8 24 32

Total # of neighbors = 8238165
Ave neighs/atom = 28.530343
Neighbor list builds = 0
Dangerous builds = 0
The dot product: -3.24175206525914e-08
Setting atom values ...
  1 settings made for x
  1 settings made for y
  1 settings made for z
Setting up cg style minimization ...
  Unit style    : metal
  Current step  : 8113
Per MPI rank memory allocation (min/avg/max) = 5.441 | 5.816 | 6.074 Mbytes
Step PotEng KinEng TotEng v_fx v_fy v_fz 
    8113   -1152448.3            0   -1152448.3 -0.022861882 -0.0032160135 -0.019419165 
    8313   -1152448.3            0   -1152448.3 -1.482494e-07 -9.5930456e-07 -6.6351983e-06 
Loop time of 2.36366 on 104 procs for 200 steps with 288751 atoms

99.9% CPU use with 104 MPI tasks x 1 OpenMP threads

Minimization stats:
  Stopping criterion = energy tolerance
  Energy initial, next-to-last, final = 
      -1152448.3343153   -1152448.3365523   -1152448.3365523
  Force two-norm initial, final = 0.25950563 9.7628138e-05
  Force max component initial, final = 0.24294652 3.9222476e-05
  Final line search alpha, max atom move = 1.0000000 3.9222476e-05
  Iterations, force evaluations = 200 400

MPI task timing breakdown:
Section |  min time  |  avg time  |  max time  |%varavg| %total
---------------------------------------------------------------
Pair    | 0.60535    | 1.6833     | 2.2026     |  35.0 | 71.22
Neigh   | 0          | 0          | 0          |   0.0 |  0.00
Comm    | 0.036764   | 0.38418    | 1.1243     |  50.7 | 16.25
Output  | 0          | 0          | 0          |   0.0 |  0.00
Modify  | 2.5154e-05 | 0.0033048  | 0.0070393  |   2.7 |  0.14
Other   |            | 0.2929     |            |       | 12.39

Nlocal:        2776.45 ave        3961 max           0 min
Histogram: 8 4 4 0 6 10 8 2 28 34
Nghost:        3879.14 ave        5424 max         232 min
Histogram: 8 0 8 0 16 0 8 8 16 40
Neighs:        79213.1 ave      115471 max           0 min
Histogram: 8 4 4 0 10 6 8 8 24 32

Total # of neighbors = 8238162
Ave neighs/atom = 28.530332
Neighbor list builds = 0
Dangerous builds = 0
The dot product: 4.22039170547157e-11
Setting up cg style minimization ...
  Unit style    : metal
  Current step  : 8313
Per MPI rank memory allocation (min/avg/max) = 5.441 | 5.816 | 6.074 Mbytes
Step PotEng KinEng TotEng v_fx v_fy v_fz 
    8313   -1152448.3            0   -1152448.3  0.049011503    -2.691384   0.38801342 
    8593   -1152449.5            0   -1152449.5 -1.6155046e-05 2.3099912e-06 -1.1174809e-05 
Loop time of 3.2489 on 104 procs for 280 steps with 288751 atoms

99.9% CPU use with 104 MPI tasks x 1 OpenMP threads

Minimization stats:
  Stopping criterion = energy tolerance
  Energy initial, next-to-last, final = 
      -1152448.3365523  -1152449.45035285  -1152449.45035285
  Force two-norm initial, final = 2.7196515 0.00010067508
  Force max component initial, final = 2.6913840 1.8749915e-05
  Final line search alpha, max atom move = 1.0000000 1.8749915e-05
  Iterations, force evaluations = 280 554

MPI task timing breakdown:
Section |  min time  |  avg time  |  max time  |%varavg| %total
---------------------------------------------------------------
Pair    | 0.86657    | 2.3309     | 3.0325     |  40.6 | 71.75
Neigh   | 6.0672e-05 | 0.017669   | 0.025537   |   5.5 |  0.54
Comm    | 0.050401   | 0.52869    | 1.5766     |  59.8 | 16.27
Output  | 0          | 0          | 0          |   0.0 |  0.00
Modify  | 3.3073e-05 | 0.0029825  | 0.0076414  |   3.4 |  0.09
Other   |            | 0.3686     |            |       | 11.35

Nlocal:        2776.45 ave        3960 max           0 min
Histogram: 8 4 4 0 4 12 8 2 27 35
Nghost:        3879.14 ave        5424 max         232 min
Histogram: 8 0 8 0 16 0 8 8 16 40
Neighs:        79213.3 ave      115434 max           0 min
Histogram: 8 4 4 0 10 6 8 8 24 32

Total # of neighbors = 8238185
Ave neighs/atom = 28.530412
Neighbor list builds = 6
Dangerous builds = 0
