LAMMPS (29 Oct 2020)
OMP_NUM_THREADS environment is not set. Defaulting to 1 thread. (../comm.cpp:94)
  using 1 OpenMP thread(s) per MPI task
OMP_NUM_THREADS environment is not set. Defaulting to 1 thread. (../comm.cpp:94)
  using 1 OpenMP thread(s) per MPI task
Reading data file ...
  orthogonal box = (-122.39241 -121.13707 -37.090501) to (122.39241 121.13707 37.090501)
  13 by 4 by 2 MPI processor grid
  reading atoms ...
  288751 atoms
  read_data CPU = 0.370 seconds
199981 atoms in group inner
88770 atoms in group outer
1 atoms in group carbon
Neighbor list info ...
  update every 1 steps, delay 0 steps, check yes
  max neighbors/atom: 2000, page size: 100000
  master list distance cutoff = 5.6
  ghost atom cutoff = 5.6
  binsize = 2.8, bins = 88 87 27
  1 neighbor lists, perpetual/occasional/extra = 1 0 0
  (1) pair eam/alloy, perpetual
      attributes: half, newton on
      pair build: half/bin/atomonly/newton
      stencil: half/bin/3d/newton
      bin: standard
Setting up cg style minimization ...
  Unit style    : metal
  Current step  : 0
Per MPI rank memory allocation (min/avg/max) = 5.441 | 5.816 | 6.074 Mbytes
Step v_fx v_fy v_fz PotEng KinEng TotEng 
       0   -0.5424459  0.023503117  -0.47526366   -1152447.8            0   -1152447.8 
     175 2.3155827e-06 4.800471e-06 3.0184269e-06   -1152449.5            0   -1152449.5 
Loop time of 2.04911 on 104 procs for 175 steps with 288751 atoms

99.8% CPU use with 104 MPI tasks x 1 OpenMP threads

Minimization stats:
  Stopping criterion = energy tolerance
  Energy initial, next-to-last, final = 
     -1152447.84719251  -1152449.45035262  -1152449.45035262
  Force two-norm initial, final = 9.7774586 4.7719819e-05
  Force max component initial, final = 4.4641426 8.0445457e-06
  Final line search alpha, max atom move = 1.0000000 8.0445457e-06
  Iterations, force evaluations = 175 349

MPI task timing breakdown:
Section |  min time  |  avg time  |  max time  |%varavg| %total
---------------------------------------------------------------
Pair    | 0.53589    | 1.4658     | 1.9022     |  32.5 | 71.53
Neigh   | 2.3089e-05 | 0.0058456  | 0.0084483  |   3.2 |  0.29
Comm    | 0.035961   | 0.33295    | 0.99148    |  47.8 | 16.25
Output  | 0          | 0          | 0          |   0.0 |  0.00
Modify  | 2.0077e-05 | 0.0018822  | 0.0048035  |   2.7 |  0.09
Other   |            | 0.2426     |            |       | 11.84

Nlocal:        2776.45 ave        3960 max           0 min
Histogram: 8 4 4 0 4 12 8 2 28 34
Nghost:        3879.01 ave        5424 max         232 min
Histogram: 8 0 8 0 16 0 8 8 16 40
Neighs:        79213.4 ave      115432 max           0 min
Histogram: 8 4 4 0 10 6 8 8 24 32

Total # of neighbors = 8238197
Ave neighs/atom = 28.530454
Neighbor list builds = 2
Dangerous builds = 1
Setting atom values ...
  1 settings made for x
  1 settings made for y
  1 settings made for z
Setting up cg style minimization ...
  Unit style    : metal
  Current step  : 175
Per MPI rank memory allocation (min/avg/max) = 5.441 | 5.816 | 6.074 Mbytes
Step PotEng KinEng TotEng v_fx v_fy v_fz 
     175   -1152449.4            0   -1152449.4 -0.004376305 0.0066755549 0.0072832429 
     356   -1152449.4            0   -1152449.4   4.2006e-08 -3.3611773e-06 -7.0576181e-06 
Loop time of 2.14326 on 104 procs for 181 steps with 288751 atoms

99.9% CPU use with 104 MPI tasks x 1 OpenMP threads

Minimization stats:
  Stopping criterion = energy tolerance
  Energy initial, next-to-last, final = 
     -1152449.44276369  -1152449.44784659  -1152449.44784659
  Force two-norm initial, final = 0.33020964 0.00018306175
  Force max component initial, final = 0.16183979 7.0576181e-06
  Final line search alpha, max atom move = 1.0000000 7.0576181e-06
  Iterations, force evaluations = 181 362

MPI task timing breakdown:
Section |  min time  |  avg time  |  max time  |%varavg| %total
---------------------------------------------------------------
Pair    | 0.55438    | 1.5307     | 1.996      |  33.3 | 71.42
Neigh   | 0          | 0          | 0          |   0.0 |  0.00
Comm    | 0.037362   | 0.34938    | 1.036      |  48.2 | 16.30
Output  | 0          | 0          | 0          |   0.0 |  0.00
Modify  | 2.5086e-05 | 0.0030029  | 0.0064298  |   2.6 |  0.14
Other   |            | 0.2602     |            |       | 12.14

Nlocal:        2776.45 ave        3961 max           0 min
Histogram: 8 4 4 0 6 10 8 2 28 34
Nghost:        3879.01 ave        5425 max         232 min
Histogram: 8 0 8 0 16 0 8 8 16 40
Neighs:        79213.4 ave      115455 max           0 min
Histogram: 8 4 4 0 10 6 8 8 24 32

Total # of neighbors = 8238198
Ave neighs/atom = 28.530457
Neighbor list builds = 0
Dangerous builds = 0
Setting atom values ...
  1 settings made for x
  1 settings made for y
  1 settings made for z
Setting up cg style minimization ...
  Unit style    : metal
  Current step  : 356
Per MPI rank memory allocation (min/avg/max) = 5.441 | 5.816 | 6.074 Mbytes
Step PotEng KinEng TotEng v_fx v_fy v_fz 
     356   -1152449.4            0   -1152449.4 -0.021124735  0.015920906  0.009260714 
     541   -1152449.4            0   -1152449.4 -2.9640564e-06 -1.9243056e-06 -1.0468773e-05 
Loop time of 2.17581 on 104 procs for 185 steps with 288751 atoms

99.9% CPU use with 104 MPI tasks x 1 OpenMP threads

Minimization stats:
  Stopping criterion = energy tolerance
  Energy initial, next-to-last, final = 
     -1152449.43794203  -1152449.44180875  -1152449.44180875
  Force two-norm initial, final = 0.28753335 0.00010803856
  Force max component initial, final = 0.13859637 1.5633079e-05
  Final line search alpha, max atom move = 1.0000000 1.5633079e-05
  Iterations, force evaluations = 185 370

MPI task timing breakdown:
Section |  min time  |  avg time  |  max time  |%varavg| %total
---------------------------------------------------------------
Pair    | 0.56096    | 1.559      | 2.0298     |  33.7 | 71.65
Neigh   | 0          | 0          | 0          |   0.0 |  0.00
Comm    | 0.04361    | 0.35356    | 1.0644     |  49.3 | 16.25
Output  | 0          | 0          | 0          |   0.0 |  0.00
Modify  | 2.3586e-05 | 0.0030562  | 0.0065108  |   2.6 |  0.14
Other   |            | 0.2602     |            |       | 11.96

Nlocal:        2776.45 ave        3961 max           0 min
Histogram: 8 4 4 0 6 10 8 2 28 34
Nghost:        3879.01 ave        5424 max         232 min
Histogram: 8 0 8 0 16 0 8 8 16 40
Neighs:        79213.5 ave      115455 max           0 min
Histogram: 8 4 4 0 10 6 8 8 24 32

Total # of neighbors = 8238200
Ave neighs/atom = 28.530464
Neighbor list builds = 0
Dangerous builds = 0
The dot product: -4.97381685083592e-07
The cos of the angle between the force vector and the displacement vector: -0.0450153670033775
The angle: 92.5800624092175
Setting atom values ...
  1 settings made for x
  1 settings made for y
  1 settings made for z
Setting up cg style minimization ...
  Unit style    : metal
  Current step  : 541
Per MPI rank memory allocation (min/avg/max) = 5.441 | 5.816 | 6.074 Mbytes
Step PotEng KinEng TotEng v_fx v_fy v_fz 
     541   -1152449.4            0   -1152449.4 -0.037753351  0.020389765 0.0091559678 
     684   -1152449.4            0   -1152449.4 4.3670189e-06 1.0108328e-05 4.6079804e-05 
Loop time of 1.68125 on 104 procs for 143 steps with 288751 atoms

99.9% CPU use with 104 MPI tasks x 1 OpenMP threads

Minimization stats:
  Stopping criterion = energy tolerance
  Energy initial, next-to-last, final = 
     -1152449.42830536  -1152449.43225146  -1152449.43225146
  Force two-norm initial, final = 0.28979528 0.00014141468
  Force max component initial, final = 0.13610262 4.6079804e-05
  Final line search alpha, max atom move = 1.0000000 4.6079804e-05
  Iterations, force evaluations = 143 286

MPI task timing breakdown:
Section |  min time  |  avg time  |  max time  |%varavg| %total
---------------------------------------------------------------
Pair    | 0.43478    | 1.2085     | 1.5807     |  29.7 | 71.88
Neigh   | 0          | 0          | 0          |   0.0 |  0.00
Comm    | 0.027459   | 0.27474    | 0.8238     |  43.8 | 16.34
Output  | 0          | 0          | 0          |   0.0 |  0.00
Modify  | 1.7794e-05 | 0.0023604  | 0.0050536  |   2.3 |  0.14
Other   |            | 0.1957     |            |       | 11.64

Nlocal:        2776.45 ave        3961 max           0 min
Histogram: 8 4 4 0 6 10 8 4 26 34
Nghost:        3879.01 ave        5424 max         232 min
Histogram: 8 0 8 0 16 0 8 8 16 40
Neighs:        79213.5 ave      115455 max           0 min
Histogram: 8 4 4 0 10 6 8 8 24 32

Total # of neighbors = 8238201
Ave neighs/atom = 28.530467
Neighbor list builds = 0
Dangerous builds = 0
The dot product: 2.36562412899725e-06
The cos of the angle between the force vector and the displacement vector: 0.0499317170848397
The angle: 87.137933233144
Setting atom values ...
  1 settings made for x
  1 settings made for y
  1 settings made for z
Setting up cg style minimization ...
  Unit style    : metal
  Current step  : 684
Per MPI rank memory allocation (min/avg/max) = 5.441 | 5.816 | 6.074 Mbytes
Step PotEng KinEng TotEng v_fx v_fy v_fz 
     684   -1152449.4            0   -1152449.4  -0.05245014  0.020993031 0.0069987283 
     897   -1152449.4            0   -1152449.4 -4.933487e-07 -7.2057046e-07 -4.5466716e-06 
Loop time of 2.47106 on 104 procs for 213 steps with 288751 atoms

99.9% CPU use with 104 MPI tasks x 1 OpenMP threads

Minimization stats:
  Stopping criterion = energy tolerance
  Energy initial, next-to-last, final = 
     -1152449.41514962   -1152449.4191527   -1152449.4191527
  Force two-norm initial, final = 0.29114085 3.5521659e-05
  Force max component initial, final = 0.13220462 4.5466716e-06
  Final line search alpha, max atom move = 1.0000000 4.5466716e-06
  Iterations, force evaluations = 213 426

MPI task timing breakdown:
Section |  min time  |  avg time  |  max time  |%varavg| %total
---------------------------------------------------------------
Pair    | 0.64419    | 1.7842     | 2.3185     |  36.1 | 72.20
Neigh   | 0          | 0          | 0          |   0.0 |  0.00
Comm    | 0.039966   | 0.40155    | 1.206      |  53.0 | 16.25
Output  | 0          | 0          | 0          |   0.0 |  0.00
Modify  | 2.5546e-05 | 0.0035057  | 0.0074742  |   2.8 |  0.14
Other   |            | 0.2818     |            |       | 11.41

Nlocal:        2776.45 ave        3961 max           0 min
Histogram: 8 4 4 0 6 10 8 4 26 34
Nghost:        3879.05 ave        5424 max         232 min
Histogram: 8 0 8 0 16 0 8 8 16 40
Neighs:        79213.5 ave      115455 max           0 min
Histogram: 8 4 4 0 10 6 8 8 24 32

Total # of neighbors = 8238200
Ave neighs/atom = 28.530464
Neighbor list builds = 0
Dangerous builds = 0
The dot product: -1.64945638038824e-07
The cos of the angle between the force vector and the displacement vector: -0.035627121706634
The angle: 92.0417157876088
Setting atom values ...
  1 settings made for x
  1 settings made for y
  1 settings made for z
Setting up cg style minimization ...
  Unit style    : metal
  Current step  : 897
Per MPI rank memory allocation (min/avg/max) = 5.441 | 5.816 | 6.074 Mbytes
Step PotEng KinEng TotEng v_fx v_fy v_fz 
     897   -1152449.4            0   -1152449.4  -0.06460406  0.019048046 0.0026974175 
    1000   -1152449.4            0   -1152449.4 1.2931923e-05 2.7202078e-05 0.00020400086 
    1019   -1152449.4            0   -1152449.4 -5.1069401e-06 -3.0406747e-06 -2.9769985e-05 
Loop time of 1.43971 on 104 procs for 122 steps with 288751 atoms

99.9% CPU use with 104 MPI tasks x 1 OpenMP threads

Minimization stats:
  Stopping criterion = energy tolerance
  Energy initial, next-to-last, final = 
     -1152449.39842256  -1152449.40244618  -1152449.40244618
  Force two-norm initial, final = 0.29145495 0.00019644654
  Force max component initial, final = 0.12749255 2.9769985e-05
  Final line search alpha, max atom move = 1.0000000 2.9769985e-05
  Iterations, force evaluations = 122 244

MPI task timing breakdown:
Section |  min time  |  avg time  |  max time  |%varavg| %total
---------------------------------------------------------------
Pair    | 0.37717    | 1.0322     | 1.3413     |  27.2 | 71.70
Neigh   | 0          | 0          | 0          |   0.0 |  0.00
Comm    | 0.027682   | 0.23375    | 0.69518    |  40.0 | 16.24
Output  | 0.0001562  | 0.00016197 | 0.00029181 |   0.0 |  0.01
Modify  | 1.4633e-05 | 0.0020216  | 0.0043281  |   2.1 |  0.14
Other   |            | 0.1716     |            |       | 11.92

Nlocal:        2776.45 ave        3961 max           0 min
Histogram: 8 4 4 0 6 10 8 4 26 34
Nghost:        3879.05 ave        5424 max         232 min
Histogram: 8 0 8 0 16 0 8 8 16 40
Neighs:        79213.5 ave      115455 max           0 min
Histogram: 8 4 4 0 10 6 8 8 24 32

Total # of neighbors = 8238199
Ave neighs/atom = 28.530461
Neighbor list builds = 0
Dangerous builds = 0
The dot product: -6.24769603869535e-07
The cos of the angle between the force vector and the displacement vector: -0.0205803954038082
The angle: 91.1792530533053
Setting atom values ...
  1 settings made for x
  1 settings made for y
  1 settings made for z
Setting up cg style minimization ...
  Unit style    : metal
  Current step  : 1019
Per MPI rank memory allocation (min/avg/max) = 5.441 | 5.816 | 6.074 Mbytes
Step PotEng KinEng TotEng v_fx v_fy v_fz 
    1019   -1152449.4            0   -1152449.4 -0.074012105  0.015615503 -0.0032911904 
    1147   -1152449.4            0   -1152449.4 -1.0433247e-06 5.8834881e-06 4.8104424e-05 
Loop time of 1.49048 on 104 procs for 128 steps with 288751 atoms

99.9% CPU use with 104 MPI tasks x 1 OpenMP threads

Minimization stats:
  Stopping criterion = energy tolerance
  Energy initial, next-to-last, final = 
     -1152449.37804335  -1152449.38205123  -1152449.38205123
  Force two-norm initial, final = 0.29073369 0.00014835346
  Force max component initial, final = 0.12240641 4.8104424e-05
  Final line search alpha, max atom move = 1.0000000 4.8104424e-05
  Iterations, force evaluations = 128 256

MPI task timing breakdown:
Section |  min time  |  avg time  |  max time  |%varavg| %total
---------------------------------------------------------------
Pair    | 0.38768    | 1.0741     | 1.3984     |  28.0 | 72.06
Neigh   | 0          | 0          | 0          |   0.0 |  0.00
Comm    | 0.025124   | 0.24177    | 0.72833    |  41.3 | 16.22
Output  | 0          | 0          | 0          |   0.0 |  0.00
Modify  | 1.541e-05  | 0.0021148  | 0.0044901  |   2.2 |  0.14
Other   |            | 0.1725     |            |       | 11.57

Nlocal:        2776.45 ave        3961 max           0 min
Histogram: 8 4 4 0 6 10 8 4 26 34
Nghost:        3879.05 ave        5424 max         232 min
Histogram: 8 0 8 0 16 0 8 8 16 40
Neighs:        79213.4 ave      115455 max           0 min
Histogram: 8 4 4 0 10 6 8 8 24 32

Total # of neighbors = 8238197
Ave neighs/atom = 28.530454
Neighbor list builds = 0
Dangerous builds = 0
The dot product: 1.14430524431477e-06
The cos of the angle between the force vector and the displacement vector: 0.0236065227615498
The angle: 88.6473202227677
Setting atom values ...
  1 settings made for x
  1 settings made for y
  1 settings made for z
Setting up cg style minimization ...
  Unit style    : metal
  Current step  : 1147
Per MPI rank memory allocation (min/avg/max) = 5.441 | 5.816 | 6.074 Mbytes
Step PotEng KinEng TotEng v_fx v_fy v_fz 
    1147   -1152449.4            0   -1152449.4 -0.083005691  0.011587806 -0.011209762 
    1301   -1152449.4            0   -1152449.4 -6.0764444e-07 -1.9577484e-06 -2.1620765e-05 
Loop time of 1.83643 on 104 procs for 154 steps with 288751 atoms

99.9% CPU use with 104 MPI tasks x 1 OpenMP threads

Minimization stats:
  Stopping criterion = energy tolerance
  Energy initial, next-to-last, final = 
     -1152449.35389713  -1152449.35788335  -1152449.35788335
  Force two-norm initial, final = 0.28987578 6.5924069e-05
  Force max component initial, final = 0.12052457 2.1620765e-05
  Final line search alpha, max atom move = 1.0000000 2.1620765e-05
  Iterations, force evaluations = 154 308

MPI task timing breakdown:
Section |  min time  |  avg time  |  max time  |%varavg| %total
---------------------------------------------------------------
Pair    | 0.46541    | 1.2998     | 1.7044     |  30.8 | 70.78
Neigh   | 0          | 0          | 0          |   0.0 |  0.00
Comm    | 0.028717   | 0.29581    | 0.88925    |  44.9 | 16.11
Output  | 0          | 0          | 0          |   0.0 |  0.00
Modify  | 1.8638e-05 | 0.0025438  | 0.0054727  |   2.4 |  0.14
Other   |            | 0.2383     |            |       | 12.98

Nlocal:        2776.45 ave        3961 max           0 min
Histogram: 8 4 4 0 6 10 8 4 26 34
Nghost:        3879.07 ave        5424 max         232 min
Histogram: 8 0 8 0 16 0 8 8 16 40
Neighs:        79213.4 ave      115455 max           0 min
Histogram: 8 4 4 0 10 6 8 8 24 32

Total # of neighbors = 8238193
Ave neighs/atom = 28.530440
Neighbor list builds = 0
Dangerous builds = 0
The dot product: -2.38647226124572e-07
The cos of the angle between the force vector and the displacement vector: -0.0109885932236956
The angle: 90.6296126858068
Setting atom values ...
  1 settings made for x
  1 settings made for y
  1 settings made for z
Setting up cg style minimization ...
  Unit style    : metal
  Current step  : 1301
Per MPI rank memory allocation (min/avg/max) = 5.441 | 5.816 | 6.074 Mbytes
Step PotEng KinEng TotEng v_fx v_fy v_fz 
    1301   -1152449.3            0   -1152449.3 -0.094682441 0.0070255475 -0.021301447 
    1469   -1152449.3            0   -1152449.3 -2.9712759e-07 -7.1718733e-07 -9.0784454e-06 
Loop time of 1.9677 on 104 procs for 168 steps with 288751 atoms

99.9% CPU use with 104 MPI tasks x 1 OpenMP threads

Minimization stats:
  Stopping criterion = energy tolerance
  Energy initial, next-to-last, final = 
     -1152449.32587329  -1152449.32989246  -1152449.32989246
  Force two-norm initial, final = 0.29037993 3.0926092e-05
  Force max component initial, final = 0.11894628 9.0784454e-06
  Final line search alpha, max atom move = 1.0000000 9.0784454e-06
  Iterations, force evaluations = 168 336

MPI task timing breakdown:
Section |  min time  |  avg time  |  max time  |%varavg| %total
---------------------------------------------------------------
Pair    | 0.50996    | 1.41       | 1.8349     |  32.1 | 71.66
Neigh   | 0          | 0          | 0          |   0.0 |  0.00
Comm    | 0.03375    | 0.31867    | 0.95458    |  47.2 | 16.20
Output  | 0          | 0          | 0          |   0.0 |  0.00
Modify  | 2.0108e-05 | 0.0027698  | 0.0058963  |   2.5 |  0.14
Other   |            | 0.2363     |            |       | 12.01

Nlocal:        2776.45 ave        3961 max           0 min
Histogram: 8 4 4 0 6 10 8 4 26 34
Nghost:        3879.07 ave        5428 max         232 min
Histogram: 8 0 8 0 16 0 8 8 16 40
Neighs:        79213.4 ave      115455 max           0 min
Histogram: 8 4 4 0 10 6 8 8 24 32

Total # of neighbors = 8238196
Ave neighs/atom = 28.530450
Neighbor list builds = 0
Dangerous builds = 0
The dot product: -3.46405011712579e-09
The cos of the angle between the force vector and the displacement vector: -0.000380181232392332
The angle: 90.021782780591
Setting atom values ...
  1 settings made for x
  1 settings made for y
  1 settings made for z
Setting up cg style minimization ...
  Unit style    : metal
  Current step  : 1469
Per MPI rank memory allocation (min/avg/max) = 5.441 | 5.816 | 6.074 Mbytes
Step PotEng KinEng TotEng v_fx v_fy v_fz 
    1469   -1152449.3            0   -1152449.3  -0.11481974 0.00071966749 -0.036556481 
    1647   -1152449.3            0   -1152449.3   2.2959e-06 -6.4395578e-07 -7.1730714e-06 
Loop time of 2.09386 on 104 procs for 178 steps with 288751 atoms

99.9% CPU use with 104 MPI tasks x 1 OpenMP threads

Minimization stats:
  Stopping criterion = energy tolerance
  Energy initial, next-to-last, final = 
     -1152449.29396863  -1152449.29845207  -1152449.29845207
  Force two-norm initial, final = 0.29533976 6.2948951e-05
  Force max component initial, final = 0.11481974 7.1730714e-06
  Final line search alpha, max atom move = 1.0000000 7.1730714e-06
  Iterations, force evaluations = 178 356

MPI task timing breakdown:
Section |  min time  |  avg time  |  max time  |%varavg| %total
---------------------------------------------------------------
Pair    | 0.53747    | 1.5028     | 1.9767     |  33.2 | 71.77
Neigh   | 0          | 0          | 0          |   0.0 |  0.00
Comm    | 0.031748   | 0.34263    | 1.0277     |  48.5 | 16.36
Output  | 0          | 0          | 0          |   0.0 |  0.00
Modify  | 2.1686e-05 | 0.0029418  | 0.0062924  |   2.6 |  0.14
Other   |            | 0.2455     |            |       | 11.72

Nlocal:        2776.45 ave        3960 max           0 min
Histogram: 8 4 4 0 4 12 8 4 26 34
Nghost:        3879.07 ave        5428 max         232 min
Histogram: 8 0 8 0 16 0 8 8 16 40
Neighs:        79213.4 ave      115462 max           0 min
Histogram: 8 4 4 0 10 6 8 8 24 32

Total # of neighbors = 8238194
Ave neighs/atom = 28.530443
Neighbor list builds = 0
Dangerous builds = 0
The dot product: 1.27813885000023e-08
The cos of the angle between the force vector and the displacement vector: 0.00169087895419666
The angle: 89.9031197260927
Setting atom values ...
  1 settings made for x
  1 settings made for y
  1 settings made for z
Setting up cg style minimization ...
  Unit style    : metal
  Current step  : 1647
Per MPI rank memory allocation (min/avg/max) = 5.441 | 5.816 | 6.074 Mbytes
Step PotEng KinEng TotEng v_fx v_fy v_fz 
    1647   -1152449.3            0   -1152449.3  -0.20122344 -0.026767086 -0.097392943 
    1931   -1152449.3            0   -1152449.3 8.8546541e-08 -2.5185289e-07 -2.2267896e-06 
Loop time of 3.3129 on 104 procs for 284 steps with 288751 atoms

99.9% CPU use with 104 MPI tasks x 1 OpenMP threads

Minimization stats:
  Stopping criterion = energy tolerance
  Energy initial, next-to-last, final = 
     -1152449.25992025  -1152449.33208477  -1152449.33208477
  Force two-norm initial, final = 0.34512983 2.8662066e-05
  Force max component initial, final = 0.20122344 5.2320237e-06
  Final line search alpha, max atom move = 1.0000000 5.2320237e-06
  Iterations, force evaluations = 284 568

MPI task timing breakdown:
Section |  min time  |  avg time  |  max time  |%varavg| %total
---------------------------------------------------------------
Pair    | 0.86657    | 2.3896     | 3.1047     |  41.7 | 72.13
Neigh   | 2.024e-05  | 0.0058921  | 0.0085527  |   3.2 |  0.18
Comm    | 0.057978   | 0.5386     | 1.63       |  61.7 | 16.26
Output  | 0          | 0          | 0          |   0.0 |  0.00
Modify  | 3.5014e-05 | 0.004691   | 0.010032   |   3.2 |  0.14
Other   |            | 0.3741     |            |       | 11.29

Nlocal:        2776.45 ave        3960 max           0 min
Histogram: 8 4 4 0 4 12 8 4 26 34
Nghost:        3879.12 ave        5428 max         232 min
Histogram: 8 0 8 0 16 0 8 8 16 40
Neighs:        79213.3 ave      115432 max           0 min
Histogram: 8 4 4 0 10 6 8 8 24 32

Total # of neighbors = 8238187
Ave neighs/atom = 28.530419
Neighbor list builds = 2
Dangerous builds = 0
The dot product: 8.50247819482972e-07
The cos of the angle between the force vector and the displacement vector: 0.379111961382316
The angle: 67.7213136512927
Setting atom values ...
  1 settings made for x
  1 settings made for y
  1 settings made for z
Setting up cg style minimization ...
  Unit style    : metal
  Current step  : 1931
Per MPI rank memory allocation (min/avg/max) = 5.441 | 5.816 | 6.074 Mbytes
Step PotEng KinEng TotEng v_fx v_fy v_fz 
    1931   -1152449.3            0   -1152449.3  -0.18052218  -0.26428437 -0.078605371 
    2000   -1152449.3            0   -1152449.3 -0.00071645951 0.00027007821 0.0013238369 
    2228   -1152449.3            0   -1152449.3 7.5291242e-07 1.3647717e-06 6.5340903e-07 
Loop time of 3.50567 on 104 procs for 297 steps with 288751 atoms

99.9% CPU use with 104 MPI tasks x 1 OpenMP threads

Minimization stats:
  Stopping criterion = energy tolerance
  Energy initial, next-to-last, final = 
     -1152449.31993602  -1152449.33136364  -1152449.33136364
  Force two-norm initial, final = 0.37542874 5.0384743e-06
  Force max component initial, final = 0.26428437 1.4910862e-06
  Final line search alpha, max atom move = 1.0000000 1.4910862e-06
  Iterations, force evaluations = 297 594

MPI task timing breakdown:
Section |  min time  |  avg time  |  max time  |%varavg| %total
---------------------------------------------------------------
Pair    | 0.9026     | 2.5104     | 3.2887     |  42.9 | 71.61
Neigh   | 1.0083e-05 | 0.002953   | 0.0042947  |   2.2 |  0.08
Comm    | 0.059644   | 0.57277    | 1.6959     |  61.9 | 16.34
Output  | 9.6587e-05 | 0.00010425 | 0.00021636 |   0.0 |  0.00
Modify  | 3.7112e-05 | 0.0048862  | 0.01041    |   3.3 |  0.14
Other   |            | 0.4145     |            |       | 11.83

Nlocal:        2776.45 ave        3960 max           0 min
Histogram: 8 4 4 0 4 12 8 4 26 34
Nghost:        3879.03 ave        5424 max         232 min
Histogram: 8 0 8 0 16 0 8 8 16 40
Neighs:        79213.4 ave      115432 max           0 min
Histogram: 8 4 4 0 10 6 8 8 24 32

Total # of neighbors = 8238189
Ave neighs/atom = 28.530426
Neighbor list builds = 1
Dangerous builds = 0
The dot product: -2.03958399176712e-07
The cos of the angle between the force vector and the displacement vector: -0.120678633323249
The angle: 96.9312700424605
Setting atom values ...
  1 settings made for x
  1 settings made for y
  1 settings made for z
Setting up cg style minimization ...
  Unit style    : metal
  Current step  : 2228
Per MPI rank memory allocation (min/avg/max) = 5.441 | 5.816 | 6.074 Mbytes
Step PotEng KinEng TotEng v_fx v_fy v_fz 
    2228   -1152449.3            0   -1152449.3 -0.029473127 -0.037327095 0.0061105358 
    2422   -1152449.3            0   -1152449.3 1.6301852e-05 3.1916816e-05 7.5947174e-06 
Loop time of 2.24107 on 104 procs for 194 steps with 288751 atoms

99.9% CPU use with 104 MPI tasks x 1 OpenMP threads

Minimization stats:
  Stopping criterion = energy tolerance
  Energy initial, next-to-last, final = 
     -1152449.31671105  -1152449.31881439  -1152449.31881439
  Force two-norm initial, final = 0.18804054 0.0001375448
  Force max component initial, final = 0.069113382 3.1916816e-05
  Final line search alpha, max atom move = 1.0000000 3.1916816e-05
  Iterations, force evaluations = 194 388

MPI task timing breakdown:
Section |  min time  |  avg time  |  max time  |%varavg| %total
---------------------------------------------------------------
Pair    | 0.58286    | 1.6235     | 2.115      |  34.5 | 72.44
Neigh   | 0          | 0          | 0          |   0.0 |  0.00
Comm    | 0.034989   | 0.36377    | 1.1022     |  51.0 | 16.23
Output  | 0          | 0          | 0          |   0.0 |  0.00
Modify  | 2.3584e-05 | 0.0031958  | 0.0067891  |   2.7 |  0.14
Other   |            | 0.2506     |            |       | 11.18

Nlocal:        2776.45 ave        3960 max           0 min
Histogram: 8 4 4 0 4 12 8 2 28 34
Nghost:        3879.05 ave        5424 max         232 min
Histogram: 8 0 8 0 16 0 8 8 16 40
Neighs:        79213.3 ave      115432 max           0 min
Histogram: 8 4 4 0 10 6 8 8 24 32

Total # of neighbors = 8238188
Ave neighs/atom = 28.530422
Neighbor list builds = 0
Dangerous builds = 0
The dot product: -6.01264945227505e-07
The cos of the angle between the force vector and the displacement vector: -0.016412370021416
The angle: 90.9404017559494
Setting atom values ...
  1 settings made for x
  1 settings made for y
  1 settings made for z
Setting up cg style minimization ...
  Unit style    : metal
  Current step  : 2422
Per MPI rank memory allocation (min/avg/max) = 5.441 | 5.816 | 6.074 Mbytes
Step PotEng KinEng TotEng v_fx v_fy v_fz 
    2422   -1152449.3            0   -1152449.3 -0.0069018752 0.0015144061  0.011458557 
    2605   -1152449.3            0   -1152449.3 4.8334721e-06 -1.7001386e-05 -2.3050458e-05 
Loop time of 2.14336 on 104 procs for 183 steps with 288751 atoms

99.9% CPU use with 104 MPI tasks x 1 OpenMP threads

Minimization stats:
  Stopping criterion = energy tolerance
  Energy initial, next-to-last, final = 
     -1152449.30085654  -1152449.30279123  -1152449.30279123
  Force two-norm initial, final = 0.18412119 0.00016931537
  Force max component initial, final = 0.068547217 2.3050458e-05
  Final line search alpha, max atom move = 1.0000000 2.3050458e-05
  Iterations, force evaluations = 183 366

MPI task timing breakdown:
Section |  min time  |  avg time  |  max time  |%varavg| %total
---------------------------------------------------------------
Pair    | 0.55586    | 1.5421     | 2.0101     |  33.4 | 71.95
Neigh   | 0          | 0          | 0          |   0.0 |  0.00
Comm    | 0.03214    | 0.34737    | 1.0388     |  49.1 | 16.21
Output  | 0          | 0          | 0          |   0.0 |  0.00
Modify  | 2.2466e-05 | 0.0030209  | 0.0064496  |   2.6 |  0.14
Other   |            | 0.2508     |            |       | 11.70

Nlocal:        2776.45 ave        3960 max           0 min
Histogram: 8 4 4 0 4 12 8 2 28 34
Nghost:        3879.05 ave        5424 max         232 min
Histogram: 8 0 8 0 16 0 8 8 16 40
Neighs:        79213.4 ave      115422 max           0 min
Histogram: 8 4 4 0 10 6 8 8 24 32

Total # of neighbors = 8238189
Ave neighs/atom = 28.530426
Neighbor list builds = 0
Dangerous builds = 0
The dot product: 1.23773932881451e-08
The cos of the angle between the force vector and the displacement vector: 0.000426114807460312
The angle: 89.9755854192056
Setting atom values ...
  1 settings made for x
  1 settings made for y
  1 settings made for z
Setting up cg style minimization ...
  Unit style    : metal
  Current step  : 2605
Per MPI rank memory allocation (min/avg/max) = 5.441 | 5.816 | 6.074 Mbytes
Step PotEng KinEng TotEng v_fx v_fy v_fz 
    2605   -1152449.3            0   -1152449.3 -0.00053457014  0.011559741  0.011645587 
    2816   -1152449.3            0   -1152449.3 7.6941839e-07 5.3987783e-06 3.9537736e-06 
Loop time of 2.44076 on 104 procs for 211 steps with 288751 atoms

99.9% CPU use with 104 MPI tasks x 1 OpenMP threads

Minimization stats:
  Stopping criterion = energy tolerance
  Energy initial, next-to-last, final = 
     -1152449.28143683  -1152449.28337904  -1152449.28337904
  Force two-norm initial, final = 0.18578611 6.1670019e-05
  Force max component initial, final = 0.068238055 1.0683314e-05
  Final line search alpha, max atom move = 1.0000000 1.0683314e-05
  Iterations, force evaluations = 211 422

MPI task timing breakdown:
Section |  min time  |  avg time  |  max time  |%varavg| %total
---------------------------------------------------------------
Pair    | 0.63664    | 1.7664     | 2.3006     |  35.9 | 72.37
Neigh   | 0          | 0          | 0          |   0.0 |  0.00
Comm    | 0.038619   | 0.39628    | 1.1956     |  53.0 | 16.24
Output  | 0          | 0          | 0          |   0.0 |  0.00
Modify  | 2.5144e-05 | 0.0034763  | 0.0073765  |   2.8 |  0.14
Other   |            | 0.2746     |            |       | 11.25

Nlocal:        2776.45 ave        3960 max           0 min
Histogram: 8 4 4 0 4 12 8 2 28 34
Nghost:        3879.10 ave        5425 max         232 min
Histogram: 8 0 8 0 16 0 8 8 16 40
Neighs:        79213.3 ave      115422 max           0 min
Histogram: 8 4 4 0 10 6 8 8 24 32

Total # of neighbors = 8238186
Ave neighs/atom = 28.530415
Neighbor list builds = 0
Dangerous builds = 0
The dot product: 6.89700937406875e-09
The cos of the angle between the force vector and the displacement vector: 0.00102393169116415
The angle: 89.9413330253351
Setting atom values ...
  1 settings made for x
  1 settings made for y
  1 settings made for z
Setting up cg style minimization ...
  Unit style    : metal
  Current step  : 2816
Per MPI rank memory allocation (min/avg/max) = 5.441 | 5.816 | 6.074 Mbytes
Step PotEng KinEng TotEng v_fx v_fy v_fz 
    2816   -1152449.3            0   -1152449.3 0.0021344055  0.018216348  0.014061144 
    3000   -1152449.3            0   -1152449.3 -1.037042e-06 2.0508147e-05 2.0850217e-05 
    3001   -1152449.3            0   -1152449.3 9.8571578e-06 -1.5693762e-05 -2.9182206e-05 
Loop time of 2.1586 on 104 procs for 185 steps with 288751 atoms

99.9% CPU use with 104 MPI tasks x 1 OpenMP threads

Minimization stats:
  Stopping criterion = energy tolerance
  Energy initial, next-to-last, final = 
     -1152449.25864739  -1152449.26056606  -1152449.26056606
  Force two-norm initial, final = 0.1872051 0.00017214594
  Force max component initial, final = 0.067945451 4.7256119e-05
  Final line search alpha, max atom move = 1.0000000 4.7256119e-05
  Iterations, force evaluations = 185 370

MPI task timing breakdown:
Section |  min time  |  avg time  |  max time  |%varavg| %total
---------------------------------------------------------------
Pair    | 0.55905    | 1.5564     | 2.0297     |  33.7 | 72.10
Neigh   | 0          | 0          | 0          |   0.0 |  0.00
Comm    | 0.034415   | 0.3502     | 1.0541     |  49.7 | 16.22
Output  | 0.00016777 | 0.00017552 | 0.00032194 |   0.0 |  0.01
Modify  | 2.2379e-05 | 0.003051   | 0.006508   |   2.6 |  0.14
Other   |            | 0.2487     |            |       | 11.52

Nlocal:        2776.45 ave        3960 max           0 min
Histogram: 8 4 4 0 4 12 8 2 28 34
Nghost:        3879.11 ave        5425 max         232 min
Histogram: 8 0 8 0 16 0 8 8 16 40
Neighs:        79213.3 ave      115431 max           0 min
Histogram: 8 4 4 0 10 6 8 8 24 32

Total # of neighbors = 8238187
Ave neighs/atom = 28.530419
Neighbor list builds = 0
Dangerous builds = 0
The dot product: -6.71845600554111e-08
The cos of the angle between the force vector and the displacement vector: -0.00194345651677938
The angle: 90.1113519261751
Setting atom values ...
  1 settings made for x
  1 settings made for y
  1 settings made for z
Setting up cg style minimization ...
  Unit style    : metal
  Current step  : 3001
Per MPI rank memory allocation (min/avg/max) = 5.441 | 5.816 | 6.074 Mbytes
Step PotEng KinEng TotEng v_fx v_fy v_fz 
    3001   -1152449.2            0   -1152449.2 0.0020675773  0.025850942  0.021514247 
    3268   -1152449.2            0   -1152449.2 2.6211754e-08 -6.1604608e-07 -6.231244e-07 
Loop time of 3.09866 on 104 procs for 267 steps with 288751 atoms

99.9% CPU use with 104 MPI tasks x 1 OpenMP threads

Minimization stats:
  Stopping criterion = energy tolerance
  Energy initial, next-to-last, final = 
     -1152449.23267259  -1152449.23455103  -1152449.23455103
  Force two-norm initial, final = 0.18971164 4.2227676e-06
  Force max component initial, final = 0.071968127 9.8481080e-07
  Final line search alpha, max atom move = 1.0000000 9.8481080e-07
  Iterations, force evaluations = 267 534

MPI task timing breakdown:
Section |  min time  |  avg time  |  max time  |%varavg| %total
---------------------------------------------------------------
Pair    | 0.8077     | 2.2324     | 2.9114     |  40.3 | 72.04
Neigh   | 0          | 0          | 0          |   0.0 |  0.00
Comm    | 0.046538   | 0.5017     | 1.511      |  59.4 | 16.19
Output  | 0          | 0          | 0          |   0.0 |  0.00
Modify  | 3.2174e-05 | 0.0043932  | 0.0093431  |   3.1 |  0.14
Other   |            | 0.3602     |            |       | 11.62

Nlocal:        2776.45 ave        3960 max           0 min
Histogram: 8 4 4 0 4 12 8 2 28 34
Nghost:        3879.14 ave        5425 max         232 min
Histogram: 8 0 8 0 16 0 8 8 16 40
Neighs:        79213.3 ave      115424 max           0 min
Histogram: 8 4 4 0 10 6 8 8 24 32

Total # of neighbors = 8238183
Ave neighs/atom = 28.530405
Neighbor list builds = 0
Dangerous builds = 0
The dot product: -4.28383389576679e-09
The cos of the angle between the force vector and the displacement vector: -0.0048866952057943
The angle: 90.2799881254095
Setting atom values ...
  1 settings made for x
  1 settings made for y
  1 settings made for z
Setting up cg style minimization ...
  Unit style    : metal
  Current step  : 3268
Per MPI rank memory allocation (min/avg/max) = 5.441 | 5.816 | 6.074 Mbytes
Step PotEng KinEng TotEng v_fx v_fy v_fz 
    3268   -1152449.2            0   -1152449.2 -0.0023936812  0.036726011  0.038890641 
    3568   -1152449.2            0   -1152449.2 3.1556809e-06 -1.7244257e-06 -6.3136329e-06 
Loop time of 3.51609 on 104 procs for 300 steps with 288751 atoms

99.9% CPU use with 104 MPI tasks x 1 OpenMP threads

Minimization stats:
  Stopping criterion = energy tolerance
  Energy initial, next-to-last, final = 
     -1152449.20426873  -1152449.24911891  -1152449.24911891
  Force two-norm initial, final = 0.20165175 2.6152118e-05
  Force max component initial, final = 0.07930422 6.3136329e-06
  Final line search alpha, max atom move = 1.0000000 6.3136329e-06
  Iterations, force evaluations = 300 600

MPI task timing breakdown:
Section |  min time  |  avg time  |  max time  |%varavg| %total
---------------------------------------------------------------
Pair    | 0.9104     | 2.5278     | 3.3121     |  42.9 | 71.89
Neigh   | 1.0214e-05 | 0.0029445  | 0.0042783  |   2.2 |  0.08
Comm    | 0.058067   | 0.57513    | 1.7252     |  62.9 | 16.36
Output  | 0          | 0          | 0          |   0.0 |  0.00
Modify  | 3.6329e-05 | 0.004945   | 0.010579   |   3.3 |  0.14
Other   |            | 0.4053     |            |       | 11.53

Nlocal:        2776.45 ave        3960 max           0 min
Histogram: 8 4 4 0 4 12 8 3 27 34
Nghost:        3879.14 ave        5425 max         232 min
Histogram: 8 0 8 0 16 0 8 8 16 40
Neighs:        79213.4 ave      115415 max           0 min
Histogram: 8 4 4 0 10 6 8 8 24 32

Total # of neighbors = 8238190
Ave neighs/atom = 28.530429
Neighbor list builds = 1
Dangerous builds = 0
The dot product: -1.14793736474369e-06
The cos of the angle between the force vector and the displacement vector: -0.157988766811432
The angle: 99.0901762891687
Setting atom values ...
  1 settings made for x
  1 settings made for y
  1 settings made for z
Setting up cg style minimization ...
  Unit style    : metal
  Current step  : 3568
Per MPI rank memory allocation (min/avg/max) = 5.441 | 5.816 | 6.074 Mbytes
Step PotEng KinEng TotEng v_fx v_fy v_fz 
    3568   -1152449.2            0   -1152449.2  0.044696751  0.050137317 -0.011932747 
    3726   -1152449.3            0   -1152449.3 8.2304191e-06 -1.246017e-05 -3.8429024e-05 
Loop time of 1.82688 on 104 procs for 158 steps with 288751 atoms

99.9% CPU use with 104 MPI tasks x 1 OpenMP threads

Minimization stats:
  Stopping criterion = energy tolerance
  Energy initial, next-to-last, final = 
      -1152449.2495977  -1152449.25355185  -1152449.25355185
  Force two-norm initial, final = 0.23319083 0.00015380537
  Force max component initial, final = 0.095964265 3.8429024e-05
  Final line search alpha, max atom move = 1.0000000 3.8429024e-05
  Iterations, force evaluations = 158 316

MPI task timing breakdown:
Section |  min time  |  avg time  |  max time  |%varavg| %total
---------------------------------------------------------------
Pair    | 0.47779    | 1.3264     | 1.7228     |  31.2 | 72.60
Neigh   | 0          | 0          | 0          |   0.0 |  0.00
Comm    | 0.029862   | 0.29639    | 0.90061    |  46.4 | 16.22
Output  | 0          | 0          | 0          |   0.0 |  0.00
Modify  | 1.9258e-05 | 0.0026044  | 0.0055222  |   2.4 |  0.14
Other   |            | 0.2015     |            |       | 11.03

Nlocal:        2776.45 ave        3961 max           0 min
Histogram: 8 4 4 0 6 10 8 2 28 34
Nghost:        3879.05 ave        5424 max         232 min
Histogram: 8 0 8 0 16 0 8 8 16 40
Neighs:        79213.3 ave      115455 max           0 min
Histogram: 8 4 4 0 10 6 8 8 24 32

Total # of neighbors = 8238186
Ave neighs/atom = 28.530415
Neighbor list builds = 0
Dangerous builds = 0
The dot product: -5.38989199433808e-07
The cos of the angle between the force vector and the displacement vector: -0.013073232902557
The angle: 90.7490624079116
Setting atom values ...
  1 settings made for x
  1 settings made for y
  1 settings made for z
Setting up cg style minimization ...
  Unit style    : metal
  Current step  : 3726
Per MPI rank memory allocation (min/avg/max) = 5.441 | 5.816 | 6.074 Mbytes
Step PotEng KinEng TotEng v_fx v_fy v_fz 
    3726   -1152449.3            0   -1152449.3  0.059970107  0.057446539 -0.028913448 
    3962   -1152449.3            0   -1152449.3 1.8304662e-06 -6.3756543e-06 -1.5294715e-05 
Loop time of 2.77135 on 104 procs for 236 steps with 288751 atoms

99.9% CPU use with 104 MPI tasks x 1 OpenMP threads

Minimization stats:
  Stopping criterion = energy tolerance
  Energy initial, next-to-last, final = 
     -1152449.25522188  -1152449.29691587  -1152449.29691587
  Force two-norm initial, final = 0.23289372 0.00015872539
  Force max component initial, final = 0.096749981 1.5294715e-05
  Final line search alpha, max atom move = 1.0000000 1.5294715e-05
  Iterations, force evaluations = 236 471

MPI task timing breakdown:
Section |  min time  |  avg time  |  max time  |%varavg| %total
---------------------------------------------------------------
Pair    | 0.71429    | 1.9868     | 2.6046     |  38.0 | 71.69
Neigh   | 1.0264e-05 | 0.0029622  | 0.0042845  |   2.2 |  0.11
Comm    | 0.04253    | 0.4536     | 1.3552     |  55.7 | 16.37
Output  | 0          | 0          | 0          |   0.0 |  0.00
Modify  | 2.8023e-05 | 0.0038839  | 0.0082844  |   2.9 |  0.14
Other   |            | 0.3241     |            |       | 11.70

Nlocal:        2776.45 ave        3960 max           0 min
Histogram: 8 4 4 0 4 12 8 2 28 34
Nghost:        3879.05 ave        5424 max         232 min
Histogram: 8 0 8 0 16 0 8 8 16 40
Neighs:        79213.5 ave      115412 max           0 min
Histogram: 8 4 4 0 10 6 8 8 24 32

Total # of neighbors = 8238202
Ave neighs/atom = 28.530471
Neighbor list builds = 1
Dangerous builds = 0
The dot product: -1.30868727139635e-06
The cos of the angle between the force vector and the displacement vector: -0.0785000290903356
The angle: 94.5023525648746
Setting atom values ...
  1 settings made for x
  1 settings made for y
  1 settings made for z
Setting up cg style minimization ...
  Unit style    : metal
  Current step  : 3962
Per MPI rank memory allocation (min/avg/max) = 5.441 | 5.816 | 6.074 Mbytes
Step PotEng KinEng TotEng v_fx v_fy v_fz 
    3962   -1152449.3            0   -1152449.3 -0.017317604  -0.04486079 -0.075844968 
    4000   -1152449.3            0   -1152449.3 0.0005029502 0.00028990529 -0.00032767075 
    4187   -1152449.3            0   -1152449.3 -3.7912811e-06 3.0745835e-06 1.5609306e-05 
Loop time of 2.61457 on 104 procs for 225 steps with 288751 atoms

99.9% CPU use with 104 MPI tasks x 1 OpenMP threads

Minimization stats:
  Stopping criterion = energy tolerance
  Energy initial, next-to-last, final = 
     -1152449.31259148  -1152449.31623174  -1152449.31623174
  Force two-norm initial, final = 0.225236 5.8293770e-05
  Force max component initial, final = 0.090657125 1.5609306e-05
  Final line search alpha, max atom move = 1.0000000 1.5609306e-05
  Iterations, force evaluations = 225 450

MPI task timing breakdown:
Section |  min time  |  avg time  |  max time  |%varavg| %total
---------------------------------------------------------------
Pair    | 0.6828     | 1.8927     | 2.4598     |  37.2 | 72.39
Neigh   | 0          | 0          | 0          |   0.0 |  0.00
Comm    | 0.040472   | 0.42857    | 1.3122     |  55.1 | 16.39
Output  | 0.00013078 | 0.0001419  | 0.00025176 |   0.0 |  0.01
Modify  | 2.6435e-05 | 0.003708   | 0.0079267  |   2.9 |  0.14
Other   |            | 0.2895     |            |       | 11.07

Nlocal:        2776.45 ave        3957 max           0 min
Histogram: 8 4 4 0 4 12 8 2 28 34
Nghost:        3879.00 ave        5426 max         232 min
Histogram: 8 0 8 0 16 0 8 8 16 40
Neighs:        79213.5 ave      115337 max           0 min
Histogram: 8 4 4 0 10 6 8 8 24 32

Total # of neighbors = 8238199
Ave neighs/atom = 28.530461
Neighbor list builds = 0
Dangerous builds = 0
The dot product: -1.38948990081073e-07
The cos of the angle between the force vector and the displacement vector: -0.00849594933011423
The angle: 90.4867878958446
Setting atom values ...
  1 settings made for x
  1 settings made for y
  1 settings made for z
Setting up cg style minimization ...
  Unit style    : metal
  Current step  : 4187
Per MPI rank memory allocation (min/avg/max) = 5.441 | 5.816 | 6.074 Mbytes
Step PotEng KinEng TotEng v_fx v_fy v_fz 
    4187   -1152449.3            0   -1152449.3  0.084182517  0.056359753 -0.043467773 
    4415   -1152449.3            0   -1152449.3 3.9358394e-07 -1.9441791e-06 -5.3924328e-06 
Loop time of 2.65569 on 104 procs for 228 steps with 288751 atoms

99.9% CPU use with 104 MPI tasks x 1 OpenMP threads

Minimization stats:
  Stopping criterion = energy tolerance
  Energy initial, next-to-last, final = 
     -1152449.32761245  -1152449.33040056  -1152449.33040056
  Force two-norm initial, final = 0.24267237 3.6153174e-05
  Force max component initial, final = 0.089899574 5.8497404e-06
  Final line search alpha, max atom move = 1.0000000 5.8497404e-06
  Iterations, force evaluations = 228 456

MPI task timing breakdown:
Section |  min time  |  avg time  |  max time  |%varavg| %total
---------------------------------------------------------------
Pair    | 0.68597    | 1.9136     | 2.4928     |  37.3 | 72.06
Neigh   | 0          | 0          | 0          |   0.0 |  0.00
Comm    | 0.040681   | 0.42916    | 1.2911     |  55.0 | 16.16
Output  | 0          | 0          | 0          |   0.0 |  0.00
Modify  | 2.7988e-05 | 0.0037548  | 0.008034   |   2.9 |  0.14
Other   |            | 0.3092     |            |       | 11.64

Nlocal:        2776.45 ave        3958 max           0 min
Histogram: 8 4 4 0 4 12 8 2 28 34
Nghost:        3879.03 ave        5429 max         232 min
Histogram: 8 0 8 0 16 0 8 8 16 40
Neighs:        79213.4 ave      115371 max           0 min
Histogram: 8 4 4 0 10 6 8 8 24 32

Total # of neighbors = 8238196
Ave neighs/atom = 28.530450
Neighbor list builds = 0
Dangerous builds = 0
The dot product: 4.14904025802308e-09
The cos of the angle between the force vector and the displacement vector: 0.000722112191515452
The angle: 89.9586260154953
Setting atom values ...
  1 settings made for x
  1 settings made for y
  1 settings made for z
Setting up cg style minimization ...
  Unit style    : metal
  Current step  : 4415
Per MPI rank memory allocation (min/avg/max) = 5.441 | 5.816 | 6.074 Mbytes
Step PotEng KinEng TotEng v_fx v_fy v_fz 
    4415   -1152449.3            0   -1152449.3  0.073401156  0.044090273 -0.046425661 
    4598   -1152449.3            0   -1152449.3 1.3426679e-06 1.989084e-05 4.4047188e-05 
Loop time of 2.12557 on 104 procs for 183 steps with 288751 atoms

99.9% CPU use with 104 MPI tasks x 1 OpenMP threads

Minimization stats:
  Stopping criterion = energy tolerance
  Energy initial, next-to-last, final = 
     -1152449.33819627  -1152449.34093159  -1152449.34093159
  Force two-norm initial, final = 0.23818961 0.00016710885
  Force max component initial, final = 0.087346846 4.4047188e-05
  Final line search alpha, max atom move = 1.0000000 4.4047188e-05
  Iterations, force evaluations = 183 366

MPI task timing breakdown:
Section |  min time  |  avg time  |  max time  |%varavg| %total
---------------------------------------------------------------
Pair    | 0.55174    | 1.5346     | 1.9975     |  33.5 | 72.20
Neigh   | 0          | 0          | 0          |   0.0 |  0.00
Comm    | 0.033473   | 0.34447    | 1.0394     |  49.3 | 16.21
Output  | 0          | 0          | 0          |   0.0 |  0.00
Modify  | 2.1753e-05 | 0.0030168  | 0.0064152  |   2.6 |  0.14
Other   |            | 0.2435     |            |       | 11.46

Nlocal:        2776.45 ave        3961 max           0 min
Histogram: 8 4 4 0 6 10 8 2 28 34
Nghost:        3879.03 ave        5429 max         232 min
Histogram: 8 0 8 0 16 0 8 8 16 40
Neighs:        79213.4 ave      115455 max           0 min
Histogram: 8 4 4 0 10 6 8 8 24 32

Total # of neighbors = 8238197
Ave neighs/atom = 28.530454
Neighbor list builds = 0
Dangerous builds = 0
The dot product: -8.10246682114362e-08
The cos of the angle between the force vector and the displacement vector: -0.00167583740040244
The angle: 90.0960184551367
Setting atom values ...
  1 settings made for x
  1 settings made for y
  1 settings made for z
Setting up cg style minimization ...
  Unit style    : metal
  Current step  : 4598
Per MPI rank memory allocation (min/avg/max) = 5.441 | 5.816 | 6.074 Mbytes
Step PotEng KinEng TotEng v_fx v_fy v_fz 
    4598   -1152449.3            0   -1152449.3  0.075519582   0.04627374 -0.043557659 
    4835   -1152449.3            0   -1152449.3 7.234546e-08 2.4253742e-06 5.5223861e-06 
Loop time of 2.79342 on 104 procs for 237 steps with 288751 atoms

99.9% CPU use with 104 MPI tasks x 1 OpenMP threads

Minimization stats:
  Stopping criterion = energy tolerance
  Energy initial, next-to-last, final = 
     -1152449.34508733  -1152449.34786056  -1152449.34786056
  Force two-norm initial, final = 0.23894322 2.5641284e-05
  Force max component initial, final = 0.088539601 5.5223861e-06
  Final line search alpha, max atom move = 1.0000000 5.5223861e-06
  Iterations, force evaluations = 237 474

MPI task timing breakdown:
Section |  min time  |  avg time  |  max time  |%varavg| %total
---------------------------------------------------------------
Pair    | 0.71548    | 2.0035     | 2.6112     |  38.3 | 71.72
Neigh   | 0          | 0          | 0          |   0.0 |  0.00
Comm    | 0.047099   | 0.45535    | 1.3558     |  55.5 | 16.30
Output  | 0          | 0          | 0          |   0.0 |  0.00
Modify  | 2.7699e-05 | 0.0039061  | 0.008365   |   3.0 |  0.14
Other   |            | 0.3307     |            |       | 11.84

Nlocal:        2776.45 ave        3961 max           0 min
Histogram: 8 4 4 0 6 10 8 2 28 34
Nghost:        3879.03 ave        5424 max         232 min
Histogram: 8 0 8 0 16 0 8 8 16 40
Neighs:        79213.4 ave      115455 max           0 min
Histogram: 8 4 4 0 10 6 8 8 24 32

Total # of neighbors = 8238193
Ave neighs/atom = 28.530440
Neighbor list builds = 0
Dangerous builds = 0
The dot product: -9.29549494262043e-09
The cos of the angle between the force vector and the displacement vector: -0.00154104306178904
The angle: 90.0882952984357
Setting atom values ...
  1 settings made for x
  1 settings made for y
  1 settings made for z
Setting up cg style minimization ...
  Unit style    : metal
  Current step  : 4835
Per MPI rank memory allocation (min/avg/max) = 5.441 | 5.816 | 6.074 Mbytes
Step PotEng KinEng TotEng v_fx v_fy v_fz 
    4835   -1152449.3            0   -1152449.3  0.074247332  0.045880924 -0.039791591 
    5000   -1152449.4            0   -1152449.4 -4.0587736e-05 -1.5544241e-05 4.3910587e-05 
    5035   -1152449.4            0   -1152449.4 6.0919141e-06 -4.9532767e-06 -2.3520064e-05 
Loop time of 2.31043 on 104 procs for 200 steps with 288751 atoms

99.9% CPU use with 104 MPI tasks x 1 OpenMP threads

Minimization stats:
  Stopping criterion = energy tolerance
  Energy initial, next-to-last, final = 
     -1152449.34844661  -1152449.35121403  -1152449.35121403
  Force two-norm initial, final = 0.23727262 0.00010780728
  Force max component initial, final = 0.091918831 2.3520064e-05
  Final line search alpha, max atom move = 1.0000000 2.3520064e-05
  Iterations, force evaluations = 200 400

MPI task timing breakdown:
Section |  min time  |  avg time  |  max time  |%varavg| %total
---------------------------------------------------------------
Pair    | 0.60189    | 1.6736     | 2.1831     |  35.0 | 72.44
Neigh   | 0          | 0          | 0          |   0.0 |  0.00
Comm    | 0.035143   | 0.37488    | 1.1343     |  51.7 | 16.23
Output  | 9.3516e-05 | 0.00010021 | 0.00024023 |   0.0 |  0.00
Modify  | 2.4173e-05 | 0.0032926  | 0.0069977  |   2.7 |  0.14
Other   |            | 0.2586     |            |       | 11.19

Nlocal:        2776.45 ave        3961 max           0 min
Histogram: 8 4 4 0 6 10 8 2 28 34
Nghost:        3879.05 ave        5424 max         232 min
Histogram: 8 0 8 0 16 0 8 8 16 40
Neighs:        79213.3 ave      115455 max           0 min
Histogram: 8 4 4 0 10 6 8 8 24 32

Total # of neighbors = 8238188
Ave neighs/atom = 28.530422
Neighbor list builds = 0
Dangerous builds = 0
The dot product: 8.41604350291029e-08
The cos of the angle between the force vector and the displacement vector: 0.00339411842492138
The angle: 89.8055309657013
Setting atom values ...
  1 settings made for x
  1 settings made for y
  1 settings made for z
Setting up cg style minimization ...
  Unit style    : metal
  Current step  : 5035
Per MPI rank memory allocation (min/avg/max) = 5.441 | 5.816 | 6.074 Mbytes
Step PotEng KinEng TotEng v_fx v_fy v_fz 
    5035   -1152449.3            0   -1152449.3  0.073064305  0.045467802 -0.036466776 
    5223   -1152449.4            0   -1152449.4 2.0131633e-05 6.3148568e-06 -2.4409047e-05 
Loop time of 2.26304 on 104 procs for 188 steps with 288751 atoms

99.9% CPU use with 104 MPI tasks x 1 OpenMP threads

Minimization stats:
  Stopping criterion = energy tolerance
  Energy initial, next-to-last, final = 
     -1152449.34831814  -1152449.35106838  -1152449.35106838
  Force two-norm initial, final = 0.23549708 0.00013791179
  Force max component initial, final = 0.095118067 2.9429685e-05
  Final line search alpha, max atom move = 1.0000000 2.9429685e-05
  Iterations, force evaluations = 188 376

MPI task timing breakdown:
Section |  min time  |  avg time  |  max time  |%varavg| %total
---------------------------------------------------------------
Pair    | 0.57138    | 1.5934     | 2.0865     |  34.1 | 70.41
Neigh   | 0          | 0          | 0          |   0.0 |  0.00
Comm    | 0.04129    | 0.36607    | 1.0834     |  49.4 | 16.18
Output  | 0          | 0          | 0          |   0.0 |  0.00
Modify  | 2.4084e-05 | 0.00311    | 0.0066156  |   2.6 |  0.14
Other   |            | 0.3005     |            |       | 13.28

Nlocal:        2776.45 ave        3961 max           0 min
Histogram: 8 4 4 0 6 10 8 2 28 34
Nghost:        3879.01 ave        5424 max         232 min
Histogram: 8 0 8 0 16 0 8 8 16 40
Neighs:        79213.4 ave      115455 max           0 min
Histogram: 8 4 4 0 10 6 8 8 24 32

Total # of neighbors = 8238192
Ave neighs/atom = 28.530436
Neighbor list builds = 0
Dangerous builds = 0
The dot product: 1.84701488430784e-07
The cos of the angle between the force vector and the displacement vector: 0.00572470388887398
The angle: 89.6719968366229
Setting atom values ...
  1 settings made for x
  1 settings made for y
  1 settings made for z
Setting up cg style minimization ...
  Unit style    : metal
  Current step  : 5223
Per MPI rank memory allocation (min/avg/max) = 5.441 | 5.816 | 6.074 Mbytes
Step PotEng KinEng TotEng v_fx v_fy v_fz 
    5223   -1152449.3            0   -1152449.3  0.074568339  0.046044636 -0.036139857 
    5404   -1152449.3            0   -1152449.3 -8.1297644e-07 7.7209345e-06 1.9311323e-05 
Loop time of 2.0922 on 104 procs for 181 steps with 288751 atoms

99.9% CPU use with 104 MPI tasks x 1 OpenMP threads

Minimization stats:
  Stopping criterion = energy tolerance
  Energy initial, next-to-last, final = 
     -1152449.34489344  -1152449.34765107  -1152449.34765107
  Force two-norm initial, final = 0.23512991 0.00016962373
  Force max component initial, final = 0.098152455 2.9659434e-05
  Final line search alpha, max atom move = 1.0000000 2.9659434e-05
  Iterations, force evaluations = 181 362

MPI task timing breakdown:
Section |  min time  |  avg time  |  max time  |%varavg| %total
---------------------------------------------------------------
Pair    | 0.54565    | 1.5153     | 1.9748     |  33.3 | 72.43
Neigh   | 0          | 0          | 0          |   0.0 |  0.00
Comm    | 0.033      | 0.339      | 1.0251     |  49.2 | 16.20
Output  | 0          | 0          | 0          |   0.0 |  0.00
Modify  | 2.1027e-05 | 0.0029807  | 0.0063593  |   2.6 |  0.14
Other   |            | 0.2349     |            |       | 11.23

Nlocal:        2776.45 ave        3961 max           0 min
Histogram: 8 4 4 0 6 10 8 2 28 34
Nghost:        3879.01 ave        5424 max         232 min
Histogram: 8 0 8 0 16 0 8 8 16 40
Neighs:        79213.4 ave      115455 max           0 min
Histogram: 8 4 4 0 10 6 8 8 24 32

Total # of neighbors = 8238193
Ave neighs/atom = 28.530440
Neighbor list builds = 0
Dangerous builds = 0
The dot product: -4.01691511307417e-08
The cos of the angle between the force vector and the displacement vector: -0.0019299584518597
The angle: 90.1105785425734
Setting atom values ...
  1 settings made for x
  1 settings made for y
  1 settings made for z
Setting up cg style minimization ...
  Unit style    : metal
  Current step  : 5404
Per MPI rank memory allocation (min/avg/max) = 5.441 | 5.816 | 6.074 Mbytes
Step PotEng KinEng TotEng v_fx v_fy v_fz 
    5404   -1152449.3            0   -1152449.3  0.082685932  0.048953729 -0.042556117 
    5702   -1152449.4            0   -1152449.4 -9.9804473e-07 -1.0705695e-06 -5.8389881e-07 
Loop time of 3.50598 on 104 procs for 298 steps with 288751 atoms

99.9% CPU use with 104 MPI tasks x 1 OpenMP threads

Minimization stats:
  Stopping criterion = energy tolerance
  Energy initial, next-to-last, final = 
     -1152449.33873516  -1152449.36084036  -1152449.36084036
  Force two-norm initial, final = 0.23961049 4.3723019e-05
  Force max component initial, final = 0.10103158 3.9535502e-06
  Final line search alpha, max atom move = 1.0000000 3.9535502e-06
  Iterations, force evaluations = 298 595

MPI task timing breakdown:
Section |  min time  |  avg time  |  max time  |%varavg| %total
---------------------------------------------------------------
Pair    | 0.90203    | 2.5068     | 3.2987     |  42.7 | 71.50
Neigh   | 1.0845e-05 | 0.002949   | 0.0042554  |   2.2 |  0.08
Comm    | 0.053506   | 0.57345    | 1.7101     |  62.4 | 16.36
Output  | 0          | 0          | 0          |   0.0 |  0.00
Modify  | 3.5207e-05 | 0.004902   | 0.010449   |   3.3 |  0.14
Other   |            | 0.4178     |            |       | 11.92

Nlocal:        2776.45 ave        3959 max           0 min
Histogram: 8 4 4 0 4 12 8 2 28 34
Nghost:        3879.01 ave        5425 max         232 min
Histogram: 8 0 8 0 16 0 8 8 16 40
Neighs:        79213.5 ave      115372 max           0 min
Histogram: 8 4 4 0 10 6 8 8 24 32

Total # of neighbors = 8238202
Ave neighs/atom = 28.530471
Neighbor list builds = 1
Dangerous builds = 0
The dot product: -1.28401432229595e-07
The cos of the angle between the force vector and the displacement vector: -0.0814832579346377
The angle: 94.6738285409015
Setting atom values ...
  1 settings made for x
  1 settings made for y
  1 settings made for z
Setting up cg style minimization ...
  Unit style    : metal
  Current step  : 5702
Per MPI rank memory allocation (min/avg/max) = 5.441 | 5.816 | 6.074 Mbytes
Step PotEng KinEng TotEng v_fx v_fy v_fz 
    5702   -1152449.4            0   -1152449.4 0.00035467922  0.014796037  0.029330771 
    5827   -1152449.4            0   -1152449.4 2.8733072e-05 -7.0984153e-06 -4.9996793e-05 
Loop time of 1.45078 on 104 procs for 125 steps with 288751 atoms

99.9% CPU use with 104 MPI tasks x 1 OpenMP threads

Minimization stats:
  Stopping criterion = energy tolerance
  Energy initial, next-to-last, final = 
     -1152449.37410872  -1152449.37712182  -1152449.37712182
  Force two-norm initial, final = 0.22472106 0.00018309295
  Force max component initial, final = 0.09812093 5.3042564e-05
  Final line search alpha, max atom move = 1.0000000 5.3042564e-05
  Iterations, force evaluations = 125 250

MPI task timing breakdown:
Section |  min time  |  avg time  |  max time  |%varavg| %total
---------------------------------------------------------------
Pair    | 0.37822    | 1.0516     | 1.3695     |  27.8 | 72.48
Neigh   | 0          | 0          | 0          |   0.0 |  0.00
Comm    | 0.021794   | 0.23749    | 0.7258     |  41.0 | 16.37
Output  | 0          | 0          | 0          |   0.0 |  0.00
Modify  | 1.5053e-05 | 0.002071   | 0.0044052  |   2.2 |  0.14
Other   |            | 0.1596     |            |       | 11.00

Nlocal:        2776.45 ave        3959 max           0 min
Histogram: 8 4 4 0 4 12 8 2 28 34
Nghost:        3879.09 ave        5426 max         232 min
Histogram: 8 0 8 0 16 0 8 8 16 40
Neighs:        79213.5 ave      115394 max           0 min
Histogram: 8 4 4 0 10 6 8 8 24 32

Total # of neighbors = 8238203
Ave neighs/atom = 28.530474
Neighbor list builds = 0
Dangerous builds = 0
The dot product: -4.43719325947883e-07
The cos of the angle between the force vector and the displacement vector: -0.00763711343677386
The angle: 90.4375786213253
Setting atom values ...
  1 settings made for x
  1 settings made for y
  1 settings made for z
Setting up cg style minimization ...
  Unit style    : metal
  Current step  : 5827
Per MPI rank memory allocation (min/avg/max) = 5.441 | 5.816 | 6.074 Mbytes
Step PotEng KinEng TotEng v_fx v_fy v_fz 
    5827   -1152449.4            0   -1152449.4  0.074114898  0.041342276 -0.011055927 
    5955   -1152449.4            0   -1152449.4 1.5318669e-05 8.7423252e-06 -1.8851823e-06 
Loop time of 1.49233 on 104 procs for 128 steps with 288751 atoms

99.9% CPU use with 104 MPI tasks x 1 OpenMP threads

Minimization stats:
  Stopping criterion = energy tolerance
  Energy initial, next-to-last, final = 
     -1152449.38845102   -1152449.3921183   -1152449.3921183
  Force two-norm initial, final = 0.24203429 0.00013149887
  Force max component initial, final = 0.10105485 1.8916877e-05
  Final line search alpha, max atom move = 1.0000000 1.8916877e-05
  Iterations, force evaluations = 128 256

MPI task timing breakdown:
Section |  min time  |  avg time  |  max time  |%varavg| %total
---------------------------------------------------------------
Pair    | 0.38837    | 1.0783     | 1.4086     |  27.9 | 72.26
Neigh   | 0          | 0          | 0          |   0.0 |  0.00
Comm    | 0.02258    | 0.24353    | 0.72979    |  40.9 | 16.32
Output  | 0          | 0          | 0          |   0.0 |  0.00
Modify  | 1.5412e-05 | 0.0021148  | 0.0045235  |   2.2 |  0.14
Other   |            | 0.1684     |            |       | 11.28

Nlocal:        2776.45 ave        3960 max           0 min
Histogram: 8 4 4 0 4 12 8 2 28 34
Nghost:        3879.09 ave        5425 max         232 min
Histogram: 8 0 8 0 16 0 8 8 16 40
Neighs:        79213.5 ave      115425 max           0 min
Histogram: 8 4 4 0 10 6 8 8 24 32

Total # of neighbors = 8238207
Ave neighs/atom = 28.530488
Neighbor list builds = 0
Dangerous builds = 0
The dot product: 3.9068941961874e-07
The cos of the angle between the force vector and the displacement vector: 0.0220253117025442
The angle: 88.7379405424285
Setting atom values ...
  1 settings made for x
  1 settings made for y
  1 settings made for z
Setting up cg style minimization ...
  Unit style    : metal
  Current step  : 5955
Per MPI rank memory allocation (min/avg/max) = 5.441 | 5.816 | 6.074 Mbytes
Step PotEng KinEng TotEng v_fx v_fy v_fz 
    5955   -1152449.4            0   -1152449.4  0.062254516  0.035136479 -0.0044005052 
    6000   -1152449.4            0   -1152449.4 -0.00017002231 -3.4215897e-05 0.00013627558 
    6078   -1152449.4            0   -1152449.4 -2.2905869e-05 2.6133741e-05 8.0228554e-05 
Loop time of 1.42433 on 104 procs for 123 steps with 288751 atoms

99.9% CPU use with 104 MPI tasks x 1 OpenMP threads

Minimization stats:
  Stopping criterion = energy tolerance
  Energy initial, next-to-last, final = 
     -1152449.40432488  -1152449.40822744  -1152449.40822744
  Force two-norm initial, final = 0.24313657 0.00025651819
  Force max component initial, final = 0.10375515 8.0228554e-05
  Final line search alpha, max atom move = 1.0000000 8.0228554e-05
  Iterations, force evaluations = 123 246

MPI task timing breakdown:
Section |  min time  |  avg time  |  max time  |%varavg| %total
---------------------------------------------------------------
Pair    | 0.37207    | 1.033      | 1.342      |  27.5 | 72.53
Neigh   | 0          | 0          | 0          |   0.0 |  0.00
Comm    | 0.021121   | 0.23098    | 0.69988    |  40.8 | 16.22
Output  | 0.00011212 | 0.00012151 | 0.00022511 |   0.0 |  0.01
Modify  | 1.485e-05  | 0.0020314  | 0.0043156  |   2.1 |  0.14
Other   |            | 0.1582     |            |       | 11.11

Nlocal:        2776.45 ave        3958 max           0 min
Histogram: 8 4 4 0 4 12 8 2 28 34
Nghost:        3879.09 ave        5425 max         232 min
Histogram: 8 0 8 0 16 0 8 8 16 40
Neighs:        79213.5 ave      115365 max           0 min
Histogram: 8 4 4 0 10 6 8 8 24 32

Total # of neighbors = 8238206
Ave neighs/atom = 28.530485
Neighbor list builds = 0
Dangerous builds = 0
The dot product: -6.16863855350299e-07
The cos of the angle between the force vector and the displacement vector: -0.00705539372061075
The angle: 90.4042476368537
Setting atom values ...
  1 settings made for x
  1 settings made for y
  1 settings made for z
Setting up cg style minimization ...
  Unit style    : metal
  Current step  : 6078
Per MPI rank memory allocation (min/avg/max) = 5.441 | 5.816 | 6.074 Mbytes
Step PotEng KinEng TotEng v_fx v_fy v_fz 
    6078   -1152449.4            0   -1152449.4  0.034434142  0.030152419   0.02064506 
    6233   -1152449.4            0   -1152449.4 3.2694241e-05 -5.1096027e-06 -4.7894805e-05 
Loop time of 1.80221 on 104 procs for 155 steps with 288751 atoms

99.9% CPU use with 104 MPI tasks x 1 OpenMP threads

Minimization stats:
  Stopping criterion = energy tolerance
  Energy initial, next-to-last, final = 
     -1152449.42062139  -1152449.42324918  -1152449.42324918
  Force two-norm initial, final = 0.23237225 0.00027850869
  Force max component initial, final = 0.11053914 5.7011171e-05
  Final line search alpha, max atom move = 1.0000000 5.7011171e-05
  Iterations, force evaluations = 155 310

MPI task timing breakdown:
Section |  min time  |  avg time  |  max time  |%varavg| %total
---------------------------------------------------------------
Pair    | 0.47254    | 1.305      | 1.6951     |  30.7 | 72.41
Neigh   | 0          | 0          | 0          |   0.0 |  0.00
Comm    | 0.026673   | 0.29354    | 0.88275    |  45.3 | 16.29
Output  | 0          | 0          | 0          |   0.0 |  0.00
Modify  | 1.8471e-05 | 0.0025585  | 0.0054846  |   2.4 |  0.14
Other   |            | 0.2011     |            |       | 11.16

Nlocal:        2776.45 ave        3958 max           0 min
Histogram: 8 4 4 0 4 12 8 2 28 34
Nghost:        3879.09 ave        5425 max         232 min
Histogram: 8 0 8 0 16 0 8 8 16 40
Neighs:        79213.5 ave      115365 max           0 min
Histogram: 8 4 4 0 10 6 8 8 24 32

Total # of neighbors = 8238203
Ave neighs/atom = 28.530474
Neighbor list builds = 0
Dangerous builds = 0
The dot product: -1.44156992853888e-08
The cos of the angle between the force vector and the displacement vector: -0.000247630521508489
The angle: 90.0141881839063
Setting atom values ...
  1 settings made for x
  1 settings made for y
  1 settings made for z
Setting up cg style minimization ...
  Unit style    : metal
  Current step  : 6233
Per MPI rank memory allocation (min/avg/max) = 5.441 | 5.816 | 6.074 Mbytes
Step PotEng KinEng TotEng v_fx v_fy v_fz 
    6233   -1152449.4            0   -1152449.4  0.020654309   0.02944425  0.035363128 
    6414   -1152449.4            0   -1152449.4 2.1933605e-05 1.6810152e-05 8.5055664e-06 
Loop time of 2.08835 on 104 procs for 181 steps with 288751 atoms

99.9% CPU use with 104 MPI tasks x 1 OpenMP threads

Minimization stats:
  Stopping criterion = energy tolerance
  Energy initial, next-to-last, final = 
     -1152449.43245136  -1152449.43521153  -1152449.43521153
  Force two-norm initial, final = 0.23671297 0.00016257429
  Force max component initial, final = 0.11498972 2.7384480e-05
  Final line search alpha, max atom move = 1.0000000 2.7384480e-05
  Iterations, force evaluations = 181 362

MPI task timing breakdown:
Section |  min time  |  avg time  |  max time  |%varavg| %total
---------------------------------------------------------------
Pair    | 0.54822    | 1.5139     | 1.9661     |  33.2 | 72.49
Neigh   | 0          | 0          | 0          |   0.0 |  0.00
Comm    | 0.032194   | 0.33877    | 1.0209     |  49.0 | 16.22
Output  | 0          | 0          | 0          |   0.0 |  0.00
Modify  | 2.1265e-05 | 0.0029833  | 0.0063377  |   2.6 |  0.14
Other   |            | 0.2327     |            |       | 11.14

Nlocal:        2776.45 ave        3960 max           0 min
Histogram: 8 4 4 0 4 12 8 2 28 34
Nghost:        3879.11 ave        5425 max         232 min
Histogram: 8 0 8 0 16 0 8 8 16 40
Neighs:        79213.5 ave      115425 max           0 min
Histogram: 8 4 4 0 10 6 8 8 24 32

Total # of neighbors = 8238205
Ave neighs/atom = 28.530481
Neighbor list builds = 0
Dangerous builds = 0
The dot product: 3.12421751916827e-08
The cos of the angle between the force vector and the displacement vector: 0.00108052746361379
The angle: 89.9380903246398
Setting atom values ...
  1 settings made for x
  1 settings made for y
  1 settings made for z
Setting up cg style minimization ...
  Unit style    : metal
  Current step  : 6414
Per MPI rank memory allocation (min/avg/max) = 5.441 | 5.816 | 6.074 Mbytes
Step PotEng KinEng TotEng v_fx v_fy v_fz 
    6414   -1152449.4            0   -1152449.4   0.01046596  0.027748572   0.04397301 
    6668   -1152449.4            0   -1152449.4 1.037737e-06 1.1659529e-06 1.1553357e-06 
Loop time of 2.97143 on 104 procs for 254 steps with 288751 atoms

99.9% CPU use with 104 MPI tasks x 1 OpenMP threads

Minimization stats:
  Stopping criterion = energy tolerance
  Energy initial, next-to-last, final = 
     -1152449.44083923  -1152449.44374905  -1152449.44374905
  Force two-norm initial, final = 0.24261256 9.1055432e-06
  Force max component initial, final = 0.11913036 1.2373262e-06
  Final line search alpha, max atom move = 1.0000000 1.2373262e-06
  Iterations, force evaluations = 254 508

MPI task timing breakdown:
Section |  min time  |  avg time  |  max time  |%varavg| %total
---------------------------------------------------------------
Pair    | 0.77144    | 2.1443     | 2.7928     |  39.5 | 72.16
Neigh   | 0          | 0          | 0          |   0.0 |  0.00
Comm    | 0.050469   | 0.48295    | 1.4456     |  58.1 | 16.25
Output  | 0          | 0          | 0          |   0.0 |  0.00
Modify  | 3.007e-05  | 0.0041898  | 0.0089398  |   3.1 |  0.14
Other   |            | 0.34       |            |       | 11.44

Nlocal:        2776.45 ave        3961 max           0 min
Histogram: 8 4 4 0 6 10 8 2 28 34
Nghost:        3879.03 ave        5426 max         232 min
Histogram: 8 0 8 0 16 0 8 8 16 40
Neighs:        79213.5 ave      115455 max           0 min
Histogram: 8 4 4 0 10 6 8 8 24 32

Total # of neighbors = 8238207
Ave neighs/atom = 28.530488
Neighbor list builds = 0
Dangerous builds = 0
The dot product: 2.56356894465081e-09
The cos of the angle between the force vector and the displacement vector: 0.00132010474809214
The angle: 89.9243635474505
Setting atom values ...
  1 settings made for x
  1 settings made for y
  1 settings made for z
Setting up cg style minimization ...
  Unit style    : metal
  Current step  : 6668
Per MPI rank memory allocation (min/avg/max) = 5.441 | 5.816 | 6.074 Mbytes
Step PotEng KinEng TotEng v_fx v_fy v_fz 
    6668   -1152449.4            0   -1152449.4 0.0041032828  0.026649877  0.049460892 
    6916   -1152449.4            0   -1152449.4 -9.0525793e-07 -8.2836279e-07 -6.2931875e-07 
Loop time of 2.86336 on 104 procs for 248 steps with 288751 atoms

99.9% CPU use with 104 MPI tasks x 1 OpenMP threads

Minimization stats:
  Stopping criterion = energy tolerance
  Energy initial, next-to-last, final = 
     -1152449.44575644  -1152449.44878079  -1152449.44878079
  Force two-norm initial, final = 0.24764677 1.3300348e-05
  Force max component initial, final = 0.12304622 2.2718670e-06
  Final line search alpha, max atom move = 1.0000000 2.2718670e-06
  Iterations, force evaluations = 248 496

MPI task timing breakdown:
Section |  min time  |  avg time  |  max time  |%varavg| %total
---------------------------------------------------------------
Pair    | 0.74671    | 2.0754     | 2.703      |  39.0 | 72.48
Neigh   | 0          | 0          | 0          |   0.0 |  0.00
Comm    | 0.047418   | 0.46382    | 1.4096     |  57.7 | 16.20
Output  | 0          | 0          | 0          |   0.0 |  0.00
Modify  | 2.9313e-05 | 0.0040863  | 0.0086837  |   3.0 |  0.14
Other   |            | 0.3201     |            |       | 11.18

Nlocal:        2776.45 ave        3961 max           0 min
Histogram: 8 4 4 0 6 10 8 2 28 34
Nghost:        3879.01 ave        5429 max         232 min
Histogram: 8 0 8 0 16 0 8 8 16 40
Neighs:        79213.5 ave      115455 max           0 min
Histogram: 8 4 4 0 10 6 8 8 24 32

Total # of neighbors = 8238204
Ave neighs/atom = 28.530478
Neighbor list builds = 0
Dangerous builds = 0
The dot product: -6.94239874153208e-10
The cos of the angle between the force vector and the displacement vector: -0.000503426868102897
The angle: 90.0288442360539
Setting up cg style minimization ...
  Unit style    : metal
  Current step  : 6916
Per MPI rank memory allocation (min/avg/max) = 5.441 | 5.816 | 6.074 Mbytes
Step PotEng KinEng TotEng v_fx v_fy v_fz 
    6916   -1152449.4            0   -1152449.4 -0.050160086   0.08745041 -0.042958759 
    7000   -1152449.5            0   -1152449.5 -2.9985614e-05 2.4469243e-07 -0.00030610752 
    7112   -1152449.5            0   -1152449.5 -1.5582258e-05  -2.0452e-06 -3.7622928e-05 
Loop time of 2.28369 on 104 procs for 196 steps with 288751 atoms

99.9% CPU use with 104 MPI tasks x 1 OpenMP threads

Minimization stats:
  Stopping criterion = energy tolerance
  Energy initial, next-to-last, final = 
     -1152449.44878079  -1152449.45035285  -1152449.45035285
  Force two-norm initial, final = 0.10958587 0.00012986114
  Force max component initial, final = 0.08745041 3.7622928e-05
  Final line search alpha, max atom move = 1.0000000 3.7622928e-05
  Iterations, force evaluations = 196 392

MPI task timing breakdown:
Section |  min time  |  avg time  |  max time  |%varavg| %total
---------------------------------------------------------------
Pair    | 0.59053    | 1.6539     | 2.1581     |  34.8 | 72.42
Neigh   | 0          | 0          | 0          |   0.0 |  0.00
Comm    | 0.036141   | 0.37241    | 1.1232     |  51.3 | 16.31
Output  | 0.00012551 | 0.00012908 | 0.00025302 |   0.0 |  0.01
Modify  | 2.1641e-05 | 0.0021049  | 0.005367   |   2.9 |  0.09
Other   |            | 0.2552     |            |       | 11.17

Nlocal:        2776.45 ave        3961 max           0 min
Histogram: 8 4 4 0 6 10 8 2 28 34
Nghost:        3879.01 ave        5425 max         232 min
Histogram: 8 0 8 0 16 0 8 8 16 40
Neighs:        79213.5 ave      115455 max           0 min
Histogram: 8 4 4 0 10 6 8 8 24 32

Total # of neighbors = 8238199
Ave neighs/atom = 28.530461
Neighbor list builds = 0
Dangerous builds = 0
OMP_NUM_THREADS environment is not set. Defaulting to 1 thread. (../comm.cpp:94)
  using 1 OpenMP thread(s) per MPI task
Reading data file ...
  orthogonal box = (-122.39241 -121.13707 -37.090501) to (122.39241 121.13707 37.090501)
  13 by 4 by 2 MPI processor grid
  reading atoms ...
  288751 atoms
  read_data CPU = 0.344 seconds
199981 atoms in group inner
88770 atoms in group outer
1 atoms in group carbon
Neighbor list info ...
  update every 1 steps, delay 0 steps, check yes
  max neighbors/atom: 2000, page size: 100000
  master list distance cutoff = 5.6
  ghost atom cutoff = 5.6
  binsize = 2.8, bins = 88 87 27
  1 neighbor lists, perpetual/occasional/extra = 1 0 0
  (1) pair eam/alloy, perpetual
      attributes: half, newton on
      pair build: half/bin/atomonly/newton
      stencil: half/bin/3d/newton
      bin: standard
Setting up cg style minimization ...
  Unit style    : metal
  Current step  : 0
Per MPI rank memory allocation (min/avg/max) = 5.441 | 5.816 | 6.074 Mbytes
Step v_fx v_fy v_fz PotEng KinEng TotEng 
       0   -0.5424459  0.023503117  -0.47526366   -1152447.8            0   -1152447.8 
     175 2.3155827e-06 4.800471e-06 3.0184269e-06   -1152449.5            0   -1152449.5 
Loop time of 2.06561 on 104 procs for 175 steps with 288751 atoms

99.9% CPU use with 104 MPI tasks x 1 OpenMP threads

Minimization stats:
  Stopping criterion = energy tolerance
  Energy initial, next-to-last, final = 
     -1152447.84719251  -1152449.45035262  -1152449.45035262
  Force two-norm initial, final = 9.7774586 4.7719819e-05
  Force max component initial, final = 4.4641426 8.0445457e-06
  Final line search alpha, max atom move = 1.0000000 8.0445457e-06
  Iterations, force evaluations = 175 349

MPI task timing breakdown:
Section |  min time  |  avg time  |  max time  |%varavg| %total
---------------------------------------------------------------
Pair    | 0.53523    | 1.4742     | 1.9141     |  32.7 | 71.37
Neigh   | 2.2145e-05 | 0.0058978  | 0.0085695  |   3.2 |  0.29
Comm    | 0.030483   | 0.33704    | 1.0057     |  47.6 | 16.32
Output  | 0          | 0          | 0          |   0.0 |  0.00
Modify  | 1.999e-05  | 0.0018726  | 0.0047836  |   2.7 |  0.09
Other   |            | 0.2466     |            |       | 11.94

Nlocal:        2776.45 ave        3960 max           0 min
Histogram: 8 4 4 0 4 12 8 2 28 34
Nghost:        3879.01 ave        5424 max         232 min
Histogram: 8 0 8 0 16 0 8 8 16 40
Neighs:        79213.4 ave      115432 max           0 min
Histogram: 8 4 4 0 10 6 8 8 24 32

Total # of neighbors = 8238197
Ave neighs/atom = 28.530454
Neighbor list builds = 2
Dangerous builds = 1
Setting atom values ...
  1 settings made for x
  1 settings made for y
  1 settings made for z
Setting up cg style minimization ...
  Unit style    : metal
  Current step  : 175
Per MPI rank memory allocation (min/avg/max) = 5.441 | 5.816 | 6.074 Mbytes
Step PotEng KinEng TotEng v_fx v_fy v_fz 
     175   -1152449.4            0   -1152449.4  -0.04291323  0.012209321  0.041730486 
     369   -1152449.4            0   -1152449.4 -1.6385536e-05 3.0726991e-06 1.6870909e-05 
Loop time of 2.253 on 104 procs for 194 steps with 288751 atoms

99.9% CPU use with 104 MPI tasks x 1 OpenMP threads

Minimization stats:
  Stopping criterion = energy tolerance
  Energy initial, next-to-last, final = 
     -1152449.44556532  -1152449.44876093  -1152449.44876093
  Force two-norm initial, final = 0.2656931 0.00014049938
  Force max component initial, final = 0.11824021 1.9758851e-05
  Final line search alpha, max atom move = 1.0000000 1.9758851e-05
  Iterations, force evaluations = 194 388

MPI task timing breakdown:
Section |  min time  |  avg time  |  max time  |%varavg| %total
---------------------------------------------------------------
Pair    | 0.58326    | 1.6258     | 2.1224     |  34.5 | 72.16
Neigh   | 0          | 0          | 0          |   0.0 |  0.00
Comm    | 0.032489   | 0.36839    | 1.1168     |  50.6 | 16.35
Output  | 0          | 0          | 0          |   0.0 |  0.00
Modify  | 2.3425e-05 | 0.0031933  | 0.0068177  |   2.7 |  0.14
Other   |            | 0.2556     |            |       | 11.34

Nlocal:        2776.45 ave        3961 max           0 min
Histogram: 8 4 4 0 6 10 8 2 28 34
Nghost:        3879.01 ave        5425 max         232 min
Histogram: 8 0 8 0 16 0 8 8 16 40
[...]
  Energy initial, next-to-last, final = 
     -1152448.91409728  -1152448.96220793  -1152448.96220793
  Force two-norm initial, final = 0.30850135 8.1017022e-05
  Force max component initial, final = 0.22956034 1.8114023e-05
  Final line search alpha, max atom move = 1.0000000 1.8114023e-05
  Iterations, force evaluations = 258 516

MPI task timing breakdown:
Section |  min time  |  avg time  |  max time  |%varavg| %total
---------------------------------------------------------------
Pair    | 0.78656    | 2.1743     | 2.862      |  39.7 | 71.50
Neigh   | 2.0215e-05 | 0.0059237  | 0.008556   |   3.2 |  0.19
Comm    | 0.048888   | 0.49604    | 1.4781     |  57.6 | 16.31
Output  | 0          | 0          | 0          |   0.0 |  0.00
Modify  | 3.2072e-05 | 0.0042527  | 0.0091285  |   3.1 |  0.14
Other   |            | 0.3604     |            |       | 11.85

Nlocal:        2776.45 ave        3930 max           0 min
Histogram: 8 4 4 0 4 12 8 0 26 38
Nghost:        3878.78 ave        5424 max         232 min
Histogram: 8 0 8 0 16 0 8 8 16 40
Neighs:        79213.2 ave      114461 max           0 min
Histogram: 8 4 4 0 8 8 8 8 20 36

Total # of neighbors = 8238171
Ave neighs/atom = 28.530364
Neighbor list builds = 2
Dangerous builds = 0
The dot product: 1.43273631426305e-06
The cos of the angle between the force vector and the displacement vector: 0.112259748949803
The angle: 83.5544033490329
Setting atom values ...
  1 settings made for x
  1 settings made for y
  1 settings made for z
Setting up cg style minimization ...
  Unit style    : metal
  Current step  : 3622
Per MPI rank memory allocation (min/avg/max) = 5.441 | 5.816 | 6.074 Mbytes
Step PotEng KinEng TotEng v_fx v_fy v_fz 
    3622   -1152448.9            0   -1152448.9 -0.023093968 -0.027342738  -0.16131892 
    3831   -1152448.9            0   -1152448.9 -1.8296502e-06 -1.038729e-06 -2.2640577e-05 
Loop time of 2.45369 on 104 procs for 209 steps with 288751 atoms

99.9% CPU use with 104 MPI tasks x 1 OpenMP threads

Minimization stats:
  Stopping criterion = energy tolerance
  Energy initial, next-to-last, final = 
      -1152448.9261467  -1152448.93340749  -1152448.93340749
  Force two-norm initial, final = 0.35962589 0.00011856107
  Force max component initial, final = 0.24829131 2.2640577e-05
  Final line search alpha, max atom move = 1.0000000 2.2640577e-05
  Iterations, force evaluations = 209 418

MPI task timing breakdown:
Section |  min time  |  avg time  |  max time  |%varavg| %total
---------------------------------------------------------------
Pair    | 0.63188    | 1.7675     | 2.3207     |  36.0 | 72.03
Neigh   | 0          | 0          | 0          |   0.0 |  0.00
Comm    | 0.038262   | 0.40144    | 1.202      |  53.0 | 16.36
Output  | 0          | 0          | 0          |   0.0 |  0.00
Modify  | 2.4399e-05 | 0.0034487  | 0.0074265  |   2.8 |  0.14
Other   |            | 0.2813     |            |       | 11.47

Nlocal:        2776.45 ave        3954 max           0 min
Histogram: 8 4 4 0 4 12 8 0 30 34
Nghost:        3879.03 ave        5427 max         232 min
Histogram: 8 0 8 0 16 0 8 8 16 40
Neighs:        79213.3 ave      115245 max           0 min
Histogram: 8 4 4 0 10 6 8 8 24 32

Total # of neighbors = 8238184
Ave neighs/atom = 28.530409
Neighbor list builds = 0
Dangerous builds = 0
The dot product: 1.35951371849426e-06
The cos of the angle between the force vector and the displacement vector: 0.0597900540282624
The angle: 86.5722378853763
Setting atom values ...
  1 settings made for x
  1 settings made for y
  1 settings made for z
Setting up cg style minimization ...
  Unit style    : metal
  Current step  : 3831
Per MPI rank memory allocation (min/avg/max) = 5.441 | 5.816 | 6.074 Mbytes
Step PotEng KinEng TotEng v_fx v_fy v_fz 
    3831   -1152448.9            0   -1152448.9 -0.015152697 -0.0078477556 -0.088121649 
    3995   -1152448.9            0   -1152448.9 6.3960572e-06 1.3493011e-05 -5.86869e-06 
Loop time of 1.95273 on 104 procs for 164 steps with 288751 atoms

99.9% CPU use with 104 MPI tasks x 1 OpenMP threads

Minimization stats:
  Stopping criterion = energy tolerance
  Energy initial, next-to-last, final = 
     -1152448.89791515   -1152448.9033924   -1152448.9033924
  Force two-norm initial, final = 0.34334463 0.00015544091
  Force max component initial, final = 0.25530988 3.9533404e-05
  Final line search alpha, max atom move = 1.0000000 3.9533404e-05
  Iterations, force evaluations = 164 328

MPI task timing breakdown:
Section |  min time  |  avg time  |  max time  |%varavg| %total
---------------------------------------------------------------
Pair    | 0.49721    | 1.3884     | 1.8417     |  31.9 | 71.10
Neigh   | 0          | 0          | 0          |   0.0 |  0.00
Comm    | 0.03023    | 0.32077    | 0.94432    |  45.9 | 16.43
Output  | 0          | 0          | 0          |   0.0 |  0.00
Modify  | 2.0253e-05 | 0.0027128  | 0.0058292  |   2.5 |  0.14
Other   |            | 0.2409     |            |       | 12.33

Nlocal:        2776.45 ave        3954 max           0 min
Histogram: 8 4 4 0 4 12 8 0 30 34
Nghost:        3879.01 ave        5424 max         232 min
Histogram: 8 0 8 0 16 0 8 8 16 40
Neighs:        79213.3 ave      115245 max           0 min
Histogram: 8 4 4 0 10 6 8 8 24 32

Total # of neighbors = 8238180
Ave neighs/atom = 28.530395
Neighbor list builds = 0
Dangerous builds = 0
The dot product: 5.4133074640168e-08
The cos of the angle between the force vector and the displacement vector: 0.00337402222060901
The angle: 89.8066823999861
Setting atom values ...
  1 settings made for x
  1 settings made for y
  1 settings made for z
Setting up cg style minimization ...
  Unit style    : metal
  Current step  : 3995
Per MPI rank memory allocation (min/avg/max) = 5.441 | 5.816 | 6.074 Mbytes
Step PotEng KinEng TotEng v_fx v_fy v_fz 
    3995   -1152448.9            0   -1152448.9 -0.0066345808  0.001346328 -0.046751802 
    4000   -1152448.9            0   -1152448.9 -0.0010242848 -0.0010991037 -0.0027515131 
    4181   -1152448.9            0   -1152448.9 -1.1372198e-05 -9.2346525e-06 -4.0692285e-05 
Loop time of 2.19088 on 104 procs for 186 steps with 288751 atoms

99.9% CPU use with 104 MPI tasks x 1 OpenMP threads

Minimization stats:
  Stopping criterion = energy tolerance
  Energy initial, next-to-last, final = 
       -1152448.866467  -1152448.87068098  -1152448.87068098
  Force two-norm initial, final = 0.33453779 0.00018951081
  Force max component initial, final = 0.26076708 4.5629526e-05
  Final line search alpha, max atom move = 1.0000000 4.5629526e-05
  Iterations, force evaluations = 186 372

MPI task timing breakdown:
Section |  min time  |  avg time  |  max time  |%varavg| %total
---------------------------------------------------------------
Pair    | 0.56029    | 1.5708     | 2.0646     |  34.0 | 71.70
Neigh   | 0          | 0          | 0          |   0.0 |  0.00
Comm    | 0.036709   | 0.36316    | 1.0769     |  48.9 | 16.58
Output  | 8.9216e-05 | 9.9033e-05 | 0.00016476 |   0.0 |  0.00
Modify  | 2.2611e-05 | 0.0030725  | 0.0065946  |   2.6 |  0.14
Other   |            | 0.2537     |            |       | 11.58

Nlocal:        2776.45 ave        3953 max           0 min
Histogram: 8 4 4 0 4 12 8 0 30 34
Nghost:        3879.05 ave        5425 max         232 min
Histogram: 8 0 8 0 16 0 8 8 16 40
Neighs:        79213.3 ave      115199 max           0 min
Histogram: 8 4 4 0 10 6 8 8 24 32

Total # of neighbors = 8238180
Ave neighs/atom = 28.530395
Neighbor list builds = 0
Dangerous builds = 0
The dot product: 4.60291076463822e-07
The cos of the angle between the force vector and the displacement vector: 0.0106428377277398
The angle: 89.3901988037589
Setting atom values ...
  1 settings made for x
  1 settings made for y
  1 settings made for z
Setting up cg style minimization ...
  Unit style    : metal
  Current step  : 4181
Per MPI rank memory allocation (min/avg/max) = 5.441 | 5.816 | 6.074 Mbytes
Step PotEng KinEng TotEng v_fx v_fy v_fz 
    4181   -1152448.8            0   -1152448.8 -0.0024174088 0.0032755374 -0.024775942 
    4398   -1152448.8            0   -1152448.8 3.5461649e-06 2.4279643e-06 1.3161513e-05 
Loop time of 2.53296 on 104 procs for 217 steps with 288751 atoms

99.9% CPU use with 104 MPI tasks x 1 OpenMP threads

Minimization stats:
  Stopping criterion = energy tolerance
  Energy initial, next-to-last, final = 
     -1152448.82890436  -1152448.83343591  -1152448.83343591
  Force two-norm initial, final = 0.34284519 8.4473887e-05
  Force max component initial, final = 0.26585243 2.0933573e-05
  Final line search alpha, max atom move = 1.0000000 2.0933573e-05
  Iterations, force evaluations = 217 434

MPI task timing breakdown:
Section |  min time  |  avg time  |  max time  |%varavg| %total
---------------------------------------------------------------
Pair    | 0.65599    | 1.83       | 2.387      |  36.5 | 72.25
Neigh   | 0          | 0          | 0          |   0.0 |  0.00
Comm    | 0.046766   | 0.41827    | 1.2629     |  54.1 | 16.51
Output  | 0          | 0          | 0          |   0.0 |  0.00
Modify  | 2.5779e-05 | 0.0035771  | 0.0077001  |   2.8 |  0.14
Other   |            | 0.2811     |            |       | 11.10

Nlocal:        2776.45 ave        3948 max           0 min
Histogram: 8 4 4 0 4 12 8 0 28 36
Nghost:        3878.99 ave        5425 max         232 min
Histogram: 8 0 8 0 16 0 8 8 16 40
Neighs:        79213.3 ave      115023 max           0 min
Histogram: 8 4 4 0 10 6 8 8 24 32

Total # of neighbors = 8238179
Ave neighs/atom = 28.530391
Neighbor list builds = 0
Dangerous builds = 0
The dot product: -5.1168861366321e-08
The cos of the angle between the force vector and the displacement vector: -0.00369572414001727
The angle: 90.2117498774962
Setting atom values ...
  1 settings made for x
  1 settings made for y
  1 settings made for z
Setting up cg style minimization ...
  Unit style    : metal
  Current step  : 4398
Per MPI rank memory allocation (min/avg/max) = 5.441 | 5.816 | 6.074 Mbytes
Step PotEng KinEng TotEng v_fx v_fy v_fz 
    4398   -1152448.8            0   -1152448.8 -0.00062010277 0.0037098416  -0.01528629 
    4609   -1152448.8            0   -1152448.8 2.7567452e-06 1.2992566e-06 1.1822661e-05 
Loop time of 2.49239 on 104 procs for 211 steps with 288751 atoms

99.9% CPU use with 104 MPI tasks x 1 OpenMP threads

Minimization stats:
  Stopping criterion = energy tolerance
  Energy initial, next-to-last, final = 
     -1152448.78629735  -1152448.79115393  -1152448.79115393
  Force two-norm initial, final = 0.35263515 0.0001057821
  Force max component initial, final = 0.27102551 3.0617854e-05
  Final line search alpha, max atom move = 1.0000000 3.0617854e-05
  Iterations, force evaluations = 211 422

MPI task timing breakdown:
Section |  min time  |  avg time  |  max time  |%varavg| %total
---------------------------------------------------------------
Pair    | 0.63696    | 1.7837     | 2.3579     |  36.3 | 71.57
Neigh   | 0          | 0          | 0          |   0.0 |  0.00
Comm    | 0.038406   | 0.41466    | 1.2317     |  51.9 | 16.64
Output  | 0          | 0          | 0          |   0.0 |  0.00
Modify  | 2.5626e-05 | 0.0034918  | 0.0074377  |   2.8 |  0.14
Other   |            | 0.2905     |            |       | 11.66

Nlocal:        2776.45 ave        3941 max           0 min
Histogram: 8 4 4 0 4 12 8 0 28 36
Nghost:        3878.99 ave        5425 max         232 min
Histogram: 8 0 8 0 16 0 8 8 16 40
Neighs:        79213.2 ave      114811 max           0 min
Histogram: 8 4 4 0 10 6 8 8 22 34

Total # of neighbors = 8238175
Ave neighs/atom = 28.530377
Neighbor list builds = 0
Dangerous builds = 0
The dot product: -1.00474005876476e-08
The cos of the angle between the force vector and the displacement vector: -0.000822941092950731
The angle: 90.0471510567357
Setting atom values ...
  1 settings made for x
  1 settings made for y
  1 settings made for z
Setting up cg style minimization ...
  Unit style    : metal
  Current step  : 4609
Per MPI rank memory allocation (min/avg/max) = 5.441 | 5.816 | 6.074 Mbytes
Step PotEng KinEng TotEng v_fx v_fy v_fz 
    4609   -1152448.7            0   -1152448.7 0.00049525049 0.0044742954 -0.011291573 
    4817   -1152448.7            0   -1152448.7 -3.4429484e-06 -5.7300454e-06 -1.7006137e-06 
Loop time of 2.44186 on 104 procs for 208 steps with 288751 atoms

99.9% CPU use with 104 MPI tasks x 1 OpenMP threads

Minimization stats:
  Stopping criterion = energy tolerance
  Energy initial, next-to-last, final = 
     -1152448.73849661  -1152448.74356827  -1152448.74356827
  Force two-norm initial, final = 0.36051905 0.00011308276
  Force max component initial, final = 0.2764087 3.2066708e-05
  Final line search alpha, max atom move = 1.0000000 3.2066708e-05
  Iterations, force evaluations = 208 416

MPI task timing breakdown:
Section |  min time  |  avg time  |  max time  |%varavg| %total
---------------------------------------------------------------
Pair    | 0.6311     | 1.7523     | 2.2942     |  35.7 | 71.76
Neigh   | 0          | 0          | 0          |   0.0 |  0.00
Comm    | 0.041395   | 0.39729    | 1.1998     |  52.0 | 16.27
Output  | 0          | 0          | 0          |   0.0 |  0.00
Modify  | 2.488e-05  | 0.0034278  | 0.0073649  |   2.8 |  0.14
Other   |            | 0.2888     |            |       | 11.83

Nlocal:        2776.45 ave        3930 max           0 min
Histogram: 8 4 4 0 4 12 8 0 26 38
Nghost:        3879.01 ave        5425 max         232 min
Histogram: 8 0 8 0 16 0 8 8 16 40
Neighs:        79213.2 ave      114461 max           0 min
Histogram: 8 4 4 0 8 8 8 8 20 36

Total # of neighbors = 8238168
Ave neighs/atom = 28.530353
Neighbor list builds = 0
Dangerous builds = 0
The dot product: 1.15162239425998e-08
The cos of the angle between the force vector and the displacement vector: 0.00166955457345415
The angle: 89.9043415248344
Setting atom values ...
  1 settings made for x
  1 settings made for y
  1 settings made for z
Setting up cg style minimization ...
  Unit style    : metal
  Current step  : 4817
Per MPI rank memory allocation (min/avg/max) = 5.441 | 5.816 | 6.074 Mbytes
Step PotEng KinEng TotEng v_fx v_fy v_fz 
    4817   -1152448.7            0   -1152448.7 0.0013633307 0.0056810401 -0.010232177 
    4958   -1152448.7            0   -1152448.7 8.357047e-06 1.246562e-05 8.5402156e-06 
Loop time of 1.6601 on 104 procs for 141 steps with 288751 atoms

99.9% CPU use with 104 MPI tasks x 1 OpenMP threads

Minimization stats:
  Stopping criterion = energy tolerance
  Energy initial, next-to-last, final = 
     -1152448.68537587  -1152448.69055297  -1152448.69055297
  Force two-norm initial, final = 0.36614246 0.00031140032
  Force max component initial, final = 0.28197465 0.00010257966
  Final line search alpha, max atom move = 1.0000000 0.00010257966
  Iterations, force evaluations = 141 282

MPI task timing breakdown:
Section |  min time  |  avg time  |  max time  |%varavg| %total
---------------------------------------------------------------
Pair    | 0.42801    | 1.1904     | 1.5638     |  29.5 | 71.71
Neigh   | 0          | 0          | 0          |   0.0 |  0.00
Comm    | 0.02542    | 0.27345    | 0.80597    |  42.7 | 16.47
Output  | 0          | 0          | 0          |   0.0 |  0.00
Modify  | 1.6609e-05 | 0.0023316  | 0.0050079  |   2.3 |  0.14
Other   |            | 0.1939     |            |       | 11.68

Nlocal:        2776.45 ave        3930 max           0 min
Histogram: 8 4 4 0 4 12 8 0 26 38
Nghost:        3879.00 ave        5426 max         232 min
Histogram: 8 0 8 0 16 0 8 8 16 40
Neighs:        79213.1 ave      114461 max           0 min
Histogram: 8 4 4 0 8 8 8 8 20 36

Total # of neighbors = 8238166
Ave neighs/atom = 28.530346
Neighbor list builds = 0
Dangerous builds = 0
The dot product: -1.22295459130179e-08
The cos of the angle between the force vector and the displacement vector: -0.000708239924541469
The angle: 90.0405791619515
Setting atom values ...
  1 settings made for x
  1 settings made for y
  1 settings made for z
Setting up cg style minimization ...
  Unit style    : metal
  Current step  : 4958
Per MPI rank memory allocation (min/avg/max) = 5.441 | 5.816 | 6.074 Mbytes
Step PotEng KinEng TotEng v_fx v_fy v_fz 
    4958   -1152448.6            0   -1152448.6 0.0022049181  0.007357989  -0.01088495 
    5000   -1152448.6            0   -1152448.6 -1.1285459e-05 -1.1003206e-05 -3.0216161e-05 
    5202   -1152448.6            0   -1152448.6 3.7487162e-07  5.84893e-07 2.9647889e-07 
Loop time of 2.88697 on 104 procs for 244 steps with 288751 atoms

99.9% CPU use with 104 MPI tasks x 1 OpenMP threads

Minimization stats:
  Stopping criterion = energy tolerance
  Energy initial, next-to-last, final = 
     -1152448.62690433  -1152448.63210358  -1152448.63210358
  Force two-norm initial, final = 0.37004761 4.2012504e-05
  Force max component initial, final = 0.2874275 1.5223809e-05
  Final line search alpha, max atom move = 1.0000000 1.5223809e-05
  Iterations, force evaluations = 244 488

MPI task timing breakdown:
Section |  min time  |  avg time  |  max time  |%varavg| %total
---------------------------------------------------------------
Pair    | 0.73967    | 2.0574     | 2.7262     |  38.6 | 71.26
Neigh   | 0          | 0          | 0          |   0.0 |  0.00
Comm    | 0.046915   | 0.47337    | 1.4011     |  55.8 | 16.40
Output  | 0.0001032  | 0.00010625 | 0.00021759 |   0.0 |  0.00
Modify  | 3.02e-05   | 0.0040169  | 0.0086072  |   3.0 |  0.14
Other   |            | 0.3521     |            |       | 12.20

Nlocal:        2776.45 ave        3930 max           0 min
Histogram: 8 4 4 0 4 12 8 0 26 38
Nghost:        3878.96 ave        5426 max         232 min
Histogram: 8 0 8 0 16 0 8 8 16 40
Neighs:        79213.1 ave      114461 max           0 min
Histogram: 8 4 4 0 8 8 8 8 20 36

Total # of neighbors = 8238163
Ave neighs/atom = 28.530336
Neighbor list builds = 0
Dangerous builds = 0
The dot product: -3.9244033932604e-10
The cos of the angle between the force vector and the displacement vector: -0.000519559215264651
The angle: 90.0297685515813
Setting up cg style minimization ...
  Unit style    : metal
  Current step  : 5202
Per MPI rank memory allocation (min/avg/max) = 5.441 | 5.816 | 6.074 Mbytes
Step PotEng KinEng TotEng v_fx v_fy v_fz 
    5202   -1152448.6            0   -1152448.6    -1.763281   0.97656301    0.3029548 
    5496   -1152449.5            0   -1152449.5 -4.0157223e-06 -4.7455768e-06 -5.6167366e-06 
Loop time of 3.48792 on 104 procs for 294 steps with 288751 atoms

99.9% CPU use with 104 MPI tasks x 1 OpenMP threads

Minimization stats:
  Stopping criterion = energy tolerance
  Energy initial, next-to-last, final = 
     -1152448.63210358  -1152449.45035261  -1152449.45035261
  Force two-norm initial, final = 2.0382877 4.6716734e-05
  Force max component initial, final = 1.7632810 1.1884989e-05
  Final line search alpha, max atom move = 1.0000000 1.1884989e-05
  Iterations, force evaluations = 294 583

MPI task timing breakdown:
Section |  min time  |  avg time  |  max time  |%varavg| %total
---------------------------------------------------------------
Pair    | 0.90138    | 2.4727     | 3.2164     |  42.1 | 70.89
Neigh   | 5.0186e-05 | 0.014817   | 0.021388   |   5.0 |  0.42
Comm    | 0.054437   | 0.56613    | 1.6785     |  61.8 | 16.23
Output  | 0          | 0          | 0          |   0.0 |  0.00
Modify  | 3.165e-05  | 0.0031434  | 0.0081685  |   3.5 |  0.09
Other   |            | 0.4311     |            |       | 12.36

Nlocal:        2776.45 ave        3931 max           0 min
Histogram: 8 4 4 0 4 12 8 0 26 38
Nghost:        3878.87 ave        5426 max         232 min
Histogram: 8 0 8 0 16 0 8 8 16 40
Neighs:        79213.4 ave      114512 max           0 min
Histogram: 8 4 4 0 8 8 8 8 20 36

Total # of neighbors = 8238192
Ave neighs/atom = 28.530436
Neighbor list builds = 5
Dangerous builds = 0
