LAMMPS (29 Oct 2020)
OMP_NUM_THREADS environment is not set. Defaulting to 1 thread. (../comm.cpp:94)
  using 1 OpenMP thread(s) per MPI task
Reading data file ...
  orthogonal box = (-122.39241 -121.13707 -37.090501) to (122.39241 121.13707 37.090501)
  13 by 4 by 1 MPI processor grid
  reading atoms ...
  288751 atoms
  read_data CPU = 0.442 seconds
199981 atoms in group inner
88770 atoms in group outer
1 atoms in group carbon
Neighbor list info ...
  update every 1 steps, delay 0 steps, check yes
  max neighbors/atom: 2000, page size: 100000
  master list distance cutoff = 5.6
  ghost atom cutoff = 5.6
  binsize = 2.8, bins = 88 87 27
  1 neighbor lists, perpetual/occasional/extra = 1 0 0
  (1) pair eam/alloy, perpetual
      attributes: half, newton on
      pair build: half/bin/atomonly/newton
      stencil: half/bin/3d/newton
      bin: standard
Setting up cg style minimization ...
  Unit style    : metal
  Current step  : 0
Per MPI rank memory allocation (min/avg/max) = 5.465 | 6.344 | 6.728 Mbytes
Step v_fx v_fy v_fz PotEng KinEng TotEng 
       0    26.470624    14.973488    50.537746   -1152433.3            0   -1152433.3 
     171 -2.4418147e-05 7.1947615e-07 -4.1166187e-05   -1152449.5            0   -1152449.5 
Loop time of 3.77389 on 52 procs for 171 steps with 288751 atoms

99.8% CPU use with 52 MPI tasks x 1 OpenMP threads

Minimization stats:
  Stopping criterion = linesearch alpha is zero
  Energy initial, next-to-last, final = 
     -1152433.25034129  -1152449.45035283  -1152449.45035283
  Force two-norm initial, final = 88.285849 0.00014864464
  Force max component initial, final = 57.561983 4.1166187e-05
  Final line search alpha, max atom move = 0.5 2.0583093e-05
  Iterations, force evaluations = 171 335

MPI task timing breakdown:
Section |  min time  |  avg time  |  max time  |%varavg| %total
---------------------------------------------------------------
Pair    | 0.99851    | 2.7026     | 3.5308     |  44.6 | 71.61
Neigh   | 9.4692e-05 | 0.032096   | 0.045043   |   7.6 |  0.85
Comm    | 0.058038   | 0.6071     | 1.8869     |  68.5 | 16.09
Output  | 0          | 0          | 0          |   0.0 |  0.00
Modify  | 6.325e-05  | 0.0037101  | 0.0095417  |   3.8 |  0.10
Other   |            | 0.4284     |            |       | 11.35

Nlocal:        5552.90 ave        7913 max           0 min
Histogram: 4 2 2 0 2 6 4 1 14 17
Nghost:        6213.54 ave        8769 max         412 min
Histogram: 4 0 4 0 8 0 4 5 7 20
Neighs:       158427.0 ave      230665 max           0 min
Histogram: 4 2 2 0 5 3 4 4 12 16

Total # of neighbors = 8238212
Ave neighs/atom = 28.530506
Neighbor list builds = 5
Dangerous builds = 0
1.58 2.25 -27.13 2.3428525092433 2.01217768896806 -26.6146658729994
Total wall time: 0:00:04
