LAMMPS (29 Oct 2020)
OMP_NUM_THREADS environment is not set. Defaulting to 1 thread. (../comm.cpp:94)
  using 1 OpenMP thread(s) per MPI task
OMP_NUM_THREADS environment is not set. Defaulting to 1 thread. (../comm.cpp:94)
  using 1 OpenMP thread(s) per MPI task
Reading data file ...
  orthogonal box = (-122.39241 -121.13707 -37.090501) to (122.39241 121.13707 37.090501)
  13 by 4 by 1 MPI processor grid
  reading atoms ...
  288751 atoms
  read_data CPU = 0.449 seconds
199981 atoms in group inner
88770 atoms in group outer
1 atoms in group carbon
Neighbor list info ...
  update every 1 steps, delay 0 steps, check yes
  max neighbors/atom: 2000, page size: 100000
  master list distance cutoff = 5.6
  ghost atom cutoff = 5.6
  binsize = 2.8, bins = 88 87 27
  1 neighbor lists, perpetual/occasional/extra = 1 0 0
  (1) pair eam/alloy, perpetual
      attributes: half, newton on
      pair build: half/bin/atomonly/newton
      stencil: half/bin/3d/newton
      bin: standard
Setting up cg style minimization ...
  Unit style    : metal
  Current step  : 0
Per MPI rank memory allocation (min/avg/max) = 5.465 | 6.344 | 6.728 Mbytes
Step v_fx v_fy v_fz PotEng KinEng TotEng 
       0   0.52319078   0.23426482   0.35589558   -1152447.8            0   -1152447.8 
     157 -5.6827389e-06 7.5385994e-06 -3.0025276e-05   -1152449.5            0   -1152449.5 
Loop time of 3.47077 on 52 procs for 157 steps with 288751 atoms

99.8% CPU use with 52 MPI tasks x 1 OpenMP threads

Minimization stats:
  Stopping criterion = linesearch alpha is zero
  Energy initial, next-to-last, final = 
     -1152447.83999655   -1152449.4503527   -1152449.4503527
  Force two-norm initial, final = 9.7346904 0.00015070375
  Force max component initial, final = 4.2343420 3.7128878e-05
  Final line search alpha, max atom move = 0.5 1.8564439e-05
  Iterations, force evaluations = 157 314

MPI task timing breakdown:
Section |  min time  |  avg time  |  max time  |%varavg| %total
---------------------------------------------------------------
Pair    | 0.91759    | 2.5115     | 3.3002     |  43.3 | 72.36
Neigh   | 6.0951e-05 | 0.013018   | 0.019962   |   4.9 |  0.38
Comm    | 0.04491    | 0.55895    | 1.7725     |  66.9 | 16.10
Output  | 0          | 0          | 0          |   0.0 |  0.00
Modify  | 4.7292e-05 | 0.0034716  | 0.0088072  |   3.7 |  0.10
Other   |            | 0.3838     |            |       | 11.06

Nlocal:        5552.90 ave        7916 max           0 min
Histogram: 4 2 2 0 2 6 4 1 14 17
Nghost:        6213.54 ave        8769 max         412 min
Histogram: 4 0 4 0 8 0 4 5 7 20
Neighs:       158427.0 ave      230740 max           0 min
Histogram: 4 2 2 0 5 3 4 4 12 16

Total # of neighbors = 8238197
Ave neighs/atom = 28.530454
Neighbor list builds = 2
Dangerous builds = 1
Setting atom values ...
  1 settings made for x
  1 settings made for y
  1 settings made for z
Setting up cg style minimization ...
  Unit style    : metal
  Current step  : 157
Per MPI rank memory allocation (min/avg/max) = 5.465 | 6.344 | 6.728 Mbytes
Step PotEng KinEng TotEng v_fx v_fy v_fz 
     157   -1152449.4            0   -1152449.4  0.039888775 0.0093236283 -0.052240955 
     337   -1152449.4            0   -1152449.4 1.4445905e-05 -1.6579924e-05 -5.6807844e-05 
Loop time of 3.94163 on 52 procs for 180 steps with 288751 atoms

99.9% CPU use with 52 MPI tasks x 1 OpenMP threads

Minimization stats:
  Stopping criterion = energy tolerance
  Energy initial, next-to-last, final = 
     -1152449.44472911  -1152449.44870496  -1152449.44870496
  Force two-norm initial, final = 0.30398659 0.00017813151
  Force max component initial, final = 0.1471056 5.6807844e-05
  Final line search alpha, max atom move = 1.0000000 5.6807844e-05
  Iterations, force evaluations = 180 360

MPI task timing breakdown:
Section |  min time  |  avg time  |  max time  |%varavg| %total
---------------------------------------------------------------
Pair    | 1.0211     | 2.867      | 3.7698     |  46.9 | 72.74
Neigh   | 0          | 0          | 0          |   0.0 |  0.00
Comm    | 0.056344   | 0.62932    | 1.9931     |  72.0 | 15.97
Output  | 0          | 0          | 0          |   0.0 |  0.00
Modify  | 6.7108e-05 | 0.0060655  | 0.012866   |   3.6 |  0.15
Other   |            | 0.4392     |            |       | 11.14

Nlocal:        5552.90 ave        7913 max           0 min
Histogram: 4 2 2 0 2 6 4 1 14 17
Nghost:        6213.54 ave        8769 max         412 min
Histogram: 4 0 4 0 8 0 4 5 7 20
Neighs:       158427.0 ave      230672 max           0 min
Histogram: 4 2 2 0 5 3 4 4 12 16

Total # of neighbors = 8238198
Ave neighs/atom = 28.530457
Neighbor list builds = 0
Dangerous builds = 0
Setting atom values ...
  1 settings made for x
  1 settings made for y
  1 settings made for z
Setting up cg style minimization ...
  Unit style    : metal
  Current step  : 337
Per MPI rank memory allocation (min/avg/max) = 5.465 | 6.344 | 6.728 Mbytes
Step PotEng KinEng TotEng v_fx v_fy v_fz 
     337   -1152449.4            0   -1152449.4  0.035818401  0.022090786 -0.047005898 
     464   -1152449.4            0   -1152449.4 -1.9763048e-06 -2.0663152e-06 5.0098027e-07 
Loop time of 2.76571 on 52 procs for 127 steps with 288751 atoms

99.9% CPU use with 52 MPI tasks x 1 OpenMP threads

Minimization stats:
  Stopping criterion = linesearch alpha is zero
  Energy initial, next-to-last, final = 
     -1152449.44388091  -1152449.44575875  -1152449.44575875
  Force two-norm initial, final = 0.20980957 0.0001295893
  Force max component initial, final = 0.096630726 2.1569942e-05
  Final line search alpha, max atom move = 0.5 1.0784971e-05
  Iterations, force evaluations = 127 255

MPI task timing breakdown:
Section |  min time  |  avg time  |  max time  |%varavg| %total
---------------------------------------------------------------
Pair    | 0.72054    | 2.0229     | 2.6535     |  39.4 | 73.14
Neigh   | 0          | 0          | 0          |   0.0 |  0.00
Comm    | 0.033658   | 0.44292    | 1.4115     |  60.8 | 16.01
Output  | 0          | 0          | 0          |   0.0 |  0.00
Modify  | 3.6755e-05 | 0.0042731  | 0.0089539  |   3.0 |  0.15
Other   |            | 0.2956     |            |       | 10.69

Nlocal:        5552.90 ave        7912 max           0 min
Histogram: 4 2 2 0 2 6 4 0 15 17
Nghost:        6213.54 ave        8769 max         412 min
Histogram: 4 0 4 0 8 0 4 5 7 20
Neighs:       158427.0 ave      230635 max           0 min
Histogram: 4 2 2 0 5 3 4 4 12 16

Total # of neighbors = 8238201
Ave neighs/atom = 28.530467
Neighbor list builds = 0
Dangerous builds = 0
The dot product: -1.42245288091195e-08
Setting atom values ...
  1 settings made for x
  1 settings made for y
  1 settings made for z
Setting up cg style minimization ...
  Unit style    : metal
  Current step  : 464
Per MPI rank memory allocation (min/avg/max) = 5.465 | 6.344 | 6.728 Mbytes
Step PotEng KinEng TotEng v_fx v_fy v_fz 
     464   -1152449.4            0   -1152449.4   0.03405988  0.032550796 -0.046190666 
     591   -1152449.4            0   -1152449.4 4.0622975e-06 -2.4167828e-06 -2.5868711e-05 
Loop time of 2.79799 on 52 procs for 127 steps with 288751 atoms

99.9% CPU use with 52 MPI tasks x 1 OpenMP threads

Minimization stats:
  Stopping criterion = linesearch alpha is zero
  Energy initial, next-to-last, final = 
     -1152449.43953408  -1152449.44134136  -1152449.44134136
  Force two-norm initial, final = 0.20561057 0.00010551478
  Force max component initial, final = 0.09123151 2.5868711e-05
  Final line search alpha, max atom move = 0.5 1.2934356e-05
  Iterations, force evaluations = 127 255

MPI task timing breakdown:
Section |  min time  |  avg time  |  max time  |%varavg| %total
---------------------------------------------------------------
Pair    | 0.72039    | 2.0344     | 2.6789     |  39.7 | 72.71
Neigh   | 0          | 0          | 0          |   0.0 |  0.00
Comm    | 0.03489    | 0.44697    | 1.432      |  61.2 | 15.97
Output  | 0          | 0          | 0          |   0.0 |  0.00
Modify  | 3.5433e-05 | 0.0042671  | 0.0089913  |   3.0 |  0.15
Other   |            | 0.3124     |            |       | 11.17

Nlocal:        5552.90 ave        7911 max           0 min
Histogram: 4 2 2 0 2 6 4 0 15 17
Nghost:        6213.54 ave        8769 max         412 min
Histogram: 4 0 4 0 8 0 4 5 7 20
Neighs:       158427.0 ave      230599 max           0 min
Histogram: 4 2 2 0 5 3 4 4 12 16

Total # of neighbors = 8238204
Ave neighs/atom = 28.530478
Neighbor list builds = 0
Dangerous builds = 0
The dot product: 1.01165857780077e-07
Setting atom values ...
  1 settings made for x
  1 settings made for y
  1 settings made for z
Setting up cg style minimization ...
  Unit style    : metal
  Current step  : 591
Per MPI rank memory allocation (min/avg/max) = 5.465 | 6.344 | 6.728 Mbytes
Step PotEng KinEng TotEng v_fx v_fy v_fz 
     591   -1152449.4            0   -1152449.4   0.03078618  0.039048542 -0.042562818 
     710   -1152449.4            0   -1152449.4 5.4847102e-06 -5.0140901e-06 -5.793038e-05 
Loop time of 2.64281 on 52 procs for 119 steps with 288751 atoms

99.9% CPU use with 52 MPI tasks x 1 OpenMP threads

Minimization stats:
  Stopping criterion = linesearch alpha is zero
  Energy initial, next-to-last, final = 
     -1152449.43366871  -1152449.43540841  -1152449.43540841
  Force two-norm initial, final = 0.20104959 0.00017101138
  Force max component initial, final = 0.086299431 5.7930380e-05
  Final line search alpha, max atom move = 0.25 1.4482595e-05
  Iterations, force evaluations = 119 243

MPI task timing breakdown:
Section |  min time  |  avg time  |  max time  |%varavg| %total
---------------------------------------------------------------
Pair    | 0.68961    | 1.9303     | 2.5296     |  38.4 | 73.04
Neigh   | 0          | 0          | 0          |   0.0 |  0.00
Comm    | 0.03649    | 0.42267    | 1.3437     |  59.4 | 15.99
Output  | 0          | 0          | 0          |   0.0 |  0.00
Modify  | 4.2721e-05 | 0.0040771  | 0.0086241  |   3.0 |  0.15
Other   |            | 0.2857     |            |       | 10.81

Nlocal:        5552.90 ave        7910 max           0 min
Histogram: 4 2 2 0 2 6 4 0 15 17
Nghost:        6213.54 ave        8769 max         412 min
Histogram: 4 0 4 0 8 0 4 5 7 20
Neighs:       158427.0 ave      230558 max           0 min
Histogram: 4 2 2 0 5 3 4 4 12 16

Total # of neighbors = 8238202
Ave neighs/atom = 28.530471
Neighbor list builds = 0
Dangerous builds = 0
The dot product: 1.84294636560637e-07
Setting atom values ...
  1 settings made for x
  1 settings made for y
  1 settings made for z
Setting up cg style minimization ...
  Unit style    : metal
  Current step  : 710
Per MPI rank memory allocation (min/avg/max) = 5.465 | 6.344 | 6.728 Mbytes
Step PotEng KinEng TotEng v_fx v_fy v_fz 
     710   -1152449.4            0   -1152449.4  0.027822823  0.043287186 -0.038812395 
     835   -1152449.4            0   -1152449.4 -7.0990701e-06 -5.602492e-06 3.9364378e-05 
Loop time of 2.73688 on 52 procs for 125 steps with 288751 atoms

99.9% CPU use with 52 MPI tasks x 1 OpenMP threads

Minimization stats:
  Stopping criterion = energy tolerance
  Energy initial, next-to-last, final = 
     -1152449.42623534  -1152449.42792125  -1152449.42792125
  Force two-norm initial, final = 0.19699418 0.00014230972
  Force max component initial, final = 0.082104785 3.9364378e-05
  Final line search alpha, max atom move = 1.0000000 3.9364378e-05
  Iterations, force evaluations = 125 252

MPI task timing breakdown:
Section |  min time  |  avg time  |  max time  |%varavg| %total
---------------------------------------------------------------
Pair    | 0.71277    | 2.0022     | 2.6277     |  39.2 | 73.16
Neigh   | 0          | 0          | 0          |   0.0 |  0.00
Comm    | 0.033823   | 0.43632    | 1.3916     |  60.5 | 15.94
Output  | 0          | 0          | 0          |   0.0 |  0.00
Modify  | 3.9809e-05 | 0.0042229  | 0.00887    |   3.0 |  0.15
Other   |            | 0.2941     |            |       | 10.75

Nlocal:        5552.90 ave        7907 max           0 min
Histogram: 4 2 2 0 2 6 4 0 15 17
Nghost:        6213.54 ave        8769 max         412 min
Histogram: 4 0 4 0 8 0 4 5 7 20
Neighs:       158427.0 ave      230443 max           0 min
Histogram: 4 2 2 0 5 3 4 4 12 16

Total # of neighbors = 8238199
Ave neighs/atom = 28.530461
Neighbor list builds = 0
Dangerous builds = 0
The dot product: -1.51398764235145e-07
Setting atom values ...
  1 settings made for x
  1 settings made for y
  1 settings made for z
Setting up cg style minimization ...
  Unit style    : metal
  Current step  : 835
Per MPI rank memory allocation (min/avg/max) = 5.465 | 6.344 | 6.728 Mbytes
Step PotEng KinEng TotEng v_fx v_fy v_fz 
     835   -1152449.4            0   -1152449.4  0.025560311   0.04664145  -0.03611025 
     943   -1152449.4            0   -1152449.4 1.4191895e-05 1.9475985e-05 -6.4520552e-05 
Loop time of 2.34468 on 52 procs for 108 steps with 288751 atoms

99.9% CPU use with 52 MPI tasks x 1 OpenMP threads

Minimization stats:
  Stopping criterion = energy tolerance
  Energy initial, next-to-last, final = 
     -1152449.41720914  -1152449.41885376  -1152449.41885376
  Force two-norm initial, final = 0.19365108 0.00026376101
  Force max component initial, final = 0.07842925 6.4520552e-05
  Final line search alpha, max atom move = 1.0000000 6.4520552e-05
  Iterations, force evaluations = 108 216

MPI task timing breakdown:
Section |  min time  |  avg time  |  max time  |%varavg| %total
---------------------------------------------------------------
Pair    | 0.61052    | 1.7146     | 2.2512     |  36.3 | 73.13
Neigh   | 0          | 0          | 0          |   0.0 |  0.00
Comm    | 0.029691   | 0.37493    | 1.1957     |  56.3 | 15.99
Output  | 0          | 0          | 0          |   0.0 |  0.00
Modify  | 3.5643e-05 | 0.0036152  | 0.0076221  |   2.8 |  0.15
Other   |            | 0.2515     |            |       | 10.73

Nlocal:        5552.90 ave        7906 max           0 min
Histogram: 4 2 2 0 2 6 4 0 15 17
Nghost:        6213.54 ave        8769 max         412 min
Histogram: 4 0 4 0 8 0 4 5 7 20
Neighs:       158427.0 ave      230410 max           0 min
Histogram: 4 2 2 0 5 3 4 4 12 16

Total # of neighbors = 8238201
Ave neighs/atom = 28.530467
Neighbor list builds = 0
Dangerous builds = 0
The dot product: 2.78167921182458e-07
Setting atom values ...
  1 settings made for x
  1 settings made for y
  1 settings made for z
Setting up cg style minimization ...
  Unit style    : metal
  Current step  : 943
Per MPI rank memory allocation (min/avg/max) = 5.465 | 6.344 | 6.728 Mbytes
Step PotEng KinEng TotEng v_fx v_fy v_fz 
     943   -1152449.4            0   -1152449.4  0.023986897  0.050056638 -0.035168157 
    1000   -1152449.4            0   -1152449.4 -7.5160904e-05 -0.00012892007 0.00036061137 
    1062   -1152449.4            0   -1152449.4 3.9295167e-06 1.5052273e-05 5.5676818e-05 
Loop time of 2.61115 on 52 procs for 119 steps with 288751 atoms

99.8% CPU use with 52 MPI tasks x 1 OpenMP threads

Minimization stats:
  Stopping criterion = energy tolerance
  Energy initial, next-to-last, final = 
     -1152449.40657872  -1152449.40819444  -1152449.40819444
  Force two-norm initial, final = 0.19119709 0.00019648475
  Force max component initial, final = 0.075206864 5.5676818e-05
  Final line search alpha, max atom move = 1.0000000 5.5676818e-05
  Iterations, force evaluations = 119 238

MPI task timing breakdown:
Section |  min time  |  avg time  |  max time  |%varavg| %total
---------------------------------------------------------------
Pair    | 0.67478    | 1.8982     | 2.4985     |  38.1 | 72.70
Neigh   | 0          | 0          | 0          |   0.0 |  0.00
Comm    | 0.034306   | 0.41541    | 1.3121     |  58.6 | 15.91
Output  | 0.00020532 | 0.00020978 | 0.00035001 |   0.0 |  0.01
Modify  | 3.848e-05  | 0.0040138  | 0.008479   |   3.0 |  0.15
Other   |            | 0.2933     |            |       | 11.23

Nlocal:        5552.90 ave        7904 max           0 min
Histogram: 4 2 2 0 2 6 4 0 15 17
Nghost:        6213.54 ave        8769 max         412 min
Histogram: 4 0 4 0 8 0 4 5 7 20
Neighs:       158427.0 ave      230356 max           0 min
Histogram: 4 2 2 0 5 3 4 4 12 16

Total # of neighbors = 8238201
Ave neighs/atom = 28.530467
Neighbor list builds = 0
Dangerous builds = 0
The dot product: -4.29038677573977e-08
Setting atom values ...
  1 settings made for x
  1 settings made for y
  1 settings made for z
Setting up cg style minimization ...
  Unit style    : metal
  Current step  : 1062
Per MPI rank memory allocation (min/avg/max) = 5.465 | 6.344 | 6.728 Mbytes
Step PotEng KinEng TotEng v_fx v_fy v_fz 
    1062   -1152449.4            0   -1152449.4  0.022930726  0.054257021 -0.035804721 
    1216   -1152449.4            0   -1152449.4 -9.4653945e-08 2.1775562e-06 2.9908243e-05 
Loop time of 3.34397 on 52 procs for 154 steps with 288751 atoms

99.9% CPU use with 52 MPI tasks x 1 OpenMP threads

Minimization stats:
  Stopping criterion = linesearch alpha is zero
  Energy initial, next-to-last, final = 
     -1152449.39434915  -1152449.39594901  -1152449.39594901
  Force two-norm initial, final = 0.18944523 0.00012013589
  Force max component initial, final = 0.071857895 2.9908243e-05
  Final line search alpha, max atom move = 0.5 1.4954122e-05
  Iterations, force evaluations = 154 309

MPI task timing breakdown:
Section |  min time  |  avg time  |  max time  |%varavg| %total
---------------------------------------------------------------
Pair    | 0.87418    | 2.4505     | 3.2103     |  43.3 | 73.28
Neigh   | 0          | 0          | 0          |   0.0 |  0.00
Comm    | 0.042353   | 0.53492    | 1.7083     |  67.3 | 16.00
Output  | 0          | 0          | 0          |   0.0 |  0.00
Modify  | 5.1179e-05 | 0.0051757  | 0.010981   |   3.4 |  0.15
Other   |            | 0.3534     |            |       | 10.57

Nlocal:        5552.90 ave        7902 max           0 min
Histogram: 4 2 2 0 2 6 4 0 15 17
Nghost:        6213.54 ave        8769 max         412 min
Histogram: 4 0 4 0 8 0 4 5 7 20
Neighs:       158427.0 ave      230300 max           0 min
Histogram: 4 2 2 0 5 3 4 4 12 16

Total # of neighbors = 8238197
Ave neighs/atom = 28.530454
Neighbor list builds = 0
Dangerous builds = 0
The dot product: -6.16807892288755e-08
Setting atom values ...
  1 settings made for x
  1 settings made for y
  1 settings made for z
Setting up cg style minimization ...
  Unit style    : metal
  Current step  : 1216
Per MPI rank memory allocation (min/avg/max) = 5.465 | 6.344 | 6.728 Mbytes
Step PotEng KinEng TotEng v_fx v_fy v_fz 
    1216   -1152449.4            0   -1152449.4  0.022247383   0.06003972 -0.038501033 
    1338   -1152449.4            0   -1152449.4 5.5008389e-06 1.4454924e-05 -1.8028339e-05 
Loop time of 2.66937 on 52 procs for 122 steps with 288751 atoms

99.9% CPU use with 52 MPI tasks x 1 OpenMP threads

Minimization stats:
  Stopping criterion = energy tolerance
  Energy initial, next-to-last, final = 
     -1152449.38054533  -1152449.38215132  -1152449.38215132
  Force two-norm initial, final = 0.1887913 0.00019282296
  Force max component initial, final = 0.068266095 3.2912832e-05
  Final line search alpha, max atom move = 1.0000000 3.2912832e-05
  Iterations, force evaluations = 122 244

MPI task timing breakdown:
Section |  min time  |  avg time  |  max time  |%varavg| %total
---------------------------------------------------------------
Pair    | 0.68829    | 1.9457     | 2.564      |  38.8 | 72.89
Neigh   | 0          | 0          | 0          |   0.0 |  0.00
Comm    | 0.032843   | 0.42639    | 1.3593     |  59.9 | 15.97
Output  | 0          | 0          | 0          |   0.0 |  0.00
Modify  | 4.2436e-05 | 0.0040835  | 0.0086079  |   3.0 |  0.15
Other   |            | 0.2932     |            |       | 10.98

Nlocal:        5552.90 ave        7902 max           0 min
Histogram: 4 2 2 0 2 6 4 0 15 17
Nghost:        6213.54 ave        8769 max         412 min
Histogram: 4 0 4 0 8 0 4 5 7 20
Neighs:       158427.0 ave      230292 max           0 min
Histogram: 4 2 2 0 5 3 4 4 12 16

Total # of neighbors = 8238198
Ave neighs/atom = 28.530457
Neighbor list builds = 0
Dangerous builds = 0
The dot product: 1.70768469264313e-07
Setting atom values ...
  1 settings made for x
  1 settings made for y
  1 settings made for z
Setting up cg style minimization ...
  Unit style    : metal
  Current step  : 1338
Per MPI rank memory allocation (min/avg/max) = 5.465 | 6.344 | 6.728 Mbytes
Step PotEng KinEng TotEng v_fx v_fy v_fz 
    1338   -1152449.4            0   -1152449.4  0.022075186  0.069823954  -0.04542251 
    1483   -1152449.4            0   -1152449.4 8.6132896e-06 2.7189626e-05 -7.2901822e-07 
Loop time of 3.17592 on 52 procs for 145 steps with 288751 atoms

99.9% CPU use with 52 MPI tasks x 1 OpenMP threads

Minimization stats:
  Stopping criterion = linesearch alpha is zero
  Energy initial, next-to-last, final = 
     -1152449.36523657  -1152449.36693742  -1152449.36693742
  Force two-norm initial, final = 0.19067634 0.00018979768
  Force max component initial, final = 0.069823954 3.1460028e-05
  Final line search alpha, max atom move = 0.25 7.8650070e-06
  Iterations, force evaluations = 145 293

MPI task timing breakdown:
Section |  min time  |  avg time  |  max time  |%varavg| %total
---------------------------------------------------------------
Pair    | 0.82744    | 2.3262     | 3.0437     |  42.2 | 73.25
Neigh   | 0          | 0          | 0          |   0.0 |  0.00
Comm    | 0.038484   | 0.50869    | 1.6216     |  65.3 | 16.02
Output  | 0          | 0          | 0          |   0.0 |  0.00
Modify  | 4.6099e-05 | 0.0048959  | 0.010372   |   3.3 |  0.15
Other   |            | 0.3361     |            |       | 10.58

Nlocal:        5552.90 ave        7902 max           0 min
Histogram: 4 2 2 0 2 6 4 0 15 17
Nghost:        6213.54 ave        8769 max         412 min
Histogram: 4 0 4 0 8 0 4 5 7 20
Neighs:       158427.0 ave      230292 max           0 min
Histogram: 4 2 2 0 5 3 4 4 12 16

Total # of neighbors = 8238196
Ave neighs/atom = 28.530450
Neighbor list builds = 0
Dangerous builds = 0
The dot product: 3.19029405402374e-07
Setting atom values ...
  1 settings made for x
  1 settings made for y
  1 settings made for z
Setting up cg style minimization ...
  Unit style    : metal
  Current step  : 1483
Per MPI rank memory allocation (min/avg/max) = 5.465 | 6.344 | 6.728 Mbytes
Step PotEng KinEng TotEng v_fx v_fy v_fz 
    1483   -1152449.3            0   -1152449.3  0.022102114    0.0924558 -0.064472037 
    1656   -1152449.4            0   -1152449.4 1.0999156e-05 3.729518e-05 4.2970339e-05 
Loop time of 3.77122 on 52 procs for 173 steps with 288751 atoms

99.9% CPU use with 52 MPI tasks x 1 OpenMP threads

Minimization stats:
  Stopping criterion = energy tolerance
  Energy initial, next-to-last, final = 
      -1152449.3487719  -1152449.35244111  -1152449.35244111
  Force two-norm initial, final = 0.20207903 0.00027393189
  Force max component initial, final = 0.0924558 5.1336319e-05
  Final line search alpha, max atom move = 1.0000000 5.1336319e-05
  Iterations, force evaluations = 173 346

MPI task timing breakdown:
Section |  min time  |  avg time  |  max time  |%varavg| %total
---------------------------------------------------------------
Pair    | 0.98017    | 2.7514     | 3.6096     |  45.8 | 72.96
Neigh   | 0          | 0          | 0          |   0.0 |  0.00
Comm    | 0.046956   | 0.60212    | 1.9175     |  71.1 | 15.97
Output  | 0          | 0          | 0          |   0.0 |  0.00
Modify  | 5.9551e-05 | 0.0057776  | 0.012191   |   3.6 |  0.15
Other   |            | 0.4119     |            |       | 10.92

Nlocal:        5552.90 ave        7903 max           0 min
Histogram: 4 2 2 0 2 6 4 0 15 17
Nghost:        6213.54 ave        8769 max         412 min
Histogram: 4 0 4 0 8 0 4 5 7 20
Neighs:       158427.0 ave      230313 max           0 min
Histogram: 4 2 2 0 5 3 4 4 12 16

Total # of neighbors = 8238191
Ave neighs/atom = 28.530433
Neighbor list builds = 0
Dangerous builds = 0
The dot product: 2.33590834516702e-07
Setting atom values ...
  1 settings made for x
  1 settings made for y
  1 settings made for z
Setting up cg style minimization ...
  Unit style    : metal
  Current step  : 1656
Per MPI rank memory allocation (min/avg/max) = 5.465 | 6.344 | 6.728 Mbytes
Step PotEng KinEng TotEng v_fx v_fy v_fz 
    1656   -1152449.3            0   -1152449.3 -0.017529591   0.20532149  -0.14579717 
    1888   -1152449.3            0   -1152449.3 -2.0051728e-06 6.8119815e-06 -1.2334922e-05 
Loop time of 5.09095 on 52 procs for 232 steps with 288751 atoms

99.8% CPU use with 52 MPI tasks x 1 OpenMP threads

Minimization stats:
  Stopping criterion = linesearch alpha is zero
  Energy initial, next-to-last, final = 
      -1152449.3367689  -1152449.34713181  -1152449.34713181
  Force two-norm initial, final = 0.29416839 7.8346926e-05
  Force max component initial, final = 0.20532149 1.7670711e-05
  Final line search alpha, max atom move = 0.5 8.8353555e-06
  Iterations, force evaluations = 232 465

MPI task timing breakdown:
Section |  min time  |  avg time  |  max time  |%varavg| %total
---------------------------------------------------------------
Pair    | 1.3222     | 3.6957     | 4.8474     |  53.1 | 72.59
Neigh   | 1.8778e-05 | 0.005737   | 0.0085079  |   3.2 |  0.11
Comm    | 0.066862   | 0.81227    | 2.568      |  81.8 | 15.96
Output  | 0          | 0          | 0          |   0.0 |  0.00
Modify  | 6.5719e-05 | 0.0077544  | 0.016514   |   4.1 |  0.15
Other   |            | 0.5695     |            |       | 11.19

Nlocal:        5552.90 ave        7912 max           0 min
Histogram: 4 2 2 0 2 6 4 0 15 17
Nghost:        6213.54 ave        8769 max         412 min
Histogram: 4 0 4 0 8 0 4 5 7 20
Neighs:       158427.0 ave      230612 max           0 min
Histogram: 4 2 2 0 5 3 4 4 12 16

Total # of neighbors = 8238194
Ave neighs/atom = 28.530443
Neighbor list builds = 1
Dangerous builds = 0
The dot product: 9.42284682856902e-07
Setting atom values ...
  1 settings made for x
  1 settings made for y
  1 settings made for z
Setting up cg style minimization ...
  Unit style    : metal
  Current step  : 1888
Per MPI rank memory allocation (min/avg/max) = 5.465 | 6.344 | 6.728 Mbytes
Step PotEng KinEng TotEng v_fx v_fy v_fz 
    1888   -1152449.3            0   -1152449.3 -0.070241681   0.18041022 -0.089990272 
    2000   -1152449.3            0   -1152449.3 -8.1752532e-05 -5.4728372e-05 -0.00026762604 
    2032   -1152449.3            0   -1152449.3 7.149916e-06 1.9887244e-05 3.2698527e-05 
Loop time of 3.1702 on 52 procs for 144 steps with 288751 atoms

99.9% CPU use with 52 MPI tasks x 1 OpenMP threads

Minimization stats:
  Stopping criterion = linesearch alpha is zero
  Energy initial, next-to-last, final = 
      -1152449.3342858  -1152449.34121459  -1152449.34121459
  Force two-norm initial, final = 0.25416887 0.00021126898
  Force max component initial, final = 0.18041022 4.2094739e-05
  Final line search alpha, max atom move = 0.25 1.0523685e-05
  Iterations, force evaluations = 144 291

MPI task timing breakdown:
Section |  min time  |  avg time  |  max time  |%varavg| %total
---------------------------------------------------------------
Pair    | 0.82478    | 2.313      | 3.0396     |  42.1 | 72.96
Neigh   | 0          | 0          | 0          |   0.0 |  0.00
Comm    | 0.038677   | 0.50557    | 1.6069     |  64.9 | 15.95
Output  | 0.00012269 | 0.00012641 | 0.00027858 |   0.0 |  0.00
Modify  | 4.7396e-05 | 0.0049054  | 0.010292   |   3.3 |  0.15
Other   |            | 0.3467     |            |       | 10.93

Nlocal:        5552.90 ave        7912 max           0 min
Histogram: 4 2 2 0 2 6 4 0 15 17
Nghost:        6213.54 ave        8769 max         412 min
Histogram: 4 0 4 0 8 0 4 5 7 20
Neighs:       158427.0 ave      230619 max           0 min
Histogram: 4 2 2 0 5 3 4 4 12 16

Total # of neighbors = 8238201
Ave neighs/atom = 28.530467
Neighbor list builds = 0
Dangerous builds = 0
The dot product: -2.30506137802456e-07
Setting atom values ...
  1 settings made for x
  1 settings made for y
  1 settings made for z
Setting up cg style minimization ...
  Unit style    : metal
  Current step  : 2032
Per MPI rank memory allocation (min/avg/max) = 5.465 | 6.344 | 6.728 Mbytes
Step PotEng KinEng TotEng v_fx v_fy v_fz 
    2032   -1152449.3            0   -1152449.3 -0.053328194  0.067947536 -0.047301455 
    2250   -1152449.3            0   -1152449.3 -4.2668867e-05 5.5275672e-05 -3.7077532e-05 
Loop time of 4.74482 on 52 procs for 218 steps with 288751 atoms

99.9% CPU use with 52 MPI tasks x 1 OpenMP threads

Minimization stats:
  Stopping criterion = energy tolerance
  Energy initial, next-to-last, final = 
     -1152449.33354007  -1152449.34651183  -1152449.34651183
  Force two-norm initial, final = 0.17924375 0.00027393531
  Force max component initial, final = 0.067947536 5.5275672e-05
  Final line search alpha, max atom move = 1.0000000 5.5275672e-05
  Iterations, force evaluations = 218 436

MPI task timing breakdown:
Section |  min time  |  avg time  |  max time  |%varavg| %total
---------------------------------------------------------------
Pair    | 1.2405     | 3.4589     | 4.5459     |  51.4 | 72.90
Neigh   | 1.8809e-05 | 0.0057273  | 0.0084183  |   3.2 |  0.12
Comm    | 0.059571   | 0.75745    | 2.4083     |  79.5 | 15.96
Output  | 0          | 0          | 0          |   0.0 |  0.00
Modify  | 7.0596e-05 | 0.0072749  | 0.015352   |   4.0 |  0.15
Other   |            | 0.5155     |            |       | 10.86

Nlocal:        5552.90 ave        7915 max           0 min
Histogram: 4 2 2 0 2 6 4 2 13 17
Nghost:        6213.69 ave        8769 max         412 min
Histogram: 4 0 4 0 8 0 4 5 7 20
Neighs:       158427.0 ave      230723 max           0 min
Histogram: 4 2 2 0 5 3 4 4 12 16

Total # of neighbors = 8238193
Ave neighs/atom = 28.530440
Neighbor list builds = 1
Dangerous builds = 0
The dot product: 2.68813550037275e-06
Setting atom values ...
  1 settings made for x
  1 settings made for y
  1 settings made for z
Setting up cg style minimization ...
  Unit style    : metal
  Current step  : 2250
Per MPI rank memory allocation (min/avg/max) = 5.465 | 6.344 | 6.728 Mbytes
Step PotEng KinEng TotEng v_fx v_fy v_fz 
    2250   -1152449.3            0   -1152449.3  0.023255602 -6.8176489e-05  0.034304677 
    2381   -1152449.3            0   -1152449.3 -1.8640379e-05 1.9042513e-05 -1.2960639e-05 
Loop time of 2.85667 on 52 procs for 131 steps with 288751 atoms

99.9% CPU use with 52 MPI tasks x 1 OpenMP threads

Minimization stats:
  Stopping criterion = energy tolerance
  Energy initial, next-to-last, final = 
     -1152449.34841007  -1152449.34937301  -1152449.34937301
  Force two-norm initial, final = 0.13042014 0.00010498874
  Force max component initial, final = 0.048036779 2.4023324e-05
  Final line search alpha, max atom move = 1.0000000 2.4023324e-05
  Iterations, force evaluations = 131 262

MPI task timing breakdown:
Section |  min time  |  avg time  |  max time  |%varavg| %total
---------------------------------------------------------------
Pair    | 0.74179    | 2.0814     | 2.7374     |  39.9 | 72.86
Neigh   | 0          | 0          | 0          |   0.0 |  0.00
Comm    | 0.035359   | 0.45524    | 1.4452     |  61.4 | 15.94
Output  | 0          | 0          | 0          |   0.0 |  0.00
Modify  | 4.3201e-05 | 0.0043946  | 0.0092631  |   3.1 |  0.15
Other   |            | 0.3156     |            |       | 11.05

Nlocal:        5552.90 ave        7913 max           0 min
Histogram: 4 2 2 0 2 6 4 1 14 17
Nghost:        6213.62 ave        8769 max         412 min
Histogram: 4 0 4 0 8 0 4 5 7 20
Neighs:       158427.0 ave      230654 max           0 min
Histogram: 4 2 2 0 5 3 4 4 12 16

Total # of neighbors = 8238192
Ave neighs/atom = 28.530436
Neighbor list builds = 0
Dangerous builds = 0
The dot product: -1.01949138365133e-07
Setting atom values ...
  1 settings made for x
  1 settings made for y
  1 settings made for z
Setting up cg style minimization ...
  Unit style    : metal
  Current step  : 2381
Per MPI rank memory allocation (min/avg/max) = 5.465 | 6.344 | 6.728 Mbytes
Step PotEng KinEng TotEng v_fx v_fy v_fz 
    2381   -1152449.4            0   -1152449.4 0.0092462256 0.0068378802  0.019291471 
    2536   -1152449.4            0   -1152449.4 -6.0736604e-05 4.6386981e-05 -5.6249997e-05 
Loop time of 3.41775 on 52 procs for 155 steps with 288751 atoms

99.9% CPU use with 52 MPI tasks x 1 OpenMP threads

Minimization stats:
  Stopping criterion = linesearch alpha is zero
  Energy initial, next-to-last, final = 
     -1152449.35019767  -1152449.35110126  -1152449.35110126
  Force two-norm initial, final = 0.12528479 0.0002789458
  Force max component initial, final = 0.047405741 6.0736604e-05
  Final line search alpha, max atom move = 0.125 7.5920755e-06
  Iterations, force evaluations = 155 315

MPI task timing breakdown:
Section |  min time  |  avg time  |  max time  |%varavg| %total
---------------------------------------------------------------
Pair    | 0.89234    | 2.4981     | 3.2818     |  43.8 | 73.09
Neigh   | 0          | 0          | 0          |   0.0 |  0.00
Comm    | 0.042388   | 0.54554    | 1.7376     |  67.8 | 15.96
Output  | 0          | 0          | 0          |   0.0 |  0.00
Modify  | 5.0293e-05 | 0.0052614  | 0.011129   |   3.4 |  0.15
Other   |            | 0.3689     |            |       | 10.79

Nlocal:        5552.90 ave        7913 max           0 min
Histogram: 4 2 2 0 2 6 4 1 14 17
Nghost:        6213.62 ave        8769 max         412 min
Histogram: 4 0 4 0 8 0 4 5 7 20
Neighs:       158427.0 ave      230655 max           0 min
Histogram: 4 2 2 0 5 3 4 4 12 16

Total # of neighbors = 8238192
Ave neighs/atom = 28.530436
Neighbor list builds = 0
Dangerous builds = 0
The dot product: 4.93371331536344e-10
Setting atom values ...
  1 settings made for x
  1 settings made for y
  1 settings made for z
Setting up cg style minimization ...
  Unit style    : metal
  Current step  : 2536
Per MPI rank memory allocation (min/avg/max) = 5.465 | 6.344 | 6.728 Mbytes
Step PotEng KinEng TotEng v_fx v_fy v_fz 
    2536   -1152449.4            0   -1152449.4 0.0098272452 0.0065722273  0.020005045 
    2672   -1152449.4            0   -1152449.4 7.7693082e-05 -4.6569037e-05 8.1840378e-05 
Loop time of 2.99178 on 52 procs for 136 steps with 288751 atoms

99.9% CPU use with 52 MPI tasks x 1 OpenMP threads

Minimization stats:
  Stopping criterion = energy tolerance
  Energy initial, next-to-last, final = 
     -1152449.35065761  -1152449.35155715  -1152449.35155715
  Force two-norm initial, final = 0.12543073 0.00037597247
  Force max component initial, final = 0.046803838 8.2560047e-05
  Final line search alpha, max atom move = 1.0000000 8.2560047e-05
  Iterations, force evaluations = 136 272

MPI task timing breakdown:
Section |  min time  |  avg time  |  max time  |%varavg| %total
---------------------------------------------------------------
Pair    | 0.76689    | 2.1665     | 2.8638     |  41.0 | 72.42
Neigh   | 0          | 0          | 0          |   0.0 |  0.00
Comm    | 0.036965   | 0.47651    | 1.5078     |  62.8 | 15.93
Output  | 0          | 0          | 0          |   0.0 |  0.00
Modify  | 4.5077e-05 | 0.0045652  | 0.0096761  |   3.2 |  0.15
Other   |            | 0.3442     |            |       | 11.50

Nlocal:        5552.90 ave        7914 max           0 min
Histogram: 4 2 2 0 2 6 4 1 14 17
Nghost:        6213.62 ave        8769 max         412 min
Histogram: 4 0 4 0 8 0 4 5 7 20
Neighs:       158427.0 ave      230694 max           0 min
Histogram: 4 2 2 0 5 3 4 4 12 16

Total # of neighbors = 8238190
Ave neighs/atom = 28.530429
Neighbor list builds = 0
Dangerous builds = 0
The dot product: 3.42016512638023e-08
Setting atom values ...
  1 settings made for x
  1 settings made for y
  1 settings made for z
Setting up cg style minimization ...
  Unit style    : metal
  Current step  : 2672
Per MPI rank memory allocation (min/avg/max) = 5.465 | 6.344 | 6.728 Mbytes
Step PotEng KinEng TotEng v_fx v_fy v_fz 
    2672   -1152449.3            0   -1152449.3  0.009151674 0.0064917571  0.018980175 
    2835   -1152449.4            0   -1152449.4 -2.4221445e-05 -3.7817938e-05 -6.6290446e-05 
Loop time of 3.55131 on 52 procs for 163 steps with 288751 atoms

99.9% CPU use with 52 MPI tasks x 1 OpenMP threads

Minimization stats:
  Stopping criterion = energy tolerance
  Energy initial, next-to-last, final = 
      -1152449.3497868   -1152449.3506777   -1152449.3506777
  Force two-norm initial, final = 0.12482777 0.00024936028
  Force max component initial, final = 0.046194585 6.6290446e-05
  Final line search alpha, max atom move = 1.0000000 6.6290446e-05
  Iterations, force evaluations = 163 326

MPI task timing breakdown:
Section |  min time  |  avg time  |  max time  |%varavg| %total
---------------------------------------------------------------
Pair    | 0.9235     | 2.5875     | 3.4018     |  44.5 | 72.86
Neigh   | 0          | 0          | 0          |   0.0 |  0.00
Comm    | 0.04339    | 0.56768    | 1.803      |  68.5 | 15.99
Output  | 0          | 0          | 0          |   0.0 |  0.00
Modify  | 5.5971e-05 | 0.0054546  | 0.011477   |   3.4 |  0.15
Other   |            | 0.3907     |            |       | 11.00

Nlocal:        5552.90 ave        7914 max           0 min
Histogram: 4 2 2 0 2 6 4 1 14 17
Nghost:        6213.62 ave        8769 max         412 min
Histogram: 4 0 4 0 8 0 4 5 7 20
Neighs:       158427.0 ave      230694 max           0 min
Histogram: 4 2 2 0 5 3 4 4 12 16

Total # of neighbors = 8238192
Ave neighs/atom = 28.530436
Neighbor list builds = 0
Dangerous builds = 0
The dot product: -4.33235554045193e-08
Setting atom values ...
  1 settings made for x
  1 settings made for y
  1 settings made for z
Setting up cg style minimization ...
  Unit style    : metal
  Current step  : 2835
Per MPI rank memory allocation (min/avg/max) = 5.465 | 6.344 | 6.728 Mbytes
Step PotEng KinEng TotEng v_fx v_fy v_fz 
    2835   -1152449.3            0   -1152449.3 0.0080890108 0.0062836961  0.017251659 
    3000   -1152449.3            0   -1152449.3 -3.8328631e-05 -2.5311447e-05 -7.8257243e-05 
    3025   -1152449.3            0   -1152449.3 -9.7773977e-06 1.8309634e-06 -1.3486987e-05 
Loop time of 4.18288 on 52 procs for 190 steps with 288751 atoms

99.8% CPU use with 52 MPI tasks x 1 OpenMP threads

Minimization stats:
  Stopping criterion = linesearch alpha is zero
  Energy initial, next-to-last, final = 
     -1152449.34756747  -1152449.34844442  -1152449.34844442
  Force two-norm initial, final = 0.12375755 9.7592259e-05
  Force max component initial, final = 0.045489089 1.3486987e-05
  Final line search alpha, max atom move = 0.5 6.7434937e-06
  Iterations, force evaluations = 190 381

MPI task timing breakdown:
Section |  min time  |  avg time  |  max time  |%varavg| %total
---------------------------------------------------------------
Pair    | 1.075      | 3.0345     | 4.0037     |  48.4 | 72.55
Neigh   | 0          | 0          | 0          |   0.0 |  0.00
Comm    | 0.054314   | 0.66833    | 2.118      |  74.4 | 15.98
Output  | 0.00019946 | 0.00020405 | 0.00035672 |   0.0 |  0.00
Modify  | 6.9964e-05 | 0.0064     | 0.013545   |   3.7 |  0.15
Other   |            | 0.4734     |            |       | 11.32

Nlocal:        5552.90 ave        7914 max           0 min
Histogram: 4 2 2 0 2 6 4 1 14 17
Nghost:        6213.62 ave        8769 max         412 min
Histogram: 4 0 4 0 8 0 4 5 7 20
Neighs:       158427.0 ave      230683 max           0 min
Histogram: 4 2 2 0 5 3 4 4 12 16

Total # of neighbors = 8238192
Ave neighs/atom = 28.530436
Neighbor list builds = 0
Dangerous builds = 0
The dot product: -5.10192966192096e-09
Setting atom values ...
  1 settings made for x
  1 settings made for y
  1 settings made for z
Setting up cg style minimization ...
  Unit style    : metal
  Current step  : 3025
Per MPI rank memory allocation (min/avg/max) = 5.465 | 6.344 | 6.728 Mbytes
Step PotEng KinEng TotEng v_fx v_fy v_fz 
    3025   -1152449.3            0   -1152449.3 0.0071927382 0.0058335801  0.015572403 
    3209   -1152449.3            0   -1152449.3 -2.7344423e-05 1.4138694e-05 -3.0712338e-05 
Loop time of 4.01025 on 52 procs for 184 steps with 288751 atoms

99.9% CPU use with 52 MPI tasks x 1 OpenMP threads

Minimization stats:
  Stopping criterion = linesearch alpha is zero
  Energy initial, next-to-last, final = 
     -1152449.34398942  -1152449.34485234  -1152449.34485234
  Force two-norm initial, final = 0.12283894 0.00012541094
  Force max component initial, final = 0.044809732 3.0712338e-05
  Final line search alpha, max atom move = 0.5 1.5356169e-05
  Iterations, force evaluations = 184 369

MPI task timing breakdown:
Section |  min time  |  avg time  |  max time  |%varavg| %total
---------------------------------------------------------------
Pair    | 1.041      | 2.9301     | 3.8477     |  47.4 | 73.06
Neigh   | 0          | 0          | 0          |   0.0 |  0.00
Comm    | 0.050026   | 0.64027    | 2.0375     |  73.3 | 15.97
Output  | 0          | 0          | 0          |   0.0 |  0.00
Modify  | 5.8963e-05 | 0.0062059  | 0.013131   |   3.7 |  0.15
Other   |            | 0.4337     |            |       | 10.82

Nlocal:        5552.90 ave        7914 max           0 min
Histogram: 4 2 2 0 2 6 4 1 14 17
Nghost:        6213.69 ave        8769 max         412 min
Histogram: 4 0 4 0 8 0 4 5 7 20
Neighs:       158427.0 ave      230681 max           0 min
Histogram: 4 2 2 0 5 3 4 4 12 16

Total # of neighbors = 8238190
Ave neighs/atom = 28.530429
Neighbor list builds = 0
Dangerous builds = 0
The dot product: -7.61101344653859e-09
Setting atom values ...
  1 settings made for x
  1 settings made for y
  1 settings made for z
Setting up cg style minimization ...
  Unit style    : metal
  Current step  : 3209
Per MPI rank memory allocation (min/avg/max) = 5.465 | 6.344 | 6.728 Mbytes
Step PotEng KinEng TotEng v_fx v_fy v_fz 
    3209   -1152449.3            0   -1152449.3 0.0064462078 0.0050673393  0.013861131 
    3343   -1152449.3            0   -1152449.3 1.7162907e-05 1.3745837e-05 3.710506e-05 
Loop time of 2.9318 on 52 procs for 134 steps with 288751 atoms

99.9% CPU use with 52 MPI tasks x 1 OpenMP threads

Minimization stats:
  Stopping criterion = energy tolerance
  Energy initial, next-to-last, final = 
     -1152449.33904202  -1152449.33989395  -1152449.33989395
  Force two-norm initial, final = 0.12216286 0.00037498676
  Force max component initial, final = 0.044265425 6.2391094e-05
  Final line search alpha, max atom move = 1.0000000 6.2391094e-05
  Iterations, force evaluations = 134 268

MPI task timing breakdown:
Section |  min time  |  avg time  |  max time  |%varavg| %total
---------------------------------------------------------------
Pair    | 0.75649    | 2.1279     | 2.8087     |  40.5 | 72.58
Neigh   | 0          | 0          | 0          |   0.0 |  0.00
Comm    | 0.034784   | 0.46692    | 1.4791     |  62.1 | 15.93
Output  | 0          | 0          | 0          |   0.0 |  0.00
Modify  | 4.4557e-05 | 0.0045013  | 0.0095465  |   3.1 |  0.15
Other   |            | 0.3325     |            |       | 11.34

Nlocal:        5552.90 ave        7914 max           0 min
Histogram: 4 2 2 0 2 6 4 2 13 17
Nghost:        6213.69 ave        8769 max         412 min
Histogram: 4 0 4 0 8 0 4 5 7 20
Neighs:       158427.0 ave      230682 max           0 min
Histogram: 4 2 2 0 5 3 4 4 12 16

Total # of neighbors = 8238191
Ave neighs/atom = 28.530433
Neighbor list builds = 0
Dangerous builds = 0
The dot product: 1.75987107699854e-08
Setting atom values ...
  1 settings made for x
  1 settings made for y
  1 settings made for z
Setting up cg style minimization ...
  Unit style    : metal
  Current step  : 3343
Per MPI rank memory allocation (min/avg/max) = 5.465 | 6.344 | 6.728 Mbytes
Step PotEng KinEng TotEng v_fx v_fy v_fz 
    3343   -1152449.3            0   -1152449.3 0.0059926996 0.0039828559  0.012337633 
    3512   -1152449.3            0   -1152449.3 -4.3734973e-05 1.7030814e-05 -5.3641995e-05 
Loop time of 3.6673 on 52 procs for 169 steps with 288751 atoms

99.9% CPU use with 52 MPI tasks x 1 OpenMP threads

Minimization stats:
  Stopping criterion = energy tolerance
  Energy initial, next-to-last, final = 
     -1152449.33270821  -1152449.33355602  -1152449.33355602
  Force two-norm initial, final = 0.12188968 0.00021531629
  Force max component initial, final = 0.044053873 5.3641995e-05
  Final line search alpha, max atom move = 1.0000000 5.3641995e-05
  Iterations, force evaluations = 169 338

MPI task timing breakdown:
Section |  min time  |  avg time  |  max time  |%varavg| %total
---------------------------------------------------------------
Pair    | 0.95525    | 2.6804     | 3.521      |  45.4 | 73.09
Neigh   | 0          | 0          | 0          |   0.0 |  0.00
Comm    | 0.045709   | 0.58563    | 1.8686     |  70.3 | 15.97
Output  | 0          | 0          | 0          |   0.0 |  0.00
Modify  | 5.4727e-05 | 0.0056581  | 0.01194    |   3.5 |  0.15
Other   |            | 0.3956     |            |       | 10.79

Nlocal:        5552.90 ave        7915 max           0 min
Histogram: 4 2 2 0 2 6 4 2 13 17
Nghost:        6213.65 ave        8769 max         412 min
Histogram: 4 0 4 0 8 0 4 5 7 20
Neighs:       158427.0 ave      230716 max           0 min
Histogram: 4 2 2 0 5 3 4 4 12 16

Total # of neighbors = 8238190
Ave neighs/atom = 28.530429
Neighbor list builds = 0
Dangerous builds = 0
The dot product: -1.27794835965767e-08
Setting atom values ...
  1 settings made for x
  1 settings made for y
  1 settings made for z
Setting up cg style minimization ...
  Unit style    : metal
  Current step  : 3512
Per MPI rank memory allocation (min/avg/max) = 5.465 | 6.344 | 6.728 Mbytes
Step PotEng KinEng TotEng v_fx v_fy v_fz 
    3512   -1152449.3            0   -1152449.3 0.0056904822 0.0025876508  0.010787215 
    3688   -1152449.3            0   -1152449.3 4.1635346e-05 -1.5034959e-05 5.2049714e-05 
Loop time of 3.83495 on 52 procs for 176 steps with 288751 atoms

99.9% CPU use with 52 MPI tasks x 1 OpenMP threads

Minimization stats:
  Stopping criterion = energy tolerance
  Energy initial, next-to-last, final = 
     -1152449.32496737  -1152449.32581453  -1152449.32581453
  Force two-norm initial, final = 0.12192442 0.00016390322
  Force max component initial, final = 0.043999299 5.2049714e-05
  Final line search alpha, max atom move = 1.0000000 5.2049714e-05
  Iterations, force evaluations = 176 352

MPI task timing breakdown:
Section |  min time  |  avg time  |  max time  |%varavg| %total
---------------------------------------------------------------
Pair    | 0.9957     | 2.7982     | 3.6808     |  46.4 | 72.97
Neigh   | 0          | 0          | 0          |   0.0 |  0.00
Comm    | 0.04767    | 0.61063    | 1.941      |  71.4 | 15.92
Output  | 0          | 0          | 0          |   0.0 |  0.00
Modify  | 6.6e-05    | 0.0059145  | 0.012605   |   3.6 |  0.15
Other   |            | 0.4202     |            |       | 10.96

Nlocal:        5552.90 ave        7915 max           0 min
Histogram: 4 2 2 0 2 6 4 2 13 17
Nghost:        6213.65 ave        8769 max         412 min
Histogram: 4 0 4 0 8 0 4 5 7 20
Neighs:       158427.0 ave      230706 max           0 min
Histogram: 4 2 2 0 5 3 4 4 12 16

Total # of neighbors = 8238190
Ave neighs/atom = 28.530429
Neighbor list builds = 0
Dangerous builds = 0
The dot product: 1.44985052538172e-08
Setting atom values ...
  1 settings made for x
  1 settings made for y
  1 settings made for z
Setting up cg style minimization ...
  Unit style    : metal
  Current step  : 3688
Per MPI rank memory allocation (min/avg/max) = 5.465 | 6.344 | 6.728 Mbytes
Step PotEng KinEng TotEng v_fx v_fy v_fz 
    3688   -1152449.3            0   -1152449.3  0.005834962 0.00089460534 0.0096811553 
    3824   -1152449.3            0   -1152449.3 -7.5767981e-05 2.009776e-05 -0.0001005808 
Loop time of 2.97812 on 52 procs for 136 steps with 288751 atoms

99.9% CPU use with 52 MPI tasks x 1 OpenMP threads

Minimization stats:
  Stopping criterion = energy tolerance
  Energy initial, next-to-last, final = 
     -1152449.31578491  -1152449.31663749  -1152449.31663749
  Force two-norm initial, final = 0.12236536 0.00038715845
  Force max component initial, final = 0.043765748 0.00010810629
  Final line search alpha, max atom move = 1.0000000 0.00010810629
  Iterations, force evaluations = 136 272

MPI task timing breakdown:
Section |  min time  |  avg time  |  max time  |%varavg| %total
---------------------------------------------------------------
Pair    | 0.76985    | 2.1604     | 2.8378     |  40.7 | 72.54
Neigh   | 0          | 0          | 0          |   0.0 |  0.00
Comm    | 0.036737   | 0.47329    | 1.5039     |  63.2 | 15.89
Output  | 0          | 0          | 0          |   0.0 |  0.00
Modify  | 4.3245e-05 | 0.0045445  | 0.0096432  |   3.2 |  0.15
Other   |            | 0.3398     |            |       | 11.41

Nlocal:        5552.90 ave        7916 max           0 min
Histogram: 4 2 2 0 2 6 4 2 13 17
Nghost:        6213.69 ave        8769 max         412 min
Histogram: 4 0 4 0 8 0 4 5 7 20
Neighs:       158427.0 ave      230759 max           0 min
Histogram: 4 2 2 0 5 3 4 4 12 16

Total # of neighbors = 8238187
Ave neighs/atom = 28.530419
Neighbor list builds = 0
Dangerous builds = 0
The dot product: -3.85069010545634e-08
Setting atom values ...
  1 settings made for x
  1 settings made for y
  1 settings made for z
Setting up cg style minimization ...
  Unit style    : metal
  Current step  : 3824
Per MPI rank memory allocation (min/avg/max) = 5.465 | 6.344 | 6.728 Mbytes
Step PotEng KinEng TotEng v_fx v_fy v_fz 
    3824   -1152449.3            0   -1152449.3 0.0060718575 -0.00097261453 0.0085782252 
    3987   -1152449.3            0   -1152449.3 6.9940279e-05 -3.1161701e-05 8.297948e-05 
Loop time of 3.55589 on 52 procs for 163 steps with 288751 atoms

99.9% CPU use with 52 MPI tasks x 1 OpenMP threads

Minimization stats:
  Stopping criterion = energy tolerance
  Energy initial, next-to-last, final = 
     -1152449.30513115  -1152449.30599156  -1152449.30599156
  Force two-norm initial, final = 0.12292864 0.00026879374
  Force max component initial, final = 0.043730467 8.2979480e-05
  Final line search alpha, max atom move = 1.0000000 8.2979480e-05
  Iterations, force evaluations = 163 326

MPI task timing breakdown:
Section |  min time  |  avg time  |  max time  |%varavg| %total
---------------------------------------------------------------
Pair    | 0.92031    | 2.5968     | 3.4144     |  44.9 | 73.03
Neigh   | 0          | 0          | 0          |   0.0 |  0.00
Comm    | 0.043674   | 0.5678     | 1.8053     |  69.1 | 15.97
Output  | 0          | 0          | 0          |   0.0 |  0.00
Modify  | 5.4341e-05 | 0.0054523  | 0.011532   |   3.4 |  0.15
Other   |            | 0.3858     |            |       | 10.85

Nlocal:        5552.90 ave        7916 max           0 min
Histogram: 4 2 2 0 2 6 4 2 13 17
Nghost:        6213.65 ave        8769 max         412 min
Histogram: 4 0 4 0 8 0 4 5 7 20
Neighs:       158427.0 ave      230752 max           0 min
Histogram: 4 2 2 0 5 3 4 4 12 16

Total # of neighbors = 8238188
Ave neighs/atom = 28.530422
Neighbor list builds = 0
Dangerous builds = 0
The dot product: 3.40877052499264e-08
Setting atom values ...
  1 settings made for x
  1 settings made for y
  1 settings made for z
Setting up cg style minimization ...
  Unit style    : metal
  Current step  : 3987
Per MPI rank memory allocation (min/avg/max) = 5.465 | 6.344 | 6.728 Mbytes
Step PotEng KinEng TotEng v_fx v_fy v_fz 
    3987   -1152449.3            0   -1152449.3 0.0068784031 -0.0031035322 0.0081423721 
    4000   -1152449.3            0   -1152449.3 0.00073189469 0.00026331811  0.001337244 
    4173   -1152449.3            0   -1152449.3 3.8331473e-06 -9.3076908e-06 -1.4741793e-06 
Loop time of 4.05033 on 52 procs for 186 steps with 288751 atoms

99.9% CPU use with 52 MPI tasks x 1 OpenMP threads

Minimization stats:
  Stopping criterion = linesearch alpha is zero
  Energy initial, next-to-last, final = 
     -1152449.29298187  -1152449.29384671  -1152449.29384671
  Force two-norm initial, final = 0.12365989 0.00010374302
  Force max component initial, final = 0.043401721 9.3076908e-06
  Final line search alpha, max atom move = 0.5 4.6538454e-06
  Iterations, force evaluations = 186 373

MPI task timing breakdown:
Section |  min time  |  avg time  |  max time  |%varavg| %total
---------------------------------------------------------------
Pair    | 1.0549     | 2.9577     | 3.8889     |  47.7 | 73.02
Neigh   | 0          | 0          | 0          |   0.0 |  0.00
Comm    | 0.049894   | 0.64864    | 2.0624     |  73.4 | 16.01
Output  | 0.0001215  | 0.0001253  | 0.00025478 |   0.0 |  0.00
Modify  | 6.1261e-05 | 0.0062431  | 0.013198   |   3.7 |  0.15
Other   |            | 0.4376     |            |       | 10.80

Nlocal:        5552.90 ave        7916 max           0 min
Histogram: 4 2 2 0 2 6 4 2 13 17
Nghost:        6213.63 ave        8769 max         412 min
Histogram: 4 0 4 0 8 0 4 5 7 20
Neighs:       158427.0 ave      230760 max           0 min
Histogram: 4 2 2 0 5 3 4 4 12 16

Total # of neighbors = 8238188
Ave neighs/atom = 28.530422
Neighbor list builds = 0
Dangerous builds = 0
The dot product: 3.23138553216809e-09
Setting atom values ...
  1 settings made for x
  1 settings made for y
  1 settings made for z
Setting up cg style minimization ...
  Unit style    : metal
  Current step  : 4173
Per MPI rank memory allocation (min/avg/max) = 5.465 | 6.344 | 6.728 Mbytes
Step PotEng KinEng TotEng v_fx v_fy v_fz 
    4173   -1152449.3            0   -1152449.3 0.0079889313 -0.005222287 0.0081938033 
    4319   -1152449.3            0   -1152449.3 6.4413009e-05 -8.4952177e-05 3.2087566e-05 
Loop time of 3.21234 on 52 procs for 146 steps with 288751 atoms

99.9% CPU use with 52 MPI tasks x 1 OpenMP threads

Minimization stats:
  Stopping criterion = energy tolerance
  Energy initial, next-to-last, final = 
     -1152449.27932158  -1152449.28018548  -1152449.28018548
  Force two-norm initial, final = 0.12426074 0.00034250046
  Force max component initial, final = 0.043252586 8.4952177e-05
  Final line search alpha, max atom move = 1.0000000 8.4952177e-05
  Iterations, force evaluations = 146 292

MPI task timing breakdown:
Section |  min time  |  avg time  |  max time  |%varavg| %total
---------------------------------------------------------------
Pair    | 0.82591    | 2.3307     | 3.0849     |  42.6 | 72.55
Neigh   | 0          | 0          | 0          |   0.0 |  0.00
Comm    | 0.038959   | 0.51313    | 1.6348     |  65.3 | 15.97
Output  | 0          | 0          | 0          |   0.0 |  0.00
Modify  | 4.892e-05  | 0.0048919  | 0.010372   |   3.3 |  0.15
Other   |            | 0.3636     |            |       | 11.32

Nlocal:        5552.90 ave        7916 max           0 min
Histogram: 4 2 2 0 2 6 4 2 13 17
Nghost:        6213.63 ave        8769 max         412 min
Histogram: 4 0 4 0 8 0 4 5 7 20
Neighs:       158427.0 ave      230758 max           0 min
Histogram: 4 2 2 0 5 3 4 4 12 16

Total # of neighbors = 8238186
Ave neighs/atom = 28.530415
Neighbor list builds = 0
Dangerous builds = 0
The dot product: 7.26094886341571e-08
Setting atom values ...
  1 settings made for x
  1 settings made for y
  1 settings made for z
Setting up cg style minimization ...
  Unit style    : metal
  Current step  : 4319
Per MPI rank memory allocation (min/avg/max) = 5.465 | 6.344 | 6.728 Mbytes
Step PotEng KinEng TotEng v_fx v_fy v_fz 
    4319   -1152449.3            0   -1152449.3 0.0098132829 -0.0072675947 0.0094247929 
    4513   -1152449.3            0   -1152449.3 1.041816e-05 -2.0683265e-07 1.5957268e-05 
Loop time of 4.24657 on 52 procs for 194 steps with 288751 atoms

99.9% CPU use with 52 MPI tasks x 1 OpenMP threads

Minimization stats:
  Stopping criterion = energy tolerance
  Energy initial, next-to-last, final = 
     -1152449.26415748  -1152449.26501381  -1152449.26501381
  Force two-norm initial, final = 0.12482063 9.6208642e-05
  Force max component initial, final = 0.043043137 2.2848346e-05
  Final line search alpha, max atom move = 1.0000000 2.2848346e-05
  Iterations, force evaluations = 194 388

MPI task timing breakdown:
Section |  min time  |  avg time  |  max time  |%varavg| %total
---------------------------------------------------------------
Pair    | 1.0974     | 3.0829     | 4.0554     |  48.7 | 72.60
Neigh   | 0          | 0          | 0          |   0.0 |  0.00
Comm    | 0.053742   | 0.678      | 2.1435     |  74.7 | 15.97
Output  | 0          | 0          | 0          |   0.0 |  0.00
Modify  | 6.4958e-05 | 0.0065157  | 0.013803   |   3.8 |  0.15
Other   |            | 0.4791     |            |       | 11.28

Nlocal:        5552.90 ave        7917 max           0 min
Histogram: 4 2 2 0 2 6 4 2 13 17
Nghost:        6213.67 ave        8770 max         412 min
Histogram: 4 0 4 0 8 0 4 5 7 20
Neighs:       158427.0 ave      230771 max           0 min
Histogram: 4 2 2 0 5 3 4 4 12 16

Total # of neighbors = 8238187
Ave neighs/atom = 28.530419
Neighbor list builds = 0
Dangerous builds = 0
The dot product: 1.48146742427189e-08
Setting atom values ...
  1 settings made for x
  1 settings made for y
  1 settings made for z
Setting up cg style minimization ...
  Unit style    : metal
  Current step  : 4513
Per MPI rank memory allocation (min/avg/max) = 5.465 | 6.344 | 6.728 Mbytes
Step PotEng KinEng TotEng v_fx v_fy v_fz 
    4513   -1152449.2            0   -1152449.2  0.012349757 -0.0088943713  0.012122538 
    4668   -1152449.2            0   -1152449.2 -4.2779263e-05 -1.8484713e-06 -6.7865361e-05 
Loop time of 3.39782 on 52 procs for 155 steps with 288751 atoms

99.9% CPU use with 52 MPI tasks x 1 OpenMP threads

Minimization stats:
  Stopping criterion = energy tolerance
  Energy initial, next-to-last, final = 
     -1152449.24753786  -1152449.24837827  -1152449.24837827
  Force two-norm initial, final = 0.12552641 0.00027957362
  Force max component initial, final = 0.045718826 6.7865361e-05
  Final line search alpha, max atom move = 1.0000000 6.7865361e-05
  Iterations, force evaluations = 155 310

MPI task timing breakdown:
Section |  min time  |  avg time  |  max time  |%varavg| %total
---------------------------------------------------------------
Pair    | 0.87566    | 2.4652     | 3.2496     |  43.5 | 72.55
Neigh   | 0          | 0          | 0          |   0.0 |  0.00
Comm    | 0.04225    | 0.54186    | 1.7088     |  66.8 | 15.95
Output  | 0          | 0          | 0          |   0.0 |  0.00
Modify  | 5.1443e-05 | 0.0051939  | 0.010925   |   3.4 |  0.15
Other   |            | 0.3855     |            |       | 11.35

Nlocal:        5552.90 ave        7917 max           0 min
Histogram: 4 2 2 0 2 6 4 2 13 17
Nghost:        6213.67 ave        8770 max         412 min
Histogram: 4 0 4 0 8 0 4 5 7 20
Neighs:       158427.0 ave      230761 max           0 min
Histogram: 4 2 2 0 5 3 4 4 12 16

Total # of neighbors = 8238185
Ave neighs/atom = 28.530412
Neighbor list builds = 0
Dangerous builds = 0
The dot product: -1.11703209084953e-07
Setting atom values ...
  1 settings made for x
  1 settings made for y
  1 settings made for z
Setting up cg style minimization ...
  Unit style    : metal
  Current step  : 4668
Per MPI rank memory allocation (min/avg/max) = 5.465 | 6.344 | 6.728 Mbytes
Step PotEng KinEng TotEng v_fx v_fy v_fz 
    4668   -1152449.2            0   -1152449.2  0.016274577 -0.010108903  0.017382249 
    4834   -1152449.2            0   -1152449.2 -1.9807124e-05 3.0903591e-06 -2.8461167e-05 
Loop time of 3.64583 on 52 procs for 166 steps with 288751 atoms

99.9% CPU use with 52 MPI tasks x 1 OpenMP threads

Minimization stats:
  Stopping criterion = linesearch alpha is zero
  Energy initial, next-to-last, final = 
     -1152449.22959032  -1152449.23043791  -1152449.23043791
  Force two-norm initial, final = 0.1275553 0.00018705652
  Force max component initial, final = 0.048950959 3.3818110e-05
  Final line search alpha, max atom move = 0.25 8.4545275e-06
  Iterations, force evaluations = 166 335

MPI task timing breakdown:
Section |  min time  |  avg time  |  max time  |%varavg| %total
---------------------------------------------------------------
Pair    | 0.94943    | 2.6601     | 3.4948     |  45.0 | 72.96
Neigh   | 0          | 0          | 0          |   0.0 |  0.00
Comm    | 0.044889   | 0.58235    | 1.854      |  69.7 | 15.97
Output  | 0          | 0          | 0          |   0.0 |  0.00
Modify  | 5.9004e-05 | 0.0056121  | 0.0119     |   3.5 |  0.15
Other   |            | 0.3978     |            |       | 10.91

Nlocal:        5552.90 ave        7919 max           0 min
Histogram: 4 2 2 0 2 6 4 2 13 17
Nghost:        6213.67 ave        8770 max         412 min
Histogram: 4 0 4 0 8 0 4 5 7 20
Neighs:       158427.0 ave      230808 max           0 min
Histogram: 4 2 2 0 5 3 4 4 12 16

Total # of neighbors = 8238185
Ave neighs/atom = 28.530412
Neighbor list builds = 0
Dangerous builds = 0
The dot product: -1.03802904066787e-07
Setting atom values ...
  1 settings made for x
  1 settings made for y
  1 settings made for z
Setting up cg style minimization ...
  Unit style    : metal
  Current step  : 4834
Per MPI rank memory allocation (min/avg/max) = 5.465 | 6.344 | 6.728 Mbytes
Step PotEng KinEng TotEng v_fx v_fy v_fz 
    4834   -1152449.2            0   -1152449.2  0.022742946 -0.010244677  0.027718087 
    5000   -1152449.2            0   -1152449.2 -0.00049584341 -3.6453439e-05 -0.00081151589 
    5094   -1152449.2            0   -1152449.2 1.0564018e-05 -1.4316449e-08 1.6658655e-05 
Loop time of 5.72114 on 52 procs for 260 steps with 288751 atoms

99.9% CPU use with 52 MPI tasks x 1 OpenMP threads

Minimization stats:
  Stopping criterion = linesearch alpha is zero
  Energy initial, next-to-last, final = 
     -1152449.21072034  -1152449.24865895  -1152449.24865895
  Force two-norm initial, final = 0.13489159 6.8244437e-05
  Force max component initial, final = 0.052184006 1.6658655e-05
  Final line search alpha, max atom move = 0.5 8.3293276e-06
  Iterations, force evaluations = 260 521

MPI task timing breakdown:
Section |  min time  |  avg time  |  max time  |%varavg| %total
---------------------------------------------------------------
Pair    | 1.4815     | 4.1373     | 5.4668     |  56.1 | 72.32
Neigh   | 3.771e-05  | 0.011435   | 0.016868   |   4.5 |  0.20
Comm    | 0.071437   | 0.90975    | 2.8657     |  86.1 | 15.90
Output  | 0.00021537 | 0.00022043 | 0.00036652 |   0.0 |  0.00
Modify  | 0.00011125 | 0.0087299  | 0.018497   |   4.4 |  0.15
Other   |            | 0.6537     |            |       | 11.43

Nlocal:        5552.90 ave        7918 max           0 min
Histogram: 4 2 2 0 2 6 4 2 13 17
Nghost:        6213.67 ave        8770 max         412 min
Histogram: 4 0 4 0 8 0 4 5 7 20
Neighs:       158427.0 ave      230783 max           0 min
Histogram: 4 2 2 0 5 3 4 4 12 16

Total # of neighbors = 8238180
Ave neighs/atom = 28.530395
Neighbor list builds = 2
Dangerous builds = 0
The dot product: 1.7182757935812e-06
Setting atom values ...
  1 settings made for x
  1 settings made for y
  1 settings made for z
Setting up cg style minimization ...
  Unit style    : metal
  Current step  : 5094
Per MPI rank memory allocation (min/avg/max) = 5.465 | 6.344 | 6.728 Mbytes
Step PotEng KinEng TotEng v_fx v_fy v_fz 
    5094   -1152449.2            0   -1152449.2    0.0315031 -0.044422465    0.0222292 
    5293   -1152449.3            0   -1152449.3 -4.775035e-05 9.861761e-06 -9.5941176e-05 
Loop time of 4.32103 on 52 procs for 199 steps with 288751 atoms

99.9% CPU use with 52 MPI tasks x 1 OpenMP threads

Minimization stats:
  Stopping criterion = energy tolerance
  Energy initial, next-to-last, final = 
      -1152449.2450257  -1152449.25048192  -1152449.25048192
  Force two-norm initial, final = 0.15741571 0.00032915407
  Force max component initial, final = 0.055860406 9.5941176e-05
  Final line search alpha, max atom move = 1.0000000 9.5941176e-05
  Iterations, force evaluations = 199 398

MPI task timing breakdown:
Section |  min time  |  avg time  |  max time  |%varavg| %total
---------------------------------------------------------------
Pair    | 1.1226     | 3.1512     | 4.1482     |  49.3 | 72.93
Neigh   | 0          | 0          | 0          |   0.0 |  0.00
Comm    | 0.053487   | 0.69141    | 2.1982     |  75.9 | 16.00
Output  | 0          | 0          | 0          |   0.0 |  0.00
Modify  | 6.754e-05  | 0.0066431  | 0.014059   |   3.8 |  0.15
Other   |            | 0.4718     |            |       | 10.92

Nlocal:        5552.90 ave        7916 max           0 min
Histogram: 4 2 2 0 2 6 4 1 14 17
Nghost:        6213.69 ave        8769 max         412 min
Histogram: 4 0 4 0 8 0 4 5 7 20
Neighs:       158427.0 ave      230752 max           0 min
Histogram: 4 2 2 0 5 3 4 4 12 16

Total # of neighbors = 8238183
Ave neighs/atom = 28.530405
Neighbor list builds = 0
Dangerous builds = 0
The dot product: -4.01385252724822e-06
Setting atom values ...
  1 settings made for x
  1 settings made for y
  1 settings made for z
Setting up cg style minimization ...
  Unit style    : metal
  Current step  : 5293
Per MPI rank memory allocation (min/avg/max) = 5.465 | 6.344 | 6.728 Mbytes
Step PotEng KinEng TotEng v_fx v_fy v_fz 
    5293   -1152449.3            0   -1152449.3  0.010696899 -0.036557629 -0.0093350036 
    5393   -1152449.3            0   -1152449.3 3.8289981e-06 6.4858051e-06 1.6418566e-05 
Loop time of 2.22074 on 52 procs for 100 steps with 288751 atoms

99.9% CPU use with 52 MPI tasks x 1 OpenMP threads

Minimization stats:
  Stopping criterion = linesearch alpha is zero
  Energy initial, next-to-last, final = 
     -1152449.25250868  -1152449.25380382  -1152449.25380382
  Force two-norm initial, final = 0.15046032 0.00010006917
  Force max component initial, final = 0.055034847 1.6418566e-05
  Final line search alpha, max atom move = 0.5 8.2092831e-06
  Iterations, force evaluations = 100 203

MPI task timing breakdown:
Section |  min time  |  avg time  |  max time  |%varavg| %total
---------------------------------------------------------------
Pair    | 0.57436    | 1.6205     | 2.133      |  35.4 | 72.97
Neigh   | 0          | 0          | 0          |   0.0 |  0.00
Comm    | 0.026797   | 0.35447    | 1.1272     |  54.5 | 15.96
Output  | 0          | 0          | 0          |   0.0 |  0.00
Modify  | 3.576e-05  | 0.003414   | 0.0072359  |   2.7 |  0.15
Other   |            | 0.2424     |            |       | 10.91

Nlocal:        5552.90 ave        7912 max           0 min
Histogram: 4 2 2 0 2 6 4 0 15 17
Nghost:        6213.62 ave        8769 max         412 min
Histogram: 4 0 4 0 8 0 4 5 7 20
Neighs:       158427.0 ave      230651 max           0 min
Histogram: 4 2 2 0 5 3 4 4 12 16

Total # of neighbors = 8238184
Ave neighs/atom = 28.530409
Neighbor list builds = 0
Dangerous builds = 0
The dot product: 3.03665868068161e-08
Setting atom values ...
  1 settings made for x
  1 settings made for y
  1 settings made for z
Setting up cg style minimization ...
  Unit style    : metal
  Current step  : 5393
Per MPI rank memory allocation (min/avg/max) = 5.465 | 6.344 | 6.728 Mbytes
Step PotEng KinEng TotEng v_fx v_fy v_fz 
    5393   -1152449.3            0   -1152449.3  0.013668957  -0.05315545 -0.017322302 
    5494   -1152449.3            0   -1152449.3 6.2553371e-06 3.663037e-06 2.009166e-05 
Loop time of 2.20041 on 52 procs for 101 steps with 288751 atoms

99.9% CPU use with 52 MPI tasks x 1 OpenMP threads

Minimization stats:
  Stopping criterion = energy tolerance
  Energy initial, next-to-last, final = 
     -1152449.25565245  -1152449.25687371  -1152449.25687371
  Force two-norm initial, final = 0.15401537 0.00017555458
  Force max component initial, final = 0.055751267 2.7923875e-05
  Final line search alpha, max atom move = 1.0000000 2.7923875e-05
  Iterations, force evaluations = 101 202

MPI task timing breakdown:
Section |  min time  |  avg time  |  max time  |%varavg| %total
---------------------------------------------------------------
Pair    | 0.57346    | 1.6054     | 2.1116     |  35.1 | 72.96
Neigh   | 0          | 0          | 0          |   0.0 |  0.00
Comm    | 0.027412   | 0.35189    | 1.1199     |  54.1 | 15.99
Output  | 0          | 0          | 0          |   0.0 |  0.00
Modify  | 3.3302e-05 | 0.0033887  | 0.0071399  |   2.7 |  0.15
Other   |            | 0.2398     |            |       | 10.90

Nlocal:        5552.90 ave        7913 max           0 min
Histogram: 4 2 2 0 2 6 4 1 14 17
Nghost:        6213.62 ave        8769 max         412 min
Histogram: 4 0 4 0 8 0 4 5 7 20
Neighs:       158427.0 ave      230677 max           0 min
Histogram: 4 2 2 0 5 3 4 4 12 16

Total # of neighbors = 8238182
Ave neighs/atom = 28.530402
Neighbor list builds = 0
Dangerous builds = 0
The dot product: 2.73652293499507e-08
Setting atom values ...
  1 settings made for x
  1 settings made for y
  1 settings made for z
Setting up cg style minimization ...
  Unit style    : metal
  Current step  : 5494
Per MPI rank memory allocation (min/avg/max) = 5.465 | 6.344 | 6.728 Mbytes
Step PotEng KinEng TotEng v_fx v_fy v_fz 
    5494   -1152449.3            0   -1152449.3  0.015534825 -0.064945044 -0.021396827 
    5710   -1152449.3            0   -1152449.3 1.3847902e-05 3.4297807e-05 7.0044532e-05 
Loop time of 4.7451 on 52 procs for 216 steps with 288751 atoms

99.9% CPU use with 52 MPI tasks x 1 OpenMP threads

Minimization stats:
  Stopping criterion = energy tolerance
  Energy initial, next-to-last, final = 
     -1152449.25808497  -1152449.30311644  -1152449.30311644
  Force two-norm initial, final = 0.16259435 0.00029906529
  Force max component initial, final = 0.064945044 7.0044532e-05
  Final line search alpha, max atom move = 1.0000000 7.0044532e-05
  Iterations, force evaluations = 216 434

MPI task timing breakdown:
Section |  min time  |  avg time  |  max time  |%varavg| %total
---------------------------------------------------------------
Pair    | 1.2313     | 3.4523     | 4.5442     |  51.5 | 72.75
Neigh   | 1.8721e-05 | 0.0057225  | 0.0084245  |   3.2 |  0.12
Comm    | 0.059172   | 0.75671    | 2.4013     |  79.3 | 15.95
Output  | 0          | 0          | 0          |   0.0 |  0.00
Modify  | 6.5839e-05 | 0.0072519  | 0.015285   |   4.0 |  0.15
Other   |            | 0.5232     |            |       | 11.03

Nlocal:        5552.90 ave        7914 max           0 min
Histogram: 4 2 2 0 2 6 4 1 14 17
Nghost:        6213.54 ave        8769 max         412 min
Histogram: 4 0 4 0 8 0 4 5 7 20
Neighs:       158427.0 ave      230694 max           0 min
Histogram: 4 2 2 0 5 3 4 4 12 16

Total # of neighbors = 8238189
Ave neighs/atom = 28.530426
Neighbor list builds = 1
Dangerous builds = 0
The dot product: -1.43458114228355e-06
Setting atom values ...
  1 settings made for x
  1 settings made for y
  1 settings made for z
Setting up cg style minimization ...
  Unit style    : metal
  Current step  : 5710
Per MPI rank memory allocation (min/avg/max) = 5.465 | 6.344 | 6.728 Mbytes
Step PotEng KinEng TotEng v_fx v_fy v_fz 
    5710   -1152449.3            0   -1152449.3  -0.02571913  0.045575345 -0.056019077 
    5890   -1152449.3            0   -1152449.3 -8.4346407e-06 1.9430511e-05 -1.5820766e-05 
Loop time of 3.92608 on 52 procs for 180 steps with 288751 atoms

99.9% CPU use with 52 MPI tasks x 1 OpenMP threads

Minimization stats:
  Stopping criterion = energy tolerance
  Energy initial, next-to-last, final = 
     -1152449.31372904  -1152449.31576177  -1152449.31576177
  Force two-norm initial, final = 0.15795449 0.00020916329
  Force max component initial, final = 0.056019077 4.6424533e-05
  Final line search alpha, max atom move = 1.0000000 4.6424533e-05
  Iterations, force evaluations = 180 360

MPI task timing breakdown:
Section |  min time  |  avg time  |  max time  |%varavg| %total
---------------------------------------------------------------
Pair    | 1.0172     | 2.8567     | 3.7566     |  46.7 | 72.76
Neigh   | 0          | 0          | 0          |   0.0 |  0.00
Comm    | 0.050563   | 0.6273     | 1.9909     |  72.1 | 15.98
Output  | 0          | 0          | 0          |   0.0 |  0.00
Modify  | 6.1984e-05 | 0.0060528  | 0.012827   |   3.6 |  0.15
Other   |            | 0.436      |            |       | 11.11

Nlocal:        5552.90 ave        7909 max           0 min
Histogram: 4 2 2 0 2 6 4 1 14 17
Nghost:        6213.62 ave        8769 max         412 min
Histogram: 4 0 4 0 8 0 4 5 7 20
Neighs:       158427.0 ave      230539 max           0 min
Histogram: 4 2 2 0 5 3 4 4 12 16

Total # of neighbors = 8238197
Ave neighs/atom = 28.530454
Neighbor list builds = 0
Dangerous builds = 0
The dot product: 5.03518500148839e-07
Setting atom values ...
  1 settings made for x
  1 settings made for y
  1 settings made for z
Setting up cg style minimization ...
  Unit style    : metal
  Current step  : 5890
Per MPI rank memory allocation (min/avg/max) = 5.465 | 6.344 | 6.728 Mbytes
Step PotEng KinEng TotEng v_fx v_fy v_fz 
    5890   -1152449.3            0   -1152449.3 0.0051938268 -0.069453176 -0.028059873 
    6000   -1152449.3            0   -1152449.3 -2.2137423e-05 -4.3526792e-05 -9.590272e-05 
    6021   -1152449.3            0   -1152449.3 1.2118951e-05 1.3252233e-05 4.5788907e-05 
Loop time of 2.87333 on 52 procs for 131 steps with 288751 atoms

99.9% CPU use with 52 MPI tasks x 1 OpenMP threads

Minimization stats:
  Stopping criterion = energy tolerance
  Energy initial, next-to-last, final = 
      -1152449.3244357  -1152449.32567867  -1152449.32567867
  Force two-norm initial, final = 0.16163537 0.00025037359
  Force max component initial, final = 0.069453176 4.6948320e-05
  Final line search alpha, max atom move = 1.0000000 4.6948320e-05
  Iterations, force evaluations = 131 262

MPI task timing breakdown:
Section |  min time  |  avg time  |  max time  |%varavg| %total
---------------------------------------------------------------
Pair    | 0.73924    | 2.0861     | 2.7587     |  40.1 | 72.60
Neigh   | 0          | 0          | 0          |   0.0 |  0.00
Comm    | 0.035133   | 0.45714    | 1.4413     |  61.5 | 15.91
Output  | 0.00012185 | 0.00012597 | 0.00026841 |   0.0 |  0.00
Modify  | 5.6241e-05 | 0.0043906  | 0.0092703  |   3.1 |  0.15
Other   |            | 0.3255     |            |       | 11.33

Nlocal:        5552.90 ave        7913 max           0 min
Histogram: 4 2 2 0 2 6 4 1 14 17
Nghost:        6213.54 ave        8769 max         412 min
Histogram: 4 0 4 0 8 0 4 5 7 20
Neighs:       158427.0 ave      230670 max           0 min
Histogram: 4 2 2 0 5 3 4 4 12 16

Total # of neighbors = 8238197
Ave neighs/atom = 28.530454
Neighbor list builds = 0
Dangerous builds = 0
The dot product: -1.26984136074046e-07
Setting atom values ...
  1 settings made for x
  1 settings made for y
  1 settings made for z
Setting up cg style minimization ...
  Unit style    : metal
  Current step  : 6021
Per MPI rank memory allocation (min/avg/max) = 5.465 | 6.344 | 6.728 Mbytes
Step PotEng KinEng TotEng v_fx v_fy v_fz 
    6021   -1152449.3            0   -1152449.3 0.00068870348 -0.055178827 -0.031298697 
    6238   -1152449.3            0   -1152449.3 -1.0161557e-06 -3.244777e-06 -5.0875324e-06 
Loop time of 4.72561 on 52 procs for 217 steps with 288751 atoms

99.9% CPU use with 52 MPI tasks x 1 OpenMP threads

Minimization stats:
  Stopping criterion = linesearch alpha is zero
  Energy initial, next-to-last, final = 
       -1152449.332775  -1152449.33397261  -1152449.33397261
  Force two-norm initial, final = 0.15739599 3.7335132e-05
  Force max component initial, final = 0.055178827 6.9574265e-06
  Final line search alpha, max atom move = 0.5 3.4787132e-06
  Iterations, force evaluations = 217 435

MPI task timing breakdown:
Section |  min time  |  avg time  |  max time  |%varavg| %total
---------------------------------------------------------------
Pair    | 1.2303     | 3.4484     | 4.5361     |  51.4 | 72.97
Neigh   | 0          | 0          | 0          |   0.0 |  0.00
Comm    | 0.058979   | 0.75508    | 2.4035     |  79.4 | 15.98
Output  | 0          | 0          | 0          |   0.0 |  0.00
Modify  | 7.1643e-05 | 0.0072925  | 0.015426   |   4.0 |  0.15
Other   |            | 0.5148     |            |       | 10.89

Nlocal:        5552.90 ave        7913 max           0 min
Histogram: 4 2 2 0 2 6 4 1 14 17
Nghost:        6213.58 ave        8769 max         412 min
Histogram: 4 0 4 0 8 0 4 5 7 20
Neighs:       158427.0 ave      230670 max           0 min
Histogram: 4 2 2 0 5 3 4 4 12 16

Total # of neighbors = 8238197
Ave neighs/atom = 28.530454
Neighbor list builds = 0
Dangerous builds = 0
The dot product: 1.85147284802486e-08
Setting atom values ...
  1 settings made for x
  1 settings made for y
  1 settings made for z
Setting up cg style minimization ...
  Unit style    : metal
  Current step  : 6238
Per MPI rank memory allocation (min/avg/max) = 5.465 | 6.344 | 6.728 Mbytes
Step PotEng KinEng TotEng v_fx v_fy v_fz 
    6238   -1152449.3            0   -1152449.3 0.0012912228 -0.058620443 -0.030638243 
    6375   -1152449.3            0   -1152449.3 1.9830833e-05 -2.7824626e-05 4.4081151e-05 
Loop time of 2.99055 on 52 procs for 137 steps with 288751 atoms

99.9% CPU use with 52 MPI tasks x 1 OpenMP threads

Minimization stats:
  Stopping criterion = energy tolerance
  Energy initial, next-to-last, final = 
     -1152449.33944126   -1152449.3406637   -1152449.3406637
  Force two-norm initial, final = 0.15914675 0.00027168466
  Force max component initial, final = 0.058620443 4.7393401e-05
  Final line search alpha, max atom move = 1.0000000 4.7393401e-05
  Iterations, force evaluations = 137 274

MPI task timing breakdown:
Section |  min time  |  avg time  |  max time  |%varavg| %total
---------------------------------------------------------------
Pair    | 0.77339    | 2.1796     | 2.8714     |  40.9 | 72.88
Neigh   | 0          | 0          | 0          |   0.0 |  0.00
Comm    | 0.036843   | 0.47626    | 1.5084     |  62.9 | 15.93
Output  | 0          | 0          | 0          |   0.0 |  0.00
Modify  | 4.6504e-05 | 0.0045915  | 0.0096503  |   3.2 |  0.15
Other   |            | 0.3301     |            |       | 11.04

Nlocal:        5552.90 ave        7913 max           0 min
Histogram: 4 2 2 0 2 6 4 1 14 17
Nghost:        6213.54 ave        8769 max         412 min
Histogram: 4 0 4 0 8 0 4 5 7 20
Neighs:       158427.0 ave      230669 max           0 min
Histogram: 4 2 2 0 5 3 4 4 12 16

Total # of neighbors = 8238196
Ave neighs/atom = 28.530450
Neighbor list builds = 0
Dangerous builds = 0
The dot product: 2.05265023163336e-08
Setting atom values ...
  1 settings made for x
  1 settings made for y
  1 settings made for z
Setting up cg style minimization ...
  Unit style    : metal
  Current step  : 6375
Per MPI rank memory allocation (min/avg/max) = 5.465 | 6.344 | 6.728 Mbytes
Step PotEng KinEng TotEng v_fx v_fy v_fz 
    6375   -1152449.3            0   -1152449.3 0.0013706997 -0.058936022 -0.029583312 
    6507   -1152449.3            0   -1152449.3 -1.1533476e-05 -5.3827237e-05 -6.5758999e-05 
Loop time of 2.87475 on 52 procs for 132 steps with 288751 atoms

99.9% CPU use with 52 MPI tasks x 1 OpenMP threads

Minimization stats:
  Stopping criterion = energy tolerance
  Energy initial, next-to-last, final = 
     -1152449.34452259   -1152449.3457541   -1152449.3457541
[...]
Nghost:        6213.56 ave        8769 max         412 min
Histogram: 4 0 4 0 8 0 4 5 7 20
Neighs:       158427.0 ave      230366 max           0 min
Histogram: 4 2 2 0 5 3 4 4 12 16

Total # of neighbors = 8238198
Ave neighs/atom = 28.530457
Neighbor list builds = 0
Dangerous builds = 0
The dot product: 2.03599923812855e-08
Setting atom values ...
  1 settings made for x
  1 settings made for y
  1 settings made for z
Setting up cg style minimization ...
  Unit style    : metal
  Current step  : 19760
Per MPI rank memory allocation (min/avg/max) = 5.465 | 6.344 | 6.728 Mbytes
Step PotEng KinEng TotEng v_fx v_fy v_fz 
   19760   -1152448.9            0   -1152448.9 -0.0022126385 -0.0039371631 -0.0045533378 
   19927   -1152448.9            0   -1152448.9 1.2163255e-05 -1.9265656e-05 2.2354718e-05 
Loop time of 3.59327 on 52 procs for 167 steps with 288751 atoms

99.9% CPU use with 52 MPI tasks x 1 OpenMP threads

Minimization stats:
  Stopping criterion = energy tolerance
  Energy initial, next-to-last, final = 
     -1152448.91290927  -1152448.91402173  -1152448.91402173
  Force two-norm initial, final = 0.1375405 0.00025960763
  Force max component initial, final = 0.057069629 2.6372430e-05
  Final line search alpha, max atom move = 1.0000000 2.6372430e-05
  Iterations, force evaluations = 167 334

MPI task timing breakdown:
Section |  min time  |  avg time  |  max time  |%varavg| %total
---------------------------------------------------------------
Pair    | 0.94331    | 2.6295     | 3.438      |  44.6 | 73.18
Neigh   | 0          | 0          | 0          |   0.0 |  0.00
Comm    | 0.042196   | 0.57608    | 1.8388     |  69.2 | 16.03
Output  | 0          | 0          | 0          |   0.0 |  0.00
Modify  | 6.2261e-05 | 0.0055576  | 0.011686   |   3.5 |  0.15
Other   |            | 0.3821     |            |       | 10.63

Nlocal:        5552.90 ave        7904 max           0 min
Histogram: 4 2 2 0 2 6 4 1 14 17
Nghost:        6213.56 ave        8769 max         412 min
Histogram: 4 0 4 0 8 0 4 5 7 20
Neighs:       158427.0 ave      230374 max           0 min
Histogram: 4 2 2 0 5 3 4 4 12 16

Total # of neighbors = 8238196
Ave neighs/atom = 28.530450
Neighbor list builds = 0
Dangerous builds = 0
The dot product: -4.94710549824103e-08
Setting atom values ...
  1 settings made for x
  1 settings made for y
  1 settings made for z
Setting up cg style minimization ...
  Unit style    : metal
  Current step  : 19927
Per MPI rank memory allocation (min/avg/max) = 5.465 | 6.344 | 6.728 Mbytes
Step PotEng KinEng TotEng v_fx v_fy v_fz 
   19927   -1152448.9            0   -1152448.9 -0.0025788392 -0.0031840519 -0.0051947861 
   20000   -1152448.9            0   -1152448.9 0.0001239334 -0.00018343817 0.00022814403 
   20091   -1152448.9            0   -1152448.9 -1.2791981e-05 3.3740661e-05 -2.2601805e-05 
Loop time of 3.60503 on 52 procs for 164 steps with 288751 atoms

99.9% CPU use with 52 MPI tasks x 1 OpenMP threads

Minimization stats:
  Stopping criterion = linesearch alpha is zero
  Energy initial, next-to-last, final = 
     -1152448.92253025  -1152448.92363276  -1152448.92363276
  Force two-norm initial, final = 0.13691812 0.00029168305
  Force max component initial, final = 0.057469032 8.4650001e-05
  Final line search alpha, max atom move = 0.125 1.0581250e-05
  Iterations, force evaluations = 164 333

MPI task timing breakdown:
Section |  min time  |  avg time  |  max time  |%varavg| %total
---------------------------------------------------------------
Pair    | 0.94126    | 2.6262     | 3.446      |  44.8 | 72.85
Neigh   | 0          | 0          | 0          |   0.0 |  0.00
Comm    | 0.042254   | 0.57684    | 1.8231     |  68.5 | 16.00
Output  | 0.00017627 | 0.00017997 | 0.00033947 |   0.0 |  0.00
Modify  | 5.4917e-05 | 0.0055398  | 0.011655   |   3.5 |  0.15
Other   |            | 0.3963     |            |       | 10.99

Nlocal:        5552.90 ave        7903 max           0 min
Histogram: 4 2 2 0 2 6 4 1 14 17
Nghost:        6213.56 ave        8769 max         412 min
Histogram: 4 0 4 0 8 0 4 5 7 20
Neighs:       158427.0 ave      230330 max           0 min
Histogram: 4 2 2 0 5 3 4 4 12 16

Total # of neighbors = 8238194
Ave neighs/atom = 28.530443
Neighbor list builds = 0
Dangerous builds = 0
The dot product: 2.90450687601177e-08
Setting atom values ...
  1 settings made for x
  1 settings made for y
  1 settings made for z
Setting up cg style minimization ...
  Unit style    : metal
  Current step  : 20091
Per MPI rank memory allocation (min/avg/max) = 5.465 | 6.344 | 6.728 Mbytes
Step PotEng KinEng TotEng v_fx v_fy v_fz 
   20091   -1152448.9            0   -1152448.9 -0.0041976622 -0.00038159639 -0.0081203741 
   20267   -1152448.9            0   -1152448.9 2.4376333e-05 -3.3853363e-05 4.4913363e-05 
Loop time of 3.77735 on 52 procs for 176 steps with 288751 atoms

99.9% CPU use with 52 MPI tasks x 1 OpenMP threads

Minimization stats:
  Stopping criterion = energy tolerance
  Energy initial, next-to-last, final = 
     -1152448.93072677  -1152448.93181193  -1152448.93181193
  Force two-norm initial, final = 0.1362324 0.00020713076
  Force max component initial, final = 0.05848086 6.9547069e-05
  Final line search alpha, max atom move = 1.0000000 6.9547069e-05
  Iterations, force evaluations = 176 352

MPI task timing breakdown:
Section |  min time  |  avg time  |  max time  |%varavg| %total
---------------------------------------------------------------
Pair    | 0.99229    | 2.7689     | 3.6296     |  45.9 | 73.30
Neigh   | 0          | 0          | 0          |   0.0 |  0.00
Comm    | 0.04502    | 0.60502    | 1.9361     |  71.0 | 16.02
Output  | 0          | 0          | 0          |   0.0 |  0.00
Modify  | 5.6734e-05 | 0.0058667  | 0.012281   |   3.6 |  0.16
Other   |            | 0.3976     |            |       | 10.53

Nlocal:        5552.90 ave        7902 max           0 min
Histogram: 4 2 2 0 2 6 4 0 15 17
Nghost:        6213.52 ave        8769 max         412 min
Histogram: 4 0 4 0 8 0 4 5 7 20
Neighs:       158427.0 ave      230300 max           0 min
Histogram: 4 2 2 0 5 3 4 4 12 16

Total # of neighbors = 8238197
Ave neighs/atom = 28.530454
Neighbor list builds = 0
Dangerous builds = 0
The dot product: -1.64307769494162e-07
Setting atom values ...
  1 settings made for x
  1 settings made for y
  1 settings made for z
Setting up cg style minimization ...
  Unit style    : metal
  Current step  : 20267
Per MPI rank memory allocation (min/avg/max) = 5.465 | 6.344 | 6.728 Mbytes
Step PotEng KinEng TotEng v_fx v_fy v_fz 
   20267   -1152448.9            0   -1152448.9 -0.0067714769 0.0040735534 -0.012758024 
   20410   -1152448.9            0   -1152448.9 3.4779381e-06 -6.972931e-06 6.2580997e-06 
Loop time of 3.12167 on 52 procs for 143 steps with 288751 atoms

99.9% CPU use with 52 MPI tasks x 1 OpenMP threads

Minimization stats:
  Stopping criterion = linesearch alpha is zero
  Energy initial, next-to-last, final = 
     -1152448.93770959  -1152448.93880549  -1152448.93880549
  Force two-norm initial, final = 0.13657017 0.00023428526
  Force max component initial, final = 0.059277333 1.3843448e-05
  Final line search alpha, max atom move = 0.125 1.7304311e-06
  Iterations, force evaluations = 143 291

MPI task timing breakdown:
Section |  min time  |  avg time  |  max time  |%varavg| %total
---------------------------------------------------------------
Pair    | 0.82216    | 2.2897     | 2.9997     |  41.7 | 73.35
Neigh   | 0          | 0          | 0          |   0.0 |  0.00
Comm    | 0.036862   | 0.49937    | 1.5927     |  64.5 | 16.00
Output  | 0          | 0          | 0          |   0.0 |  0.00
Modify  | 4.798e-05  | 0.0048491  | 0.010195   |   3.3 |  0.16
Other   |            | 0.3278     |            |       | 10.50

Nlocal:        5552.90 ave        7901 max           0 min
Histogram: 4 2 2 0 2 6 4 0 15 17
Nghost:        6213.48 ave        8769 max         412 min
Histogram: 4 0 4 0 8 0 4 5 7 20
Neighs:       158427.0 ave      230258 max           0 min
Histogram: 4 2 2 0 5 3 4 4 12 16

Total # of neighbors = 8238200
Ave neighs/atom = 28.530464
Neighbor list builds = 0
Dangerous builds = 0
The dot product: -3.83332021894263e-08
Setting atom values ...
  1 settings made for x
  1 settings made for y
  1 settings made for z
Setting up cg style minimization ...
  Unit style    : metal
  Current step  : 20410
Per MPI rank memory allocation (min/avg/max) = 5.465 | 6.344 | 6.728 Mbytes
Step PotEng KinEng TotEng v_fx v_fy v_fz 
   20410   -1152448.9            0   -1152448.9 -0.0075334549 0.0060918076 -0.014012196 
   20595   -1152448.9            0   -1152448.9 3.5969293e-06 -3.9400398e-06 6.629745e-06 
Loop time of 3.9661 on 52 procs for 185 steps with 288751 atoms

99.9% CPU use with 52 MPI tasks x 1 OpenMP threads

Minimization stats:
  Stopping criterion = energy tolerance
  Energy initial, next-to-last, final = 
     -1152448.94380035  -1152448.94493927  -1152448.94493927
  Force two-norm initial, final = 0.13704614 0.00011996338
  Force max component initial, final = 0.059815017 1.2748414e-05
  Final line search alpha, max atom move = 1.0000000 1.2748414e-05
  Iterations, force evaluations = 185 370

MPI task timing breakdown:
Section |  min time  |  avg time  |  max time  |%varavg| %total
---------------------------------------------------------------
Pair    | 1.0441     | 2.9076     | 3.8059     |  47.0 | 73.31
Neigh   | 0          | 0          | 0          |   0.0 |  0.00
Comm    | 0.046182   | 0.63427    | 2.0245     |  72.8 | 15.99
Output  | 0          | 0          | 0          |   0.0 |  0.00
Modify  | 6.6318e-05 | 0.0061522  | 0.012932   |   3.7 |  0.16
Other   |            | 0.4181     |            |       | 10.54

Nlocal:        5552.90 ave        7901 max           0 min
Histogram: 4 2 2 0 2 6 4 0 15 17
Nghost:        6213.50 ave        8769 max         412 min
Histogram: 4 0 4 0 8 0 4 5 7 20
Neighs:       158427.0 ave      230259 max           0 min
Histogram: 4 2 2 0 5 3 4 4 12 16

Total # of neighbors = 8238202
Ave neighs/atom = 28.530471
Neighbor list builds = 0
Dangerous builds = 0
The dot product: -6.04115070465078e-08
Setting atom values ...
  1 settings made for x
  1 settings made for y
  1 settings made for z
Setting up cg style minimization ...
  Unit style    : metal
  Current step  : 20595
Per MPI rank memory allocation (min/avg/max) = 5.465 | 6.344 | 6.728 Mbytes
Step PotEng KinEng TotEng v_fx v_fy v_fz 
   20595   -1152448.9            0   -1152448.9 -0.0067943519 0.0059691806 -0.012509561 
   20749     -1152449            0     -1152449 -5.3867191e-06 6.8314132e-06 -9.7980133e-06 
Loop time of 3.29906 on 52 procs for 154 steps with 288751 atoms

99.9% CPU use with 52 MPI tasks x 1 OpenMP threads

Minimization stats:
  Stopping criterion = energy tolerance
  Energy initial, next-to-last, final = 
       -1152448.949126  -1152448.95026673  -1152448.95026673
  Force two-norm initial, final = 0.13682257 0.00015692768
  Force max component initial, final = 0.060136887 1.7241589e-05
  Final line search alpha, max atom move = 1.0000000 1.7241589e-05
  Iterations, force evaluations = 154 308

MPI task timing breakdown:
Section |  min time  |  avg time  |  max time  |%varavg| %total
---------------------------------------------------------------
Pair    | 0.8683     | 2.4205     | 3.1693     |  42.9 | 73.37
Neigh   | 0          | 0          | 0          |   0.0 |  0.00
Comm    | 0.03907    | 0.52775    | 1.6855     |  66.5 | 16.00
Output  | 0          | 0          | 0          |   0.0 |  0.00
Modify  | 5.1736e-05 | 0.0051221  | 0.010782   |   3.4 |  0.16
Other   |            | 0.3457     |            |       | 10.48

Nlocal:        5552.90 ave        7901 max           0 min
Histogram: 4 2 2 0 2 6 4 0 15 17
Nghost:        6213.50 ave        8769 max         412 min
Histogram: 4 0 4 0 8 0 4 5 7 20
Neighs:       158427.0 ave      230252 max           0 min
Histogram: 4 2 2 0 5 3 4 4 12 16

Total # of neighbors = 8238202
Ave neighs/atom = 28.530471
Neighbor list builds = 0
Dangerous builds = 0
The dot product: 1.44158635564436e-07
Setting atom values ...
  1 settings made for x
  1 settings made for y
  1 settings made for z
Setting up cg style minimization ...
  Unit style    : metal
  Current step  : 20749
Per MPI rank memory allocation (min/avg/max) = 5.465 | 6.344 | 6.728 Mbytes
Step PotEng KinEng TotEng v_fx v_fy v_fz 
   20749     -1152449            0     -1152449 -0.0056656493 0.0052625878 -0.010287182 
   20934     -1152449            0     -1152449 2.8837493e-05 -4.0729546e-05 5.1567182e-05 
Loop time of 3.98105 on 52 procs for 185 steps with 288751 atoms

99.9% CPU use with 52 MPI tasks x 1 OpenMP threads

Minimization stats:
  Stopping criterion = energy tolerance
  Energy initial, next-to-last, final = 
     -1152448.95376414  -1152448.95499442  -1152448.95499442
  Force two-norm initial, final = 0.13662815 0.00019785463
  Force max component initial, final = 0.060115528 5.5700785e-05
  Final line search alpha, max atom move = 1.0000000 5.5700785e-05
  Iterations, force evaluations = 185 372

MPI task timing breakdown:
Section |  min time  |  avg time  |  max time  |%varavg| %total
---------------------------------------------------------------
Pair    | 1.0488     | 2.922      | 3.8254     |  47.1 | 73.40
Neigh   | 0          | 0          | 0          |   0.0 |  0.00
Comm    | 0.046961   | 0.6368     | 2.0323     |  73.1 | 16.00
Output  | 0          | 0          | 0          |   0.0 |  0.00
Modify  | 6.4082e-05 | 0.006201   | 0.013018   |   3.7 |  0.16
Other   |            | 0.416      |            |       | 10.45

Nlocal:        5552.90 ave        7900 max           0 min
Histogram: 4 2 2 0 2 6 4 0 14 18
Nghost:        6213.56 ave        8769 max         412 min
Histogram: 4 0 4 0 8 0 4 5 7 20
Neighs:       158427.0 ave      230214 max           0 min
Histogram: 4 2 2 0 5 3 4 4 12 16

Total # of neighbors = 8238204
Ave neighs/atom = 28.530478
Neighbor list builds = 0
Dangerous builds = 0
The dot product: -7.78130111296423e-07
Setting atom values ...
  1 settings made for x
  1 settings made for y
  1 settings made for z
Setting up cg style minimization ...
  Unit style    : metal
  Current step  : 20934
Per MPI rank memory allocation (min/avg/max) = 5.465 | 6.344 | 6.728 Mbytes
Step PotEng KinEng TotEng v_fx v_fy v_fz 
   20934     -1152449            0     -1152449 -0.0046956884 0.0046001941 -0.0084079374 
   21000     -1152449            0     -1152449 -1.623474e-05 3.1967535e-05 -2.8153071e-05 
   21087     -1152449            0     -1152449 2.8634467e-05 -3.9469988e-05 5.062057e-05 
Loop time of 3.29785 on 52 procs for 153 steps with 288751 atoms

99.9% CPU use with 52 MPI tasks x 1 OpenMP threads

Minimization stats:
  Stopping criterion = energy tolerance
  Energy initial, next-to-last, final = 
     -1152448.95774828  -1152448.95885511  -1152448.95885511
  Force two-norm initial, final = 0.13664298 0.00022189978
  Force max component initial, final = 0.060081493 5.7682820e-05
  Final line search alpha, max atom move = 1.0000000 5.7682820e-05
  Iterations, force evaluations = 153 306

MPI task timing breakdown:
Section |  min time  |  avg time  |  max time  |%varavg| %total
---------------------------------------------------------------
Pair    | 0.86571    | 2.4082     | 3.1544     |  42.8 | 73.02
Neigh   | 0          | 0          | 0          |   0.0 |  0.00
Comm    | 0.039868   | 0.52813    | 1.6753     |  66.0 | 16.01
Output  | 0.00011468 | 0.00011925 | 0.00028624 |   0.0 |  0.00
Modify  | 5.3558e-05 | 0.0050871  | 0.010672   |   3.3 |  0.15
Other   |            | 0.3563     |            |       | 10.81

Nlocal:        5552.90 ave        7898 max           0 min
Histogram: 4 2 2 0 2 6 4 0 14 18
Nghost:        6213.56 ave        8769 max         412 min
Histogram: 4 0 4 0 8 0 4 5 7 20
Neighs:       158427.0 ave      230149 max           0 min
Histogram: 4 2 2 0 5 3 4 4 12 16

Total # of neighbors = 8238204
Ave neighs/atom = 28.530478
Neighbor list builds = 0
Dangerous builds = 0
The dot product: -5.14600881939721e-07
Setting atom values ...
  1 settings made for x
  1 settings made for y
  1 settings made for z
Setting up cg style minimization ...
  Unit style    : metal
  Current step  : 21087
Per MPI rank memory allocation (min/avg/max) = 5.465 | 6.344 | 6.728 Mbytes
Step PotEng KinEng TotEng v_fx v_fy v_fz 
   21087     -1152449            0     -1152449 -0.0040679015 0.0043733386 -0.0072010306 
   21372     -1152449            0     -1152449 -8.4607138e-06 1.1841936e-05 -1.4822977e-05 
Loop time of 6.1115 on 52 procs for 285 steps with 288751 atoms

99.9% CPU use with 52 MPI tasks x 1 OpenMP threads

Minimization stats:
  Stopping criterion = energy tolerance
  Energy initial, next-to-last, final = 
     -1152448.96073021  -1152448.96336711  -1152448.96336711
  Force two-norm initial, final = 0.13696847 7.9380830e-05
  Force max component initial, final = 0.060217839 1.4822977e-05
  Final line search alpha, max atom move = 1.0000000 1.4822977e-05
  Iterations, force evaluations = 285 570

MPI task timing breakdown:
Section |  min time  |  avg time  |  max time  |%varavg| %total
---------------------------------------------------------------
Pair    | 1.6115     | 4.4773     | 5.8629     |  58.3 | 73.26
Neigh   | 1.9143e-05 | 0.0057122  | 0.0084746  |   3.2 |  0.09
Comm    | 0.072612   | 0.97835    | 3.1205     |  90.2 | 16.01
Output  | 0          | 0          | 0          |   0.0 |  0.00
Modify  | 8.8704e-05 | 0.0094917  | 0.019931   |   4.6 |  0.16
Other   |            | 0.6407     |            |       | 10.48

Nlocal:        5552.90 ave        7892 max           0 min
Histogram: 4 2 2 0 2 6 4 0 14 18
Nghost:        6213.73 ave        8770 max         412 min
Histogram: 4 0 4 0 8 0 4 5 7 20
Neighs:       158427.0 ave      229947 max           0 min
Histogram: 4 2 2 0 5 3 4 4 12 16

Total # of neighbors = 8238208
Ave neighs/atom = 28.530492
Neighbor list builds = 1
Dangerous builds = 0
The dot product: 1.69365560093622e-06
Setting atom values ...
  1 settings made for x
  1 settings made for y
  1 settings made for z
Setting up cg style minimization ...
  Unit style    : metal
  Current step  : 21372
Per MPI rank memory allocation (min/avg/max) = 5.465 | 6.344 | 6.728 Mbytes
Step PotEng KinEng TotEng v_fx v_fy v_fz 
   21372     -1152449            0     -1152449 0.0033709497 0.00080694288 0.0057899471 
   21553     -1152449            0     -1152449 -1.3430997e-05 1.5018248e-05 -2.1748586e-05 
Loop time of 3.88974 on 52 procs for 181 steps with 288751 atoms

99.9% CPU use with 52 MPI tasks x 1 OpenMP threads

Minimization stats:
  Stopping criterion = energy tolerance
  Energy initial, next-to-last, final = 
     -1152448.96613726  -1152448.96719849  -1152448.96719849
  Force two-norm initial, final = 0.13705955 0.00012965346
  Force max component initial, final = 0.061170557 3.8262373e-05
  Final line search alpha, max atom move = 1.0000000 3.8262373e-05
  Iterations, force evaluations = 181 362

MPI task timing breakdown:
Section |  min time  |  avg time  |  max time  |%varavg| %total
---------------------------------------------------------------
Pair    | 1.0234     | 2.8491     | 3.7373     |  46.5 | 73.25
Neigh   | 0          | 0          | 0          |   0.0 |  0.00
Comm    | 0.046788   | 0.62331    | 1.9799     |  71.8 | 16.02
Output  | 0          | 0          | 0          |   0.0 |  0.00
Modify  | 6.2268e-05 | 0.006027   | 0.012695   |   3.6 |  0.15
Other   |            | 0.4113     |            |       | 10.58

Nlocal:        5552.90 ave        7893 max           0 min
Histogram: 4 2 2 0 2 6 4 0 14 18
Nghost:        6213.71 ave        8770 max         412 min
Histogram: 4 0 4 0 8 0 4 5 7 20
Neighs:       158427.0 ave      229974 max           0 min
Histogram: 4 2 2 0 5 3 4 4 12 16

Total # of neighbors = 8238204
Ave neighs/atom = 28.530478
Neighbor list builds = 0
Dangerous builds = 0
The dot product: 9.49947757231393e-08
