LAMMPS (29 Oct 2020)
OMP_NUM_THREADS environment is not set. Defaulting to 1 thread. (../comm.cpp:94)
  using 1 OpenMP thread(s) per MPI task
OMP_NUM_THREADS environment is not set. Defaulting to 1 thread. (../comm.cpp:94)
  using 1 OpenMP thread(s) per MPI task
Reading data file ...
  orthogonal box = (-122.39241 -121.13707 -37.090501) to (122.39241 121.13707 37.090501)
  13 by 4 by 2 MPI processor grid
  reading atoms ...
  288751 atoms
  read_data CPU = 0.388 seconds
199981 atoms in group inner
88770 atoms in group outer
1 atoms in group carbon
Neighbor list info ...
  update every 1 steps, delay 0 steps, check yes
  max neighbors/atom: 2000, page size: 100000
  master list distance cutoff = 5.6
  ghost atom cutoff = 5.6
  binsize = 2.8, bins = 88 87 27
  1 neighbor lists, perpetual/occasional/extra = 1 0 0
  (1) pair eam/alloy, perpetual
      attributes: half, newton on
      pair build: half/bin/atomonly/newton
      stencil: half/bin/3d/newton
      bin: standard
Setting up cg style minimization ...
  Unit style    : metal
  Current step  : 0
Per MPI rank memory allocation (min/avg/max) = 5.441 | 5.816 | 6.074 Mbytes
Step v_fx v_fy v_fz PotEng KinEng TotEng 
       0    1.7645158  -0.78152163    -2.595204   -1152447.8            0   -1152447.8 
     174 -7.9770166e-06 -5.0787666e-07 5.289732e-06   -1152449.5            0   -1152449.5 
Loop time of 2.03591 on 104 procs for 174 steps with 288751 atoms

99.8% CPU use with 104 MPI tasks x 1 OpenMP threads

Minimization stats:
  Stopping criterion = energy tolerance
  Energy initial, next-to-last, final = 
     -1152447.77651833  -1152449.45035286  -1152449.45035286
  Force two-norm initial, final = 10.232381 5.3900721e-05
  Force max component initial, final = 6.2386116 7.9770166e-06
  Final line search alpha, max atom move = 1.0000000 7.9770166e-06
  Iterations, force evaluations = 174 347

MPI task timing breakdown:
Section |  min time  |  avg time  |  max time  |%varavg| %total
---------------------------------------------------------------
Pair    | 0.54149    | 1.4581     | 1.8919     |  32.2 | 71.62
Neigh   | 3.1885e-05 | 0.0088387  | 0.012822   |   3.9 |  0.43
Comm    | 0.035957   | 0.33071    | 0.99054    |  47.9 | 16.24
Output  | 0          | 0          | 0          |   0.0 |  0.00
Modify  | 1.8851e-05 | 0.001868   | 0.0047956  |   2.7 |  0.09
Other   |            | 0.2364     |            |       | 11.61

Nlocal:        2776.45 ave        3960 max           0 min
Histogram: 8 4 4 0 4 12 8 2 28 34
Nghost:        3879.03 ave        5424 max         232 min
Histogram: 8 0 8 0 16 0 8 8 16 40
Neighs:        79213.5 ave      115444 max           0 min
Histogram: 8 4 4 0 10 6 8 8 24 32

Total # of neighbors = 8238206
Ave neighs/atom = 28.530485
Neighbor list builds = 3
Dangerous builds = 0
Setting atom values ...
  1 settings made for x
  1 settings made for y
  1 settings made for z
Setting up cg style minimization ...
  Unit style    : metal
  Current step  : 174
Per MPI rank memory allocation (min/avg/max) = 5.441 | 5.816 | 6.074 Mbytes
Step PotEng KinEng TotEng v_fx v_fy v_fz 
     174   -1152449.4            0   -1152449.4  0.012425316 -0.016205858 -0.020761056 
     351   -1152449.5            0   -1152449.5 5.9006398e-06 4.885929e-06 3.0311771e-05 
Loop time of 2.05595 on 104 procs for 177 steps with 288751 atoms

99.9% CPU use with 104 MPI tasks x 1 OpenMP threads

Minimization stats:
  Stopping criterion = energy tolerance
  Energy initial, next-to-last, final = 
     -1152449.44947035  -1152449.45002049  -1152449.45002049
  Force two-norm initial, final = 0.10820291 8.6430593e-05
  Force max component initial, final = 0.047627344 3.0311771e-05
  Final line search alpha, max atom move = 1.0000000 3.0311771e-05
  Iterations, force evaluations = 177 354

MPI task timing breakdown:
Section |  min time  |  avg time  |  max time  |%varavg| %total
---------------------------------------------------------------
Pair    | 0.53995    | 1.491      | 1.9306     |  32.9 | 72.52
Neigh   | 0          | 0          | 0          |   0.0 |  0.00
Comm    | 0.038572   | 0.33398    | 1.0228     |  49.1 | 16.24
Output  | 0          | 0          | 0          |   0.0 |  0.00
Modify  | 2.3786e-05 | 0.0029235  | 0.0062827  |   2.6 |  0.14
Other   |            | 0.228      |            |       | 11.09

Nlocal:        2776.45 ave        3960 max           0 min
Histogram: 8 4 4 0 4 12 8 2 28 34
Nghost:        3879.03 ave        5424 max         232 min
Histogram: 8 0 8 0 16 0 8 8 16 40
Neighs:        79213.4 ave      115435 max           0 min
Histogram: 8 4 4 0 10 6 8 8 24 32

Total # of neighbors = 8238197
Ave neighs/atom = 28.530454
Neighbor list builds = 0
Dangerous builds = 0
Setting atom values ...
  1 settings made for x
  1 settings made for y
  1 settings made for z
Setting up cg style minimization ...
  Unit style    : metal
  Current step  : 351
Per MPI rank memory allocation (min/avg/max) = 5.441 | 5.816 | 6.074 Mbytes
Step PotEng KinEng TotEng v_fx v_fy v_fz 
     351   -1152449.4            0   -1152449.4   0.02163936 -0.023318006   -0.0339219 
     454   -1152449.4            0   -1152449.4 -5.1551481e-05 4.4864334e-05 2.844224e-05 
Loop time of 1.19071 on 104 procs for 103 steps with 288751 atoms

99.9% CPU use with 104 MPI tasks x 1 OpenMP threads

Minimization stats:
  Stopping criterion = energy tolerance
  Energy initial, next-to-last, final = 
     -1152449.44665685  -1152449.44808449  -1152449.44808449
  Force two-norm initial, final = 0.17479158 0.00029512294
  Force max component initial, final = 0.079494224 5.1551481e-05
  Final line search alpha, max atom move = 1.0000000 5.1551481e-05
  Iterations, force evaluations = 103 206

MPI task timing breakdown:
Section |  min time  |  avg time  |  max time  |%varavg| %total
---------------------------------------------------------------
Pair    | 0.31281    | 0.86399    | 1.1254     |  25.1 | 72.56
Neigh   | 0          | 0          | 0          |   0.0 |  0.00
Comm    | 0.019548   | 0.19313    | 0.58545    |  37.3 | 16.22
Output  | 0          | 0          | 0          |   0.0 |  0.00
Modify  | 1.2728e-05 | 0.0017007  | 0.0036528  |   2.0 |  0.14
Other   |            | 0.1319     |            |       | 11.08

Nlocal:        2776.45 ave        3960 max           0 min
Histogram: 8 4 4 0 4 12 8 2 28 34
Nghost:        3879.03 ave        5424 max         232 min
Histogram: 8 0 8 0 16 0 8 8 16 40
Neighs:        79213.5 ave      115434 max           0 min
Histogram: 8 4 4 0 10 6 8 8 24 32

Total # of neighbors = 8238199
Ave neighs/atom = 28.530461
Neighbor list builds = 0
Dangerous builds = 0
The dot product: -8.50863744777059e-08
Setting atom values ...
  1 settings made for x
  1 settings made for y
  1 settings made for z
Setting up cg style minimization ...
  Unit style    : metal
  Current step  : 454
Per MPI rank memory allocation (min/avg/max) = 5.441 | 5.816 | 6.074 Mbytes
Step PotEng KinEng TotEng v_fx v_fy v_fz 
     454   -1152449.4            0   -1152449.4  0.020957516 -0.019073428 -0.032105622 
     602   -1152449.4            0   -1152449.4 8.3920848e-07 -9.3586472e-07 -2.9069839e-06 
Loop time of 1.71223 on 104 procs for 148 steps with 288751 atoms

99.9% CPU use with 104 MPI tasks x 1 OpenMP threads

Minimization stats:
  Stopping criterion = energy tolerance
  Energy initial, next-to-last, final = 
     -1152449.44327849  -1152449.44465941  -1152449.44465941
  Force two-norm initial, final = 0.17152099 2.7700454e-05
  Force max component initial, final = 0.079151959 3.4054193e-06
  Final line search alpha, max atom move = 1.0000000 3.4054193e-06
  Iterations, force evaluations = 148 296

MPI task timing breakdown:
Section |  min time  |  avg time  |  max time  |%varavg| %total
---------------------------------------------------------------
Pair    | 0.452      | 1.2487     | 1.6108     |  30.1 | 72.93
Neigh   | 0          | 0          | 0          |   0.0 |  0.00
Comm    | 0.027275   | 0.27743    | 0.84544    |  45.0 | 16.20
Output  | 0          | 0          | 0          |   0.0 |  0.00
Modify  | 1.8552e-05 | 0.0024504  | 0.0052686  |   2.3 |  0.14
Other   |            | 0.1836     |            |       | 10.72

Nlocal:        2776.45 ave        3958 max           0 min
Histogram: 8 4 4 0 4 12 8 2 28 34
Nghost:        3879.03 ave        5424 max         232 min
Histogram: 8 0 8 0 16 0 8 8 16 40
Neighs:        79213.5 ave      115369 max           0 min
Histogram: 8 4 4 0 10 6 8 8 24 32

Total # of neighbors = 8238199
Ave neighs/atom = 28.530461
Neighbor list builds = 0
Dangerous builds = 0
The dot product: 9.22312961117105e-09
Setting atom values ...
  1 settings made for x
  1 settings made for y
  1 settings made for z
Setting up cg style minimization ...
  Unit style    : metal
  Current step  : 602
Per MPI rank memory allocation (min/avg/max) = 5.441 | 5.816 | 6.074 Mbytes
Step PotEng KinEng TotEng v_fx v_fy v_fz 
     602   -1152449.4            0   -1152449.4  0.019611032 -0.015634716  -0.02642439 
     845   -1152449.4            0   -1152449.4 1.2343744e-06 -8.9252645e-07 1.9524749e-06 
Loop time of 2.78216 on 104 procs for 243 steps with 288751 atoms

99.9% CPU use with 104 MPI tasks x 1 OpenMP threads

Minimization stats:
  Stopping criterion = energy tolerance
  Energy initial, next-to-last, final = 
     -1152449.43854435  -1152449.43990859  -1152449.43990859
  Force two-norm initial, final = 0.16889204 1.0134949e-05
  Force max component initial, final = 0.077237521 1.9524749e-06
  Final line search alpha, max atom move = 1.0000000 1.9524749e-06
  Iterations, force evaluations = 243 486

MPI task timing breakdown:
Section |  min time  |  avg time  |  max time  |%varavg| %total
---------------------------------------------------------------
Pair    | 0.73811    | 2.03       | 2.6329     |  38.3 | 72.97
Neigh   | 0          | 0          | 0          |   0.0 |  0.00
Comm    | 0.048593   | 0.45001    | 1.3708     |  57.5 | 16.17
Output  | 0          | 0          | 0          |   0.0 |  0.00
Modify  | 2.8188e-05 | 0.0039968  | 0.0085697  |   3.0 |  0.14
Other   |            | 0.2981     |            |       | 10.72

Nlocal:        2776.45 ave        3958 max           0 min
Histogram: 8 4 4 0 4 12 8 2 28 34
Nghost:        3879.03 ave        5424 max         232 min
Histogram: 8 0 8 0 16 0 8 8 16 40
Neighs:        79213.5 ave      115370 max           0 min
Histogram: 8 4 4 0 10 6 8 8 24 32

Total # of neighbors = 8238201
Ave neighs/atom = 28.530467
Neighbor list builds = 0
Dangerous builds = 0
The dot product: -8.82875240389334e-09
Setting atom values ...
  1 settings made for x
  1 settings made for y
  1 settings made for z
Setting up cg style minimization ...
  Unit style    : metal
  Current step  : 845
Per MPI rank memory allocation (min/avg/max) = 5.441 | 5.816 | 6.074 Mbytes
Step PotEng KinEng TotEng v_fx v_fy v_fz 
     845   -1152449.4            0   -1152449.4  0.017889728 -0.013501578 -0.019690107 
    1000   -1152449.4            0   -1152449.4 -7.0205129e-06 4.5465142e-06 2.9071692e-05 
    1002   -1152449.4            0   -1152449.4 5.1909836e-06 -5.3108881e-06 3.3833706e-05 
Loop time of 1.81051 on 104 procs for 157 steps with 288751 atoms

99.9% CPU use with 104 MPI tasks x 1 OpenMP threads

Minimization stats:
  Stopping criterion = energy tolerance
  Energy initial, next-to-last, final = 
     -1152449.43243987  -1152449.43379618  -1152449.43379618
  Force two-norm initial, final = 0.16732306 0.00017311368
  Force max component initial, final = 0.074586802 3.3833706e-05
  Final line search alpha, max atom move = 1.0000000 3.3833706e-05
  Iterations, force evaluations = 157 314

MPI task timing breakdown:
Section |  min time  |  avg time  |  max time  |%varavg| %total
---------------------------------------------------------------
Pair    | 0.47845    | 1.3215     | 1.7095     |  31.0 | 72.99
Neigh   | 0          | 0          | 0          |   0.0 |  0.00
Comm    | 0.028578   | 0.2935     | 0.89671    |  46.3 | 16.21
Output  | 0.00018832 | 0.0001914  | 0.00034081 |   0.0 |  0.01
Modify  | 1.9327e-05 | 0.0025906  | 0.0055414  |   2.4 |  0.14
Other   |            | 0.1927     |            |       | 10.64

Nlocal:        2776.45 ave        3957 max           0 min
Histogram: 8 4 4 0 4 12 8 2 28 34
Nghost:        3879.03 ave        5424 max         232 min
Histogram: 8 0 8 0 16 0 8 8 16 40
Neighs:        79213.5 ave      115335 max           0 min
Histogram: 8 4 4 0 10 6 8 8 24 32

Total # of neighbors = 8238202
Ave neighs/atom = 28.530471
Neighbor list builds = 0
Dangerous builds = 0
The dot product: -1.18389632834751e-07
Setting atom values ...
  1 settings made for x
  1 settings made for y
  1 settings made for z
Setting up cg style minimization ...
  Unit style    : metal
  Current step  : 1002
Per MPI rank memory allocation (min/avg/max) = 5.441 | 5.816 | 6.074 Mbytes
Step PotEng KinEng TotEng v_fx v_fy v_fz 
    1002   -1152449.4            0   -1152449.4   0.01617979 -0.012382393 -0.013489138 
    1181   -1152449.4            0   -1152449.4 -7.0963668e-07 -2.8161639e-06 4.3241321e-05 
Loop time of 2.06696 on 104 procs for 179 steps with 288751 atoms

99.9% CPU use with 104 MPI tasks x 1 OpenMP threads

Minimization stats:
  Stopping criterion = energy tolerance
  Energy initial, next-to-last, final = 
     -1152449.42492512  -1152449.42628202  -1152449.42628202
  Force two-norm initial, final = 0.16675828 0.00012486733
  Force max component initial, final = 0.074387669 4.3241321e-05
  Final line search alpha, max atom move = 1.0000000 4.3241321e-05
  Iterations, force evaluations = 179 358

MPI task timing breakdown:
Section |  min time  |  avg time  |  max time  |%varavg| %total
---------------------------------------------------------------
Pair    | 0.54407    | 1.497      | 1.9489     |  33.0 | 72.42
Neigh   | 0          | 0          | 0          |   0.0 |  0.00
Comm    | 0.032331   | 0.33616    | 1.0232     |  48.8 | 16.26
Output  | 0          | 0          | 0          |   0.0 |  0.00
Modify  | 2.2425e-05 | 0.0029528  | 0.0063319  |   2.6 |  0.14
Other   |            | 0.2309     |            |       | 11.17

Nlocal:        2776.45 ave        3957 max           0 min
Histogram: 8 4 4 0 4 12 8 2 28 34
Nghost:        3879.03 ave        5424 max         232 min
Histogram: 8 0 8 0 16 0 8 8 16 40
Neighs:        79213.5 ave      115335 max           0 min
Histogram: 8 4 4 0 10 6 8 8 24 32

Total # of neighbors = 8238201
Ave neighs/atom = 28.530467
Neighbor list builds = 0
Dangerous builds = 0
The dot product: -1.14527739253967e-07
Setting atom values ...
  1 settings made for x
  1 settings made for y
  1 settings made for z
Setting up cg style minimization ...
  Unit style    : metal
  Current step  : 1181
Per MPI rank memory allocation (min/avg/max) = 5.441 | 5.816 | 6.074 Mbytes
Step PotEng KinEng TotEng v_fx v_fy v_fz 
    1181   -1152449.4            0   -1152449.4  0.014776303 -0.011915882 -0.0086762819 
    1294   -1152449.4            0   -1152449.4 3.8970924e-05 -2.3708957e-05 -9.2568186e-05 
Loop time of 1.29911 on 104 procs for 113 steps with 288751 atoms

99.9% CPU use with 104 MPI tasks x 1 OpenMP threads

Minimization stats:
  Stopping criterion = energy tolerance
  Energy initial, next-to-last, final = 
     -1152449.41597094  -1152449.41733465  -1152449.41733465
  Force two-norm initial, final = 0.16681229 0.00028672144
  Force max component initial, final = 0.074756972 9.2568186e-05
  Final line search alpha, max atom move = 1.0000000 9.2568186e-05
  Iterations, force evaluations = 113 226

MPI task timing breakdown:
Section |  min time  |  avg time  |  max time  |%varavg| %total
---------------------------------------------------------------
Pair    | 0.3433     | 0.9503     | 1.2322     |  26.3 | 73.15
Neigh   | 0          | 0          | 0          |   0.0 |  0.00
Comm    | 0.021468   | 0.21067    | 0.6478     |  39.4 | 16.22
Output  | 0          | 0          | 0          |   0.0 |  0.00
Modify  | 1.3679e-05 | 0.0018664  | 0.0040019  |   2.0 |  0.14
Other   |            | 0.1363     |            |       | 10.49

Nlocal:        2776.45 ave        3956 max           0 min
Histogram: 8 4 4 0 4 12 8 2 28 34
Nghost:        3879.03 ave        5424 max         232 min
Histogram: 8 0 8 0 16 0 8 8 16 40
Neighs:        79213.5 ave      115297 max           0 min
Histogram: 8 4 4 0 10 6 8 8 24 32

Total # of neighbors = 8238203
Ave neighs/atom = 28.530474
Neighbor list builds = 0
Dangerous builds = 0
The dot product: 6.06450676158556e-08
Setting atom values ...
  1 settings made for x
  1 settings made for y
  1 settings made for z
Setting up cg style minimization ...
  Unit style    : metal
  Current step  : 1294
Per MPI rank memory allocation (min/avg/max) = 5.441 | 5.816 | 6.074 Mbytes
Step PotEng KinEng TotEng v_fx v_fy v_fz 
    1294   -1152449.4            0   -1152449.4  0.013959116 -0.012048273 -0.0050681664 
    1507   -1152449.4            0   -1152449.4 -1.1369535e-06 1.671481e-06 -4.7175471e-06 
Loop time of 2.44598 on 104 procs for 213 steps with 288751 atoms

99.9% CPU use with 104 MPI tasks x 1 OpenMP threads

Minimization stats:
  Stopping criterion = energy tolerance
  Energy initial, next-to-last, final = 
     -1152449.40555671  -1152449.40692907  -1152449.40692907
  Force two-norm initial, final = 0.16715785 3.4080108e-05
  Force max component initial, final = 0.07467328 4.9822473e-06
  Final line search alpha, max atom move = 1.0000000 4.9822473e-06
  Iterations, force evaluations = 213 426

MPI task timing breakdown:
Section |  min time  |  avg time  |  max time  |%varavg| %total
---------------------------------------------------------------
Pair    | 0.64843    | 1.783      | 2.3115     |  36.0 | 72.89
Neigh   | 0          | 0          | 0          |   0.0 |  0.00
Comm    | 0.042032   | 0.39823    | 1.2094     |  53.7 | 16.28
Output  | 0          | 0          | 0          |   0.0 |  0.00
Modify  | 2.4948e-05 | 0.0035059  | 0.0075239  |   2.8 |  0.14
Other   |            | 0.2613     |            |       | 10.68

Nlocal:        2776.45 ave        3951 max           0 min
Histogram: 8 4 4 0 4 12 8 2 28 34
Nghost:        3879.03 ave        5424 max         232 min
Histogram: 8 0 8 0 16 0 8 8 16 40
Neighs:        79213.5 ave      115138 max           0 min
Histogram: 8 4 4 0 10 6 8 8 24 32

Total # of neighbors = 8238201
Ave neighs/atom = 28.530467
Neighbor list builds = 0
Dangerous builds = 0
The dot product: 1.46331800933251e-08
Setting atom values ...
  1 settings made for x
  1 settings made for y
  1 settings made for z
Setting up cg style minimization ...
  Unit style    : metal
  Current step  : 1507
Per MPI rank memory allocation (min/avg/max) = 5.441 | 5.816 | 6.074 Mbytes
Step PotEng KinEng TotEng v_fx v_fy v_fz 
    1507   -1152449.4            0   -1152449.4    0.0138781 -0.012782912 -0.0025565103 
    1648   -1152449.4            0   -1152449.4 2.5473313e-05 -1.6209071e-05 -5.1889129e-05 
Loop time of 1.62819 on 104 procs for 141 steps with 288751 atoms

99.9% CPU use with 104 MPI tasks x 1 OpenMP threads

Minimization stats:
  Stopping criterion = energy tolerance
  Energy initial, next-to-last, final = 
     -1152449.39366299  -1152449.39504144  -1152449.39504144
  Force two-norm initial, final = 0.16755827 0.00016765061
  Force max component initial, final = 0.074519975 5.1889129e-05
  Final line search alpha, max atom move = 1.0000000 5.1889129e-05
  Iterations, force evaluations = 141 282

MPI task timing breakdown:
Section |  min time  |  avg time  |  max time  |%varavg| %total
---------------------------------------------------------------
Pair    | 0.42773    | 1.1878     | 1.5386     |  29.4 | 72.95
Neigh   | 0          | 0          | 0          |   0.0 |  0.00
Comm    | 0.025896   | 0.26507    | 0.80796    |  43.6 | 16.28
Output  | 0          | 0          | 0          |   0.0 |  0.00
Modify  | 1.7196e-05 | 0.0023277  | 0.0050132  |   2.3 |  0.14
Other   |            | 0.173      |            |       | 10.62

Nlocal:        2776.45 ave        3948 max           0 min
Histogram: 8 4 4 0 4 12 8 2 26 36
Nghost:        3879.03 ave        5424 max         232 min
Histogram: 8 0 8 0 16 0 8 8 16 40
Neighs:        79213.5 ave      115055 max           0 min
Histogram: 8 4 4 0 10 6 8 8 24 32

Total # of neighbors = 8238202
Ave neighs/atom = 28.530471
Neighbor list builds = 0
Dangerous builds = 0
The dot product: -1.80838038149563e-09
Setting atom values ...
  1 settings made for x
  1 settings made for y
  1 settings made for z
Setting up cg style minimization ...
  Unit style    : metal
  Current step  : 1648
Per MPI rank memory allocation (min/avg/max) = 5.441 | 5.816 | 6.074 Mbytes
Step PotEng KinEng TotEng v_fx v_fy v_fz 
    1648   -1152449.4            0   -1152449.4  0.014554592 -0.014169682 -0.00069644229 
    1818   -1152449.4            0   -1152449.4 -2.7962656e-05 1.6567691e-05 6.4296029e-05 
Loop time of 1.95753 on 104 procs for 170 steps with 288751 atoms

99.9% CPU use with 104 MPI tasks x 1 OpenMP threads

Minimization stats:
  Stopping criterion = energy tolerance
  Energy initial, next-to-last, final = 
     -1152449.38026888  -1152449.38165275  -1152449.38165275
  Force two-norm initial, final = 0.16800445 0.00020843759
  Force max component initial, final = 0.074339898 6.4296029e-05
  Final line search alpha, max atom move = 1.0000000 6.4296029e-05
  Iterations, force evaluations = 170 340

MPI task timing breakdown:
Section |  min time  |  avg time  |  max time  |%varavg| %total
---------------------------------------------------------------
Pair    | 0.51759    | 1.4273     | 1.8514     |  32.2 | 72.91
Neigh   | 0          | 0          | 0          |   0.0 |  0.00
Comm    | 0.030469   | 0.31834    | 0.97313    |  48.1 | 16.26
Output  | 0          | 0          | 0          |   0.0 |  0.00
Modify  | 2.0748e-05 | 0.0028094  | 0.0060218  |   2.5 |  0.14
Other   |            | 0.2091     |            |       | 10.68

Nlocal:        2776.45 ave        3945 max           0 min
Histogram: 8 4 4 0 4 12 8 2 26 36
Nghost:        3879.03 ave        5424 max         232 min
Histogram: 8 0 8 0 16 0 8 8 16 40
Neighs:        79213.5 ave      114946 max           0 min
Histogram: 8 4 4 0 10 6 8 8 22 34

Total # of neighbors = 8238203
Ave neighs/atom = 28.530474
Neighbor list builds = 0
Dangerous builds = 0
The dot product: -2.09574183364294e-08
Setting atom values ...
  1 settings made for x
  1 settings made for y
  1 settings made for z
Setting up cg style minimization ...
  Unit style    : metal
  Current step  : 1818
Per MPI rank memory allocation (min/avg/max) = 5.441 | 5.816 | 6.074 Mbytes
Step PotEng KinEng TotEng v_fx v_fy v_fz 
    1818   -1152449.4            0   -1152449.4  0.015547362 -0.015738801 0.00038557095 
    1968   -1152449.4            0   -1152449.4 6.3937236e-06 -5.1900567e-06 -6.8479424e-06 
Loop time of 1.72366 on 104 procs for 150 steps with 288751 atoms

99.9% CPU use with 104 MPI tasks x 1 OpenMP threads

Minimization stats:
  Stopping criterion = energy tolerance
  Energy initial, next-to-last, final = 
     -1152449.36535812  -1152449.36674613  -1152449.36674613
  Force two-norm initial, final = 0.16836261 0.00019446099
  Force max component initial, final = 0.07435567 2.9696729e-05
  Final line search alpha, max atom move = 1.0000000 2.9696729e-05
  Iterations, force evaluations = 150 300

MPI task timing breakdown:
Section |  min time  |  avg time  |  max time  |%varavg| %total
---------------------------------------------------------------
Pair    | 0.45537    | 1.2612     | 1.6286     |  30.3 | 73.17
Neigh   | 0          | 0          | 0          |   0.0 |  0.00
Comm    | 0.026384   | 0.28198    | 0.8587     |  45.0 | 16.36
Output  | 0          | 0          | 0          |   0.0 |  0.00
Modify  | 1.8456e-05 | 0.002475   | 0.0053206  |   2.4 |  0.14
Other   |            | 0.178      |            |       | 10.33

Nlocal:        2776.45 ave        3943 max           0 min
Histogram: 8 4 4 0 4 12 8 2 26 36
Nghost:        3879.03 ave        5424 max         232 min
Histogram: 8 0 8 0 16 0 8 8 16 40
Neighs:        79213.5 ave      114895 max           0 min
Histogram: 8 4 4 0 10 6 8 8 22 34

Total # of neighbors = 8238204
Ave neighs/atom = 28.530478
Neighbor list builds = 0
Dangerous builds = 0
The dot product: -6.95799852277793e-09
Setting atom values ...
  1 settings made for x
  1 settings made for y
  1 settings made for z
Setting up cg style minimization ...
  Unit style    : metal
  Current step  : 1968
Per MPI rank memory allocation (min/avg/max) = 5.441 | 5.816 | 6.074 Mbytes
Step PotEng KinEng TotEng v_fx v_fy v_fz 
    1968   -1152449.3            0   -1152449.3   0.01625346 -0.016848627 0.00063161174 
    2000   -1152449.4            0   -1152449.4 -0.00028612833  0.000172963 0.00061992784 
    2100   -1152449.4            0   -1152449.4 -1.8706721e-05 8.4947888e-06 5.4888732e-05 
Loop time of 1.51725 on 104 procs for 132 steps with 288751 atoms

99.9% CPU use with 104 MPI tasks x 1 OpenMP threads

Minimization stats:
  Stopping criterion = energy tolerance
  Energy initial, next-to-last, final = 
     -1152449.34890682  -1152449.35029944  -1152449.35029944
  Force two-norm initial, final = 0.16864159 0.0002506307
  Force max component initial, final = 0.074410346 5.8900328e-05
  Final line search alpha, max atom move = 1.0000000 5.8900328e-05
  Iterations, force evaluations = 132 264

MPI task timing breakdown:
Section |  min time  |  avg time  |  max time  |%varavg| %total
---------------------------------------------------------------
Pair    | 0.4018     | 1.1046     | 1.4318     |  28.3 | 72.81
Neigh   | 0          | 0          | 0          |   0.0 |  0.00
Comm    | 0.025801   | 0.24616    | 0.75264    |  42.2 | 16.22
Output  | 0.00010282 | 0.00010483 | 0.00019198 |   0.0 |  0.01
Modify  | 1.6358e-05 | 0.0021793  | 0.0046638  |   2.2 |  0.14
Other   |            | 0.1642     |            |       | 10.82

Nlocal:        2776.45 ave        3941 max           0 min
Histogram: 8 4 4 0 4 12 8 2 26 36
Nghost:        3879.03 ave        5424 max         232 min
Histogram: 8 0 8 0 16 0 8 8 16 40
Neighs:        79213.5 ave      114838 max           0 min
Histogram: 8 4 4 0 10 6 8 8 22 34

Total # of neighbors = 8238204
Ave neighs/atom = 28.530478
Neighbor list builds = 0
Dangerous builds = 0
The dot product: -6.43789725441682e-08
Setting atom values ...
  1 settings made for x
  1 settings made for y
  1 settings made for z
Setting up cg style minimization ...
  Unit style    : metal
  Current step  : 2100
Per MPI rank memory allocation (min/avg/max) = 5.441 | 5.816 | 6.074 Mbytes
Step PotEng KinEng TotEng v_fx v_fy v_fz 
    2100   -1152449.3            0   -1152449.3  0.016111789 -0.016881316 -3.2923546e-05 
    2266   -1152449.3            0   -1152449.3 1.1883951e-05 -9.944103e-06 -1.1973075e-05 
Loop time of 1.92583 on 104 procs for 166 steps with 288751 atoms

99.9% CPU use with 104 MPI tasks x 1 OpenMP threads

Minimization stats:
  Stopping criterion = energy tolerance
  Energy initial, next-to-last, final = 
     -1152449.33088799  -1152449.33230005  -1152449.33230005
  Force two-norm initial, final = 0.16875126 0.00025264324
  Force max component initial, final = 0.074539789 5.1257135e-05
  Final line search alpha, max atom move = 1.0000000 5.1257135e-05
  Iterations, force evaluations = 166 332

MPI task timing breakdown:
Section |  min time  |  avg time  |  max time  |%varavg| %total
---------------------------------------------------------------
Pair    | 0.50525    | 1.3995     | 1.8138     |  32.0 | 72.67
Neigh   | 0          | 0          | 0          |   0.0 |  0.00
Comm    | 0.038746   | 0.31286    | 0.95347    |  47.4 | 16.25
Output  | 0          | 0          | 0          |   0.0 |  0.00
Modify  | 2.019e-05  | 0.0027351  | 0.0058574  |   2.5 |  0.14
Other   |            | 0.2107     |            |       | 10.94

Nlocal:        2776.45 ave        3939 max           0 min
Histogram: 8 4 4 0 4 12 8 2 26 36
Nghost:        3879.03 ave        5424 max         232 min
Histogram: 8 0 8 0 16 0 8 8 16 40
Neighs:        79213.5 ave      114775 max           0 min
Histogram: 8 4 4 0 10 6 8 8 22 34

Total # of neighbors = 8238202
Ave neighs/atom = 28.530471
Neighbor list builds = 0
Dangerous builds = 0
The dot product: -7.52582856144162e-09
Setting atom values ...
  1 settings made for x
  1 settings made for y
  1 settings made for z
Setting up cg style minimization ...
  Unit style    : metal
  Current step  : 2266
Per MPI rank memory allocation (min/avg/max) = 5.441 | 5.816 | 6.074 Mbytes
Step PotEng KinEng TotEng v_fx v_fy v_fz 
    2266   -1152449.3            0   -1152449.3  0.013867136   -0.0138786 -0.0043178684 
    2415   -1152449.3            0   -1152449.3 1.7740033e-05 -5.3416599e-07 -8.0287668e-05 
Loop time of 1.7133 on 104 procs for 149 steps with 288751 atoms

99.9% CPU use with 104 MPI tasks x 1 OpenMP threads

Minimization stats:
  Stopping criterion = energy tolerance
  Energy initial, next-to-last, final = 
     -1152449.31129935  -1152449.31286725  -1152449.31286725
  Force two-norm initial, final = 0.16867838 0.00026648029
  Force max component initial, final = 0.074349346 8.0287668e-05
  Final line search alpha, max atom move = 1.0000000 8.0287668e-05
  Iterations, force evaluations = 149 298

MPI task timing breakdown:
Section |  min time  |  avg time  |  max time  |%varavg| %total
---------------------------------------------------------------
Pair    | 0.45361    | 1.2494     | 1.6204     |  30.0 | 72.93
Neigh   | 0          | 0          | 0          |   0.0 |  0.00
Comm    | 0.026621   | 0.27874    | 0.84958    |  44.9 | 16.27
Output  | 0          | 0          | 0          |   0.0 |  0.00
Modify  | 1.8705e-05 | 0.0024535  | 0.0052463  |   2.3 |  0.14
Other   |            | 0.1827     |            |       | 10.66

Nlocal:        2776.45 ave        3935 max           0 min
Histogram: 8 4 4 0 4 12 8 0 28 36
Nghost:        3879.03 ave        5424 max         232 min
Histogram: 8 0 8 0 16 0 8 8 16 40
Neighs:        79213.4 ave      114619 max           0 min
Histogram: 8 4 4 0 8 8 8 8 20 36

Total # of neighbors = 8238196
Ave neighs/atom = 28.530450
Neighbor list builds = 0
Dangerous builds = 0
The dot product: 5.92329099593816e-07
Setting atom values ...
  1 settings made for x
  1 settings made for y
  1 settings made for z
Setting up cg style minimization ...
  Unit style    : metal
  Current step  : 2415
Per MPI rank memory allocation (min/avg/max) = 5.441 | 5.816 | 6.074 Mbytes
Step PotEng KinEng TotEng v_fx v_fy v_fz 
    2415   -1152449.3            0   -1152449.3 -0.0018703814  0.010087466 -0.027532733 
    2594   -1152449.3            0   -1152449.3 -1.5809707e-06 -8.6555174e-06 3.6284348e-05 
Loop time of 2.05485 on 104 procs for 179 steps with 288751 atoms

99.9% CPU use with 104 MPI tasks x 1 OpenMP threads

Minimization stats:
  Stopping criterion = energy tolerance
  Energy initial, next-to-last, final = 
     -1152449.29038739  -1152449.29270788  -1152449.29270788
  Force two-norm initial, final = 0.17082888 0.00024691354
  Force max component initial, final = 0.071977019 3.6284348e-05
  Final line search alpha, max atom move = 1.0000000 3.6284348e-05
  Iterations, force evaluations = 179 358

MPI task timing breakdown:
Section |  min time  |  avg time  |  max time  |%varavg| %total
---------------------------------------------------------------
Pair    | 0.54567    | 1.5037     | 1.9348     |  33.0 | 73.18
Neigh   | 0          | 0          | 0          |   0.0 |  0.00
Comm    | 0.033993   | 0.33496    | 1.0343     |  49.6 | 16.30
Output  | 0          | 0          | 0          |   0.0 |  0.00
Modify  | 2.1598e-05 | 0.0029538  | 0.0063537  |   2.6 |  0.14
Other   |            | 0.2132     |            |       | 10.38

Nlocal:        2776.45 ave        3930 max           0 min
Histogram: 8 4 4 0 4 12 8 0 26 38
Nghost:        3879.07 ave        5424 max         232 min
Histogram: 8 0 8 0 16 0 8 8 16 40
Neighs:        79213.5 ave      114470 max           0 min
Histogram: 8 4 4 0 8 8 8 8 20 36

Total # of neighbors = 8238199
Ave neighs/atom = 28.530461
Neighbor list builds = 0
Dangerous builds = 0
The dot product: -7.49061826545935e-07
Setting atom values ...
  1 settings made for x
  1 settings made for y
  1 settings made for z
Setting up cg style minimization ...
  Unit style    : metal
  Current step  : 2594
Per MPI rank memory allocation (min/avg/max) = 5.441 | 5.816 | 6.074 Mbytes
Step PotEng KinEng TotEng v_fx v_fy v_fz 
    2594   -1152449.3            0   -1152449.3 -0.025310063   0.05837023 -0.058989104 
    2878   -1152449.3            0   -1152449.3 4.6550668e-07 -1.0822179e-07 -1.2288334e-06 
Loop time of 3.26772 on 104 procs for 284 steps with 288751 atoms

99.9% CPU use with 104 MPI tasks x 1 OpenMP threads

Minimization stats:
  Stopping criterion = energy tolerance
  Energy initial, next-to-last, final = 
     -1152449.26908062  -1152449.27259899  -1152449.27259899
  Force two-norm initial, final = 0.19067168 6.3769363e-06
  Force max component initial, final = 0.078953706 1.2288334e-06
  Final line search alpha, max atom move = 1.0000000 1.2288334e-06
  Iterations, force evaluations = 284 568

MPI task timing breakdown:
Section |  min time  |  avg time  |  max time  |%varavg| %total
---------------------------------------------------------------
Pair    | 0.8645     | 2.3723     | 3.0756     |  41.4 | 72.60
Neigh   | 0          | 0          | 0          |   0.0 |  0.00
Comm    | 0.05843    | 0.53106    | 1.6125     |  61.7 | 16.25
Output  | 0          | 0          | 0          |   0.0 |  0.00
Modify  | 3.5334e-05 | 0.0046764  | 0.010007   |   3.2 |  0.14
Other   |            | 0.3597     |            |       | 11.01

Nlocal:        2776.45 ave        3930 max           0 min
Histogram: 8 4 4 0 4 12 8 0 26 38
Nghost:        3879.14 ave        5425 max         232 min
Histogram: 8 0 8 0 16 0 8 8 16 40
Neighs:        79213.4 ave      114463 max           0 min
Histogram: 8 4 4 0 8 8 8 8 20 36

Total # of neighbors = 8238195
Ave neighs/atom = 28.530447
Neighbor list builds = 0
Dangerous builds = 0
The dot product: 1.46369382471264e-08
Setting atom values ...
  1 settings made for x
  1 settings made for y
  1 settings made for z
Setting up cg style minimization ...
  Unit style    : metal
  Current step  : 2878
Per MPI rank memory allocation (min/avg/max) = 5.441 | 5.816 | 6.074 Mbytes
Step PotEng KinEng TotEng v_fx v_fy v_fz 
    2878   -1152449.2            0   -1152449.2 -0.031707752  0.091150638 -0.064495951 
    3000   -1152449.3            0   -1152449.3 1.1500607e-05 -5.5603825e-05 6.0461323e-05 
    3184   -1152449.3            0   -1152449.3 1.590488e-07 -4.7864193e-08 -3.4960254e-07 
Loop time of 3.51277 on 104 procs for 306 steps with 288751 atoms

99.9% CPU use with 104 MPI tasks x 1 OpenMP threads

Minimization stats:
  Stopping criterion = energy tolerance
  Energy initial, next-to-last, final = 
     -1152449.24798352  -1152449.25210936  -1152449.25210936
  Force two-norm initial, final = 0.20678522 5.8281507e-06
  Force max component initial, final = 0.091150638 1.1332294e-06
  Final line search alpha, max atom move = 1.0000000 1.1332294e-06
  Iterations, force evaluations = 306 612

MPI task timing breakdown:
Section |  min time  |  avg time  |  max time  |%varavg| %total
---------------------------------------------------------------
Pair    | 0.92697    | 2.5719     | 3.3264     |  43.2 | 73.22
Neigh   | 0          | 0          | 0          |   0.0 |  0.00
Comm    | 0.056446   | 0.57109    | 1.7534     |  64.8 | 16.26
Output  | 9.5993e-05 | 0.00010497 | 0.00024348 |   0.0 |  0.00
Modify  | 3.735e-05  | 0.0050422  | 0.010795   |   3.3 |  0.14
Other   |            | 0.3646     |            |       | 10.38

Nlocal:        2776.45 ave        3935 max           0 min
Histogram: 8 4 4 0 4 12 8 0 28 36
Nghost:        3879.14 ave        5425 max         232 min
Histogram: 8 0 8 0 16 0 8 8 16 40
Neighs:        79213.4 ave      114616 max           0 min
Histogram: 8 4 4 0 8 8 8 8 20 36

Total # of neighbors = 8238198
Ave neighs/atom = 28.530457
Neighbor list builds = 0
Dangerous builds = 0
The dot product: 3.39084545260932e-09
Setting atom values ...
  1 settings made for x
  1 settings made for y
  1 settings made for z
Setting up cg style minimization ...
  Unit style    : metal
  Current step  : 3184
Per MPI rank memory allocation (min/avg/max) = 5.441 | 5.816 | 6.074 Mbytes
Step PotEng KinEng TotEng v_fx v_fy v_fz 
    3184   -1152449.2            0   -1152449.2 -0.025488715    0.1029412   -0.0570206 
    3392   -1152449.2            0   -1152449.2 2.5338241e-05 -2.6973543e-06 -5.6824824e-05 
Loop time of 2.39197 on 104 procs for 208 steps with 288751 atoms

99.9% CPU use with 104 MPI tasks x 1 OpenMP threads

Minimization stats:
  Stopping criterion = energy tolerance
  Energy initial, next-to-last, final = 
     -1152449.22677463  -1152449.23079807  -1152449.23079807
  Force two-norm initial, final = 0.20960447 0.00016073925
  Force max component initial, final = 0.1029412 5.6824824e-05
  Final line search alpha, max atom move = 1.0000000 5.6824824e-05
  Iterations, force evaluations = 208 416

MPI task timing breakdown:
Section |  min time  |  avg time  |  max time  |%varavg| %total
---------------------------------------------------------------
Pair    | 0.63085    | 1.7418     | 2.2633     |  35.6 | 72.82
Neigh   | 0          | 0          | 0          |   0.0 |  0.00
Comm    | 0.036496   | 0.38978    | 1.1883     |  53.1 | 16.30
Output  | 0          | 0          | 0          |   0.0 |  0.00
Modify  | 2.5727e-05 | 0.0034253  | 0.0073721  |   2.8 |  0.14
Other   |            | 0.257      |            |       | 10.74

Nlocal:        2776.45 ave        3940 max           0 min
Histogram: 8 4 4 0 4 12 8 2 26 36
Nghost:        3879.11 ave        5425 max         232 min
Histogram: 8 0 8 0 16 0 8 8 16 40
Neighs:        79213.5 ave      114802 max           0 min
Histogram: 8 4 4 0 10 6 8 8 22 34

Total # of neighbors = 8238203
Ave neighs/atom = 28.530474
Neighbor list builds = 0
Dangerous builds = 0
The dot product: 6.67961273742689e-07
Setting atom values ...
  1 settings made for x
  1 settings made for y
  1 settings made for z
Setting up cg style minimization ...
  Unit style    : metal
  Current step  : 3392
Per MPI rank memory allocation (min/avg/max) = 5.441 | 5.816 | 6.074 Mbytes
Step PotEng KinEng TotEng v_fx v_fy v_fz 
    3392   -1152449.2            0   -1152449.2 -0.015385489  0.094029213  -0.04329048 
    3638   -1152449.2            0   -1152449.2 9.7561951e-07 9.9401206e-07 -2.9000068e-06 
Loop time of 2.82572 on 104 procs for 246 steps with 288751 atoms

99.9% CPU use with 104 MPI tasks x 1 OpenMP threads

Minimization stats:
  Stopping criterion = energy tolerance
  Energy initial, next-to-last, final = 
     -1152449.20475526  -1152449.20820147  -1152449.20820147
  Force two-norm initial, final = 0.20088649 2.7329413e-05
  Force max component initial, final = 0.11008489 4.6636341e-06
  Final line search alpha, max atom move = 1.0000000 4.6636341e-06
  Iterations, force evaluations = 246 492

MPI task timing breakdown:
Section |  min time  |  avg time  |  max time  |%varavg| %total
---------------------------------------------------------------
Pair    | 0.74575    | 2.0694     | 2.6791     |  38.8 | 73.23
Neigh   | 0          | 0          | 0          |   0.0 |  0.00
Comm    | 0.047535   | 0.45912    | 1.3863     |  57.8 | 16.25
Output  | 0          | 0          | 0          |   0.0 |  0.00
Modify  | 2.7815e-05 | 0.0040444  | 0.0086727  |   3.0 |  0.14
Other   |            | 0.2932     |            |       | 10.38

Nlocal:        2776.45 ave        3951 max           0 min
Histogram: 8 4 4 0 4 12 8 2 28 34
Nghost:        3879.05 ave        5425 max         232 min
Histogram: 8 0 8 0 16 0 8 8 16 40
Neighs:        79213.5 ave      115156 max           0 min
Histogram: 8 4 4 0 10 6 8 8 24 32

Total # of neighbors = 8238207
Ave neighs/atom = 28.530488
Neighbor list builds = 0
Dangerous builds = 0
The dot product: 6.36291713849773e-08
Setting atom values ...
  1 settings made for x
  1 settings made for y
  1 settings made for z
Setting up cg style minimization ...
  Unit style    : metal
  Current step  : 3638
Per MPI rank memory allocation (min/avg/max) = 5.441 | 5.816 | 6.074 Mbytes
Step PotEng KinEng TotEng v_fx v_fy v_fz 
    3638   -1152449.2            0   -1152449.2 -0.0059672687   0.07766951 -0.034139773 
    3869   -1152449.2            0   -1152449.2 -1.5478559e-06 1.3209517e-06 2.2791649e-06 
Loop time of 2.67901 on 104 procs for 231 steps with 288751 atoms

99.9% CPU use with 104 MPI tasks x 1 OpenMP threads

Minimization stats:
  Stopping criterion = energy tolerance
  Energy initial, next-to-last, final = 
     -1152449.18155361   -1152449.1846447   -1152449.1846447
  Force two-norm initial, final = 0.19073024 4.3470467e-05
  Force max component initial, final = 0.11590754 7.3150392e-06
  Final line search alpha, max atom move = 1.0000000 7.3150392e-06
  Iterations, force evaluations = 231 462

MPI task timing breakdown:
Section |  min time  |  avg time  |  max time  |%varavg| %total
---------------------------------------------------------------
Pair    | 0.70257    | 1.9418     | 2.524      |  37.6 | 72.48
Neigh   | 0          | 0          | 0          |   0.0 |  0.00
Comm    | 0.04199    | 0.43475    | 1.3234     |  55.9 | 16.23
Output  | 0          | 0          | 0          |   0.0 |  0.00
Modify  | 2.8173e-05 | 0.0037961  | 0.0081292  |   2.9 |  0.14
Other   |            | 0.2987     |            |       | 11.15

Nlocal:        2776.45 ave        3952 max           0 min
Histogram: 8 4 4 0 4 12 8 2 28 34
Nghost:        3879.02 ave        5425 max         232 min
Histogram: 8 0 8 0 16 0 8 8 16 40
Neighs:        79213.5 ave      115184 max           0 min
Histogram: 8 4 4 0 10 6 8 8 24 32

Total # of neighbors = 8238206
Ave neighs/atom = 28.530485
Neighbor list builds = 0
Dangerous builds = 0
The dot product: -5.44850183880524e-09
Setting atom values ...
  1 settings made for x
  1 settings made for y
  1 settings made for z
Setting up cg style minimization ...
  Unit style    : metal
  Current step  : 3869
Per MPI rank memory allocation (min/avg/max) = 5.441 | 5.816 | 6.074 Mbytes
Step PotEng KinEng TotEng v_fx v_fy v_fz 
    3869   -1152449.2            0   -1152449.2  0.002524472  0.063884029 -0.032449055 
    4000   -1152449.2            0   -1152449.2 -0.00012529132 2.1813747e-05 0.00021924274 
    4097   -1152449.2            0   -1152449.2 5.9683933e-06 -5.6675578e-07 -1.0649728e-05 
Loop time of 2.63898 on 104 procs for 228 steps with 288751 atoms

99.9% CPU use with 104 MPI tasks x 1 OpenMP threads

Minimization stats:
  Stopping criterion = energy tolerance
  Energy initial, next-to-last, final = 
      -1152449.1575336  -1152449.16026867  -1152449.16026867
  Force two-norm initial, final = 0.18405207 4.1523636e-05
  Force max component initial, final = 0.12003264 1.0649728e-05
  Final line search alpha, max atom move = 1.0000000 1.0649728e-05
  Iterations, force evaluations = 228 456

MPI task timing breakdown:
Section |  min time  |  avg time  |  max time  |%varavg| %total
---------------------------------------------------------------
Pair    | 0.69273    | 1.9115     | 2.485      |  37.2 | 72.44
Neigh   | 0          | 0          | 0          |   0.0 |  0.00
Comm    | 0.044599   | 0.42603    | 1.3042     |  55.2 | 16.14
Output  | 9.8487e-05 | 0.00010888 | 0.00024651 |   0.0 |  0.00
Modify  | 2.6858e-05 | 0.003756   | 0.0080411  |   2.9 |  0.14
Other   |            | 0.2975     |            |       | 11.27

Nlocal:        2776.45 ave        3952 max           0 min
Histogram: 8 4 4 0 4 12 8 2 28 34
Nghost:        3878.97 ave        5425 max         232 min
Histogram: 8 0 8 0 16 0 8 8 16 40
Neighs:        79213.6 ave      115189 max           0 min
Histogram: 8 4 4 0 10 6 8 8 24 32

Total # of neighbors = 8238211
Ave neighs/atom = 28.530502
Neighbor list builds = 0
Dangerous builds = 0
The dot product: 1.59951492656099e-07
Setting atom values ...
  1 settings made for x
  1 settings made for y
  1 settings made for z
Setting up cg style minimization ...
  Unit style    : metal
  Current step  : 4097
Per MPI rank memory allocation (min/avg/max) = 5.441 | 5.816 | 6.074 Mbytes
Step PotEng KinEng TotEng v_fx v_fy v_fz 
    4097   -1152449.1            0   -1152449.1 0.0087440565  0.056023131 -0.032693905 
    4319   -1152449.1            0   -1152449.1 5.7091774e-06 -1.2931562e-06 -9.2265592e-06 
Loop time of 2.55325 on 104 procs for 222 steps with 288751 atoms

99.9% CPU use with 104 MPI tasks x 1 OpenMP threads

Minimization stats:
  Stopping criterion = energy tolerance
  Energy initial, next-to-last, final = 
     -1152449.13243717  -1152449.13490568  -1152449.13490568
  Force two-norm initial, final = 0.18140326 5.1411364e-05
  Force max component initial, final = 0.12421725 9.2265592e-06
  Final line search alpha, max atom move = 1.0000000 9.2265592e-06
  Iterations, force evaluations = 222 444

MPI task timing breakdown:
Section |  min time  |  avg time  |  max time  |%varavg| %total
---------------------------------------------------------------
Pair    | 0.67301    | 1.8569     | 2.4221     |  36.8 | 72.73
Neigh   | 0          | 0          | 0          |   0.0 |  0.00
Comm    | 0.039492   | 0.41429    | 1.257      |  54.5 | 16.23
Output  | 0          | 0          | 0          |   0.0 |  0.00
Modify  | 2.528e-05  | 0.0036494  | 0.0078368  |   2.9 |  0.14
Other   |            | 0.2784     |            |       | 10.90

Nlocal:        2776.45 ave        3954 max           0 min
Histogram: 8 4 4 0 4 12 8 2 28 34
Nghost:        3878.96 ave        5425 max         232 min
Histogram: 8 0 8 0 16 0 8 8 16 40
Neighs:        79213.6 ave      115253 max           0 min
Histogram: 8 4 4 0 10 6 8 8 24 32

Total # of neighbors = 8238214
Ave neighs/atom = 28.530512
Neighbor list builds = 0
Dangerous builds = 0
The dot product: 1.28496778286988e-07
Setting atom values ...
  1 settings made for x
  1 settings made for y
  1 settings made for z
Setting up cg style minimization ...
  Unit style    : metal
  Current step  : 4319
Per MPI rank memory allocation (min/avg/max) = 5.441 | 5.816 | 6.074 Mbytes
Step PotEng KinEng TotEng v_fx v_fy v_fz 
    4319   -1152449.1            0   -1152449.1  0.011390485  0.046541559 -0.028938855 
    4527   -1152449.1            0   -1152449.1 -2.1953932e-06 9.3934085e-07 3.2336525e-06 
Loop time of 2.41311 on 104 procs for 208 steps with 288751 atoms

99.9% CPU use with 104 MPI tasks x 1 OpenMP threads

Minimization stats:
  Stopping criterion = energy tolerance
  Energy initial, next-to-last, final = 
     -1152449.10615351  -1152449.10829108  -1152449.10829108
  Force two-norm initial, final = 0.17858379 8.0302017e-05
  Force max component initial, final = 0.12818247 6.6452174e-06
  Final line search alpha, max atom move = 1.0000000 6.6452174e-06
  Iterations, force evaluations = 208 416

MPI task timing breakdown:
Section |  min time  |  avg time  |  max time  |%varavg| %total
---------------------------------------------------------------
Pair    | 0.63724    | 1.7512     | 2.2655     |  35.5 | 72.57
Neigh   | 0          | 0          | 0          |   0.0 |  0.00
Comm    | 0.040321   | 0.39151    | 1.2104     |  53.4 | 16.22
Output  | 0          | 0          | 0          |   0.0 |  0.00
Modify  | 2.4017e-05 | 0.003429   | 0.0074108  |   2.8 |  0.14
Other   |            | 0.267      |            |       | 11.06

Nlocal:        2776.45 ave        3954 max           0 min
Histogram: 8 4 4 0 4 12 8 2 28 34
Nghost:        3878.96 ave        5425 max         232 min
Histogram: 8 0 8 0 16 0 8 8 16 40
Neighs:        79213.6 ave      115248 max           0 min
Histogram: 8 4 4 0 10 6 8 8 24 32

Total # of neighbors = 8238213
Ave neighs/atom = 28.530509
Neighbor list builds = 0
Dangerous builds = 0
The dot product: -3.58812149472467e-08
Setting atom values ...
  1 settings made for x
  1 settings made for y
  1 settings made for z
Setting up cg style minimization ...
  Unit style    : metal
  Current step  : 4527
Per MPI rank memory allocation (min/avg/max) = 5.441 | 5.816 | 6.074 Mbytes
Step PotEng KinEng TotEng v_fx v_fy v_fz 
    4527   -1152449.1            0   -1152449.1  0.010843156  0.035988269 -0.022571752 
    4710   -1152449.1            0   -1152449.1 1.2545364e-05 -4.6870548e-07 -1.856046e-05 
Loop time of 2.12283 on 104 procs for 183 steps with 288751 atoms

99.9% CPU use with 104 MPI tasks x 1 OpenMP threads

Minimization stats:
  Stopping criterion = energy tolerance
  Energy initial, next-to-last, final = 
     -1152449.07842127  -1152449.08032252  -1152449.08032252
  Force two-norm initial, final = 0.17612098 0.00014607833
  Force max component initial, final = 0.13180387 2.1074983e-05
  Final line search alpha, max atom move = 1.0000000 2.1074983e-05
  Iterations, force evaluations = 183 366

MPI task timing breakdown:
Section |  min time  |  avg time  |  max time  |%varavg| %total
---------------------------------------------------------------
Pair    | 0.558      | 1.533      | 1.9981     |  33.4 | 72.22
Neigh   | 0          | 0          | 0          |   0.0 |  0.00
Comm    | 0.034744   | 0.34401    | 1.0369     |  49.3 | 16.21
Output  | 0          | 0          | 0          |   0.0 |  0.00
Modify  | 2.1337e-05 | 0.0030152  | 0.0064765  |   2.6 |  0.14
Other   |            | 0.2428     |            |       | 11.44

Nlocal:        2776.45 ave        3955 max           0 min
Histogram: 8 4 4 0 4 12 8 2 28 34
Nghost:        3878.95 ave        5425 max         232 min
Histogram: 8 0 8 0 16 0 8 8 16 40
Neighs:        79213.6 ave      115276 max           0 min
Histogram: 8 4 4 0 10 6 8 8 24 32

Total # of neighbors = 8238212
Ave neighs/atom = 28.530506
Neighbor list builds = 0
Dangerous builds = 0
The dot product: 2.26381228990266e-07
Setting atom values ...
  1 settings made for x
  1 settings made for y
  1 settings made for z
Setting up cg style minimization ...
  Unit style    : metal
  Current step  : 4710
Per MPI rank memory allocation (min/avg/max) = 5.441 | 5.816 | 6.074 Mbytes
Step PotEng KinEng TotEng v_fx v_fy v_fz 
    4710     -1152449            0     -1152449 0.0089215425  0.026461042 -0.016400599 
    4895   -1152449.1            0   -1152449.1 2.417015e-05 -5.7602918e-06 -3.3501375e-05 
Loop time of 2.13361 on 104 procs for 185 steps with 288751 atoms

99.9% CPU use with 104 MPI tasks x 1 OpenMP threads

Minimization stats:
  Stopping criterion = energy tolerance
  Energy initial, next-to-last, final = 
     -1152449.04926194  -1152449.05101758  -1152449.05101758
  Force two-norm initial, final = 0.17483587 0.00013863878
  Force max component initial, final = 0.1349629 3.3501375e-05
  Final line search alpha, max atom move = 1.0000000 3.3501375e-05
  Iterations, force evaluations = 185 370

MPI task timing breakdown:
Section |  min time  |  avg time  |  max time  |%varavg| %total
---------------------------------------------------------------
Pair    | 0.56416    | 1.5613     | 2.0246     |  33.7 | 73.18
Neigh   | 0          | 0          | 0          |   0.0 |  0.00
Comm    | 0.032734   | 0.34649    | 1.0581     |  50.4 | 16.24
Output  | 0          | 0          | 0          |   0.0 |  0.00
Modify  | 2.2764e-05 | 0.0030462  | 0.0065097  |   2.6 |  0.14
Other   |            | 0.2227     |            |       | 10.44

Nlocal:        2776.45 ave        3955 max           0 min
Histogram: 8 4 4 0 4 12 8 0 30 34
Nghost:        3879.03 ave        5426 max         232 min
Histogram: 8 0 8 0 16 0 8 8 16 40
Neighs:        79213.6 ave      115286 max           0 min
Histogram: 8 4 4 0 10 6 8 8 24 32

Total # of neighbors = 8238215
Ave neighs/atom = 28.530516
Neighbor list builds = 0
Dangerous builds = 0
The dot product: 3.21813466423651e-07
Setting atom values ...
  1 settings made for x
  1 settings made for y
  1 settings made for z
Setting up cg style minimization ...
  Unit style    : metal
  Current step  : 4895
Per MPI rank memory allocation (min/avg/max) = 5.441 | 5.816 | 6.074 Mbytes
Step PotEng KinEng TotEng v_fx v_fy v_fz 
    4895     -1152449            0     -1152449 0.0066749168  0.018749905 -0.011304736 
    5000     -1152449            0     -1152449 7.2945947e-05 -3.3395925e-05 -9.5978344e-05 
    5177     -1152449            0     -1152449 -1.0495086e-06 1.673412e-07 1.4171075e-06 
Loop time of 3.25084 on 104 procs for 282 steps with 288751 atoms

99.9% CPU use with 104 MPI tasks x 1 OpenMP threads

Minimization stats:
  Stopping criterion = energy tolerance
  Energy initial, next-to-last, final = 
     -1152449.01876372  -1152449.02048251  -1152449.02048251
  Force two-norm initial, final = 0.17459929 5.1281023e-06
  Force max component initial, final = 0.13769658 1.4171075e-06
  Final line search alpha, max atom move = 1.0000000 1.4171075e-06
  Iterations, force evaluations = 282 564

MPI task timing breakdown:
Section |  min time  |  avg time  |  max time  |%varavg| %total
---------------------------------------------------------------
Pair    | 0.85537    | 2.3572     | 3.0784     |  41.4 | 72.51
Neigh   | 0          | 0          | 0          |   0.0 |  0.00
Comm    | 0.04993    | 0.52713    | 1.5966     |  61.5 | 16.22
Output  | 0.00014969 | 0.00015528 | 0.00029093 |   0.0 |  0.00
Modify  | 3.4851e-05 | 0.0046446  | 0.0099866  |   3.2 |  0.14
Other   |            | 0.3617     |            |       | 11.13

Nlocal:        2776.45 ave        3955 max           0 min
Histogram: 8 4 4 0 4 12 8 0 30 34
Nghost:        3879.09 ave        5426 max         232 min
Histogram: 8 0 8 0 16 0 8 8 16 40
Neighs:        79213.6 ave      115298 max           0 min
Histogram: 8 4 4 0 10 6 8 8 24 32

Total # of neighbors = 8238218
Ave neighs/atom = 28.530526
Neighbor list builds = 0
Dangerous builds = 0
The dot product: -1.2761267149825e-08
Setting atom values ...
  1 settings made for x
  1 settings made for y
  1 settings made for z
Setting up cg style minimization ...
  Unit style    : metal
  Current step  : 5177
Per MPI rank memory allocation (min/avg/max) = 5.441 | 5.816 | 6.074 Mbytes
Step PotEng KinEng TotEng v_fx v_fy v_fz 
    5177     -1152449            0     -1152449 0.0048188654   0.01297618 -0.0076764245 
    5350     -1152449            0     -1152449 2.3527406e-05 -4.3537239e-06 -3.0799016e-05 
Loop time of 1.99499 on 104 procs for 173 steps with 288751 atoms

99.9% CPU use with 104 MPI tasks x 1 OpenMP threads

Minimization stats:
  Stopping criterion = energy tolerance
  Energy initial, next-to-last, final = 
     -1152448.98714526  -1152448.98882828  -1152448.98882828
  Force two-norm initial, final = 0.1749507 0.00020398052
  Force max component initial, final = 0.14002675 3.0799016e-05
  Final line search alpha, max atom move = 1.0000000 3.0799016e-05
  Iterations, force evaluations = 173 346

MPI task timing breakdown:
Section |  min time  |  avg time  |  max time  |%varavg| %total
---------------------------------------------------------------
Pair    | 0.52804    | 1.456      | 1.8921     |  32.5 | 72.98
Neigh   | 0          | 0          | 0          |   0.0 |  0.00
Comm    | 0.034509   | 0.32523    | 0.9758     |  48.1 | 16.30
Output  | 0          | 0          | 0          |   0.0 |  0.00
Modify  | 2.0142e-05 | 0.0028473  | 0.0060841  |   2.5 |  0.14
Other   |            | 0.2109     |            |       | 10.57

Nlocal:        2776.45 ave        3956 max           0 min
Histogram: 8 4 4 0 4 12 8 0 30 34
Nghost:        3879.07 ave        5426 max         232 min
Histogram: 8 0 8 0 16 0 8 8 16 40
Neighs:        79213.6 ave      115316 max           0 min
Histogram: 8 4 4 0 10 6 8 8 24 32

Total # of neighbors = 8238215
Ave neighs/atom = 28.530516
Neighbor list builds = 0
Dangerous builds = 0
The dot product: 2.469343282933e-07
Setting atom values ...
  1 settings made for x
  1 settings made for y
  1 settings made for z
Setting up cg style minimization ...
  Unit style    : metal
  Current step  : 5350
Per MPI rank memory allocation (min/avg/max) = 5.441 | 5.816 | 6.074 Mbytes
Step PotEng KinEng TotEng v_fx v_fy v_fz 
    5350     -1152449            0     -1152449 0.0027777025 0.0087817936 -0.0043613049 
    5528     -1152449            0     -1152449 -1.7811202e-05 4.1816727e-06 2.2675582e-05 
Loop time of 2.06773 on 104 procs for 178 steps with 288751 atoms

99.9% CPU use with 104 MPI tasks x 1 OpenMP threads

Minimization stats:
  Stopping criterion = energy tolerance
  Energy initial, next-to-last, final = 
     -1152448.95444295  -1152448.95615038  -1152448.95615038
  Force two-norm initial, final = 0.17564218 0.00019283872
  Force max component initial, final = 0.14208331 2.3870435e-05
  Final line search alpha, max atom move = 1.0000000 2.3870435e-05
  Iterations, force evaluations = 178 356

MPI task timing breakdown:
Section |  min time  |  avg time  |  max time  |%varavg| %total
---------------------------------------------------------------
Pair    | 0.54384    | 1.4961     | 1.9487     |  33.0 | 72.36
Neigh   | 0          | 0          | 0          |   0.0 |  0.00
Comm    | 0.030992   | 0.33555    | 1.0166     |  48.8 | 16.23
Output  | 0          | 0          | 0          |   0.0 |  0.00
Modify  | 2.2279e-05 | 0.0029349  | 0.0062626  |   2.6 |  0.14
Other   |            | 0.2331     |            |       | 11.27

Nlocal:        2776.45 ave        3956 max           0 min
Histogram: 8 4 4 0 4 12 8 0 30 34
Nghost:        3879.05 ave        5426 max         232 min
Histogram: 8 0 8 0 16 0 8 8 16 40
Neighs:        79213.6 ave      115318 max           0 min
Histogram: 8 4 4 0 10 6 8 8 24 32

Total # of neighbors = 8238219
Ave neighs/atom = 28.530530
Neighbor list builds = 0
Dangerous builds = 0
The dot product: -1.69652780307766e-07
Setting atom values ...
  1 settings made for x
  1 settings made for y
  1 settings made for z
Setting up cg style minimization ...
  Unit style    : metal
  Current step  : 5528
Per MPI rank memory allocation (min/avg/max) = 5.441 | 5.816 | 6.074 Mbytes
Step PotEng KinEng TotEng v_fx v_fy v_fz 
    5528   -1152448.9            0   -1152448.9 0.0011603661 0.0059350897 -0.0019424685 
    5728   -1152448.9            0   -1152448.9 -1.0408257e-05 1.3225236e-06 1.3056653e-05 
Loop time of 2.30723 on 104 procs for 200 steps with 288751 atoms

99.9% CPU use with 104 MPI tasks x 1 OpenMP threads

Minimization stats:
  Stopping criterion = energy tolerance
  Energy initial, next-to-last, final = 
     -1152448.92085632  -1152448.92256669  -1152448.92256669
  Force two-norm initial, final = 0.17635782 0.00010156615
  Force max component initial, final = 0.14380657 1.3056653e-05
  Final line search alpha, max atom move = 1.0000000 1.3056653e-05
  Iterations, force evaluations = 200 400

MPI task timing breakdown:
Section |  min time  |  avg time  |  max time  |%varavg| %total
---------------------------------------------------------------
Pair    | 0.61004    | 1.6816     | 2.1888     |  34.9 | 72.89
Neigh   | 0          | 0          | 0          |   0.0 |  0.00
Comm    | 0.035942   | 0.37413    | 1.1466     |  52.2 | 16.22
Output  | 0          | 0          | 0          |   0.0 |  0.00
Modify  | 2.3646e-05 | 0.0033042  | 0.0070402  |   2.7 |  0.14
Other   |            | 0.2482     |            |       | 10.76

Nlocal:        2776.45 ave        3956 max           0 min
Histogram: 8 4 4 0 4 12 8 0 30 34
Nghost:        3879.05 ave        5426 max         232 min
Histogram: 8 0 8 0 16 0 8 8 16 40
Neighs:        79213.6 ave      115325 max           0 min
Histogram: 8 4 4 0 10 6 8 8 24 32

Total # of neighbors = 8238214
Ave neighs/atom = 28.530512
Neighbor list builds = 0
Dangerous builds = 0
The dot product: -9.04611406724267e-08
Setting atom values ...
  1 settings made for x
  1 settings made for y
  1 settings made for z
Setting up cg style minimization ...
  Unit style    : metal
  Current step  : 5728
Per MPI rank memory allocation (min/avg/max) = 5.441 | 5.816 | 6.074 Mbytes
Step PotEng KinEng TotEng v_fx v_fy v_fz 
    5728   -1152448.9            0   -1152448.9 -0.00085515794 0.0039457956 0.00076337063 
    5942   -1152448.9            0   -1152448.9 6.8820445e-07 1.0118023e-06 -9.2978738e-07 
Loop time of 2.46996 on 104 procs for 214 steps with 288751 atoms

99.9% CPU use with 104 MPI tasks x 1 OpenMP threads

Minimization stats:
  Stopping criterion = energy tolerance
  Energy initial, next-to-last, final = 
     -1152448.88635798  -1152448.88798029  -1152448.88798029
  Force two-norm initial, final = 0.17722452 7.3212486e-05
  Force max component initial, final = 0.14540104 7.5950810e-06
  Final line search alpha, max atom move = 1.0000000 7.5950810e-06
  Iterations, force evaluations = 214 428

MPI task timing breakdown:
Section |  min time  |  avg time  |  max time  |%varavg| %total
---------------------------------------------------------------
Pair    | 0.64993    | 1.7934     | 2.3387     |  36.1 | 72.61
Neigh   | 0          | 0          | 0          |   0.0 |  0.00
Comm    | 0.037831   | 0.40118    | 1.2163     |  53.8 | 16.24
Output  | 0          | 0          | 0          |   0.0 |  0.00
Modify  | 2.5871e-05 | 0.0035231  | 0.0075921  |   2.8 |  0.14
Other   |            | 0.2719     |            |       | 11.01

Nlocal:        2776.45 ave        3956 max           0 min
Histogram: 8 4 4 0 4 12 8 0 30 34
Nghost:        3879.04 ave        5426 max         232 min
Histogram: 8 0 8 0 16 0 8 8 16 40
Neighs:        79213.6 ave      115324 max           0 min
Histogram: 8 4 4 0 10 6 8 8 24 32

Total # of neighbors = 8238216
Ave neighs/atom = 28.530519
Neighbor list builds = 0
Dangerous builds = 0
The dot product: 5.95003917751371e-09
Setting atom values ...
  1 settings made for x
  1 settings made for y
  1 settings made for z
Setting up cg style minimization ...
  Unit style    : metal
  Current step  : 5942
Per MPI rank memory allocation (min/avg/max) = 5.441 | 5.816 | 6.074 Mbytes
Step PotEng KinEng TotEng v_fx v_fy v_fz 
    5942   -1152448.9            0   -1152448.9 -0.0036890171 0.0026194119 0.0043163964 
    6000   -1152448.9            0   -1152448.9 8.9626234e-05 9.8892371e-07 -0.00010956211 
    6136   -1152448.9            0   -1152448.9 1.8064244e-05 -1.5190879e-06 -2.1957544e-05 
Loop time of 2.23938 on 104 procs for 194 steps with 288751 atoms

99.9% CPU use with 104 MPI tasks x 1 OpenMP threads

Minimization stats:
  Stopping criterion = energy tolerance
  Energy initial, next-to-last, final = 
     -1152448.85071918  -1152448.85234399  -1152448.85234399
  Force two-norm initial, final = 0.17856391 0.00011846949
  Force max component initial, final = 0.14718635 2.8917214e-05
  Final line search alpha, max atom move = 1.0000000 2.8917214e-05
  Iterations, force evaluations = 194 388

MPI task timing breakdown:
Section |  min time  |  avg time  |  max time  |%varavg| %total
---------------------------------------------------------------
Pair    | 0.58976    | 1.6293     | 2.1227     |  34.4 | 72.76
Neigh   | 0          | 0          | 0          |   0.0 |  0.00
Comm    | 0.034291   | 0.36217    | 1.1091     |  51.4 | 16.17
Output  | 9.6814e-05 | 0.00010779 | 0.00022    |   0.0 |  0.00
Modify  | 2.2925e-05 | 0.0031959  | 0.0068275  |   2.7 |  0.14
Other   |            | 0.2446     |            |       | 10.92

Nlocal:        2776.45 ave        3956 max           0 min
Histogram: 8 4 4 0 4 12 8 0 30 34
Nghost:        3879.04 ave        5426 max         232 min
Histogram: 8 0 8 0 16 0 8 8 16 40
Neighs:        79213.6 ave      115326 max           0 min
Histogram: 8 4 4 0 10 6 8 8 24 32

Total # of neighbors = 8238215
Ave neighs/atom = 28.530516
Neighbor list builds = 0
Dangerous builds = 0
The dot product: 1.02923857346037e-07
Setting atom values ...
  1 settings made for x
  1 settings made for y
  1 settings made for z
Setting up cg style minimization ...
  Unit style    : metal
  Current step  : 6136
Per MPI rank memory allocation (min/avg/max) = 5.441 | 5.816 | 6.074 Mbytes
Step PotEng KinEng TotEng v_fx v_fy v_fz 
    6136   -1152448.8            0   -1152448.8 -0.0062569233 0.0019389853 0.0074150997 
    6284   -1152448.8            0   -1152448.8 5.016333e-05 -3.0092944e-06 -6.0341868e-05 
Loop time of 1.70508 on 104 procs for 148 steps with 288751 atoms

99.9% CPU use with 104 MPI tasks x 1 OpenMP threads

Minimization stats:
  Stopping criterion = energy tolerance
  Energy initial, next-to-last, final = 
     -1152448.81407789  -1152448.81583748  -1152448.81583748
  Force two-norm initial, final = 0.17976419 0.00028721164
  Force max component initial, final = 0.14872566 6.8342795e-05
  Final line search alpha, max atom move = 1.0000000 6.8342795e-05
  Iterations, force evaluations = 148 296

MPI task timing breakdown:
Section |  min time  |  avg time  |  max time  |%varavg| %total
---------------------------------------------------------------
Pair    | 0.44927    | 1.2381     | 1.6164     |  30.0 | 72.61
Neigh   | 0          | 0          | 0          |   0.0 |  0.00
Comm    | 0.025833   | 0.27645    | 0.83575    |  44.5 | 16.21
Output  | 0          | 0          | 0          |   0.0 |  0.00
Modify  | 1.7275e-05 | 0.00244    | 0.0052353  |   2.3 |  0.14
Other   |            | 0.1881     |            |       | 11.03

Nlocal:        2776.45 ave        3956 max           0 min
Histogram: 8 4 4 0 4 12 8 0 30 34
Nghost:        3879.04 ave        5426 max         232 min
Histogram: 8 0 8 0 16 0 8 8 16 40
Neighs:        79213.6 ave      115319 max           0 min
Histogram: 8 4 4 0 10 6 8 8 24 32

Total # of neighbors = 8238213
Ave neighs/atom = 28.530509
Neighbor list builds = 0
Dangerous builds = 0
The dot product: 2.44281469013156e-07
Setting atom values ...
  1 settings made for x
  1 settings made for y
  1 settings made for z
Setting up cg style minimization ...
  Unit style    : metal
  Current step  : 6284
Per MPI rank memory allocation (min/avg/max) = 5.441 | 5.816 | 6.074 Mbytes
Step PotEng KinEng TotEng v_fx v_fy v_fz 
    6284   -1152448.8            0   -1152448.8 -0.0083868159 0.0017379378  0.009902144 
    6455   -1152448.8            0   -1152448.8 5.5806892e-05 -9.434778e-06 -6.6040881e-05 
Loop time of 1.9915 on 104 procs for 171 steps with 288751 atoms

99.9% CPU use with 104 MPI tasks x 1 OpenMP threads

Minimization stats:
  Stopping criterion = energy tolerance
  Energy initial, next-to-last, final = 
     -1152448.77673475  -1152448.77835283  -1152448.77835283
  Force two-norm initial, final = 0.18036982 0.0002418634
  Force max component initial, final = 0.1497992 6.6040881e-05
  Final line search alpha, max atom move = 1.0000000 6.6040881e-05
  Iterations, force evaluations = 171 342

MPI task timing breakdown:
Section |  min time  |  avg time  |  max time  |%varavg| %total
---------------------------------------------------------------
Pair    | 0.52027    | 1.4452     | 1.874      |  32.4 | 72.57
Neigh   | 0          | 0          | 0          |   0.0 |  0.00
Comm    | 0.031271   | 0.32445    | 0.99511    |  48.3 | 16.29
Output  | 0          | 0          | 0          |   0.0 |  0.00
Modify  | 1.9766e-05 | 0.0028121  | 0.0060147  |   2.5 |  0.14
Other   |            | 0.219      |            |       | 11.00

Nlocal:        2776.45 ave        3955 max           0 min
Histogram: 8 4 4 0 4 12 8 0 30 34
Nghost:        3879.00 ave        5426 max         232 min
Histogram: 8 0 8 0 16 0 8 8 16 40
Neighs:        79213.6 ave      115301 max           0 min
Histogram: 8 4 4 0 10 6 8 8 24 32

Total # of neighbors = 8238215
Ave neighs/atom = 28.530516
Neighbor list builds = 0
Dangerous builds = 0
The dot product: 1.79616931590852e-07
Setting atom values ...
  1 settings made for x
  1 settings made for y
  1 settings made for z
Setting up cg style minimization ...
  Unit style    : metal
  Current step  : 6455
Per MPI rank memory allocation (min/avg/max) = 5.441 | 5.816 | 6.074 Mbytes
Step PotEng KinEng TotEng v_fx v_fy v_fz 
    6455   -1152448.7            0   -1152448.7 -0.011477158 0.0020437869  0.013488006 
    6685   -1152448.7            0   -1152448.7 8.7907333e-06 -2.21541e-06 -1.0284722e-05 
Loop time of 2.66496 on 104 procs for 230 steps with 288751 atoms

99.9% CPU use with 104 MPI tasks x 1 OpenMP threads

Minimization stats:
  Stopping criterion = energy tolerance
  Energy initial, next-to-last, final = 
     -1152448.73824175  -1152448.73988788  -1152448.73988788
  Force two-norm initial, final = 0.18126919 4.9681370e-05
  Force max component initial, final = 0.15108811 1.3669088e-05
  Final line search alpha, max atom move = 1.0000000 1.3669088e-05
  Iterations, force evaluations = 230 460

MPI task timing breakdown:
Section |  min time  |  avg time  |  max time  |%varavg| %total
---------------------------------------------------------------
Pair    | 0.69799    | 1.9288     | 2.5234     |  37.6 | 72.38
Neigh   | 0          | 0          | 0          |   0.0 |  0.00
Comm    | 0.040959   | 0.43156    | 1.3022     |  55.4 | 16.19
Output  | 0          | 0          | 0          |   0.0 |  0.00
Modify  | 2.7475e-05 | 0.0037842  | 0.0081078  |   2.9 |  0.14
Other   |            | 0.3008     |            |       | 11.29

Nlocal:        2776.45 ave        3955 max           0 min
Histogram: 8 4 4 0 4 12 8 0 30 34
Nghost:        3878.97 ave        5426 max         232 min
Histogram: 8 0 8 0 16 0 8 8 16 40
Neighs:        79213.6 ave      115299 max           0 min
Histogram: 8 4 4 0 10 6 8 8 24 32

Total # of neighbors = 8238213
Ave neighs/atom = 28.530509
Neighbor list builds = 0
Dangerous builds = 0
The dot product: 1.67714926545218e-08
Setting atom values ...
  1 settings made for x
  1 settings made for y
  1 settings made for z
Setting up cg style minimization ...
  Unit style    : metal
  Current step  : 6685
Per MPI rank memory allocation (min/avg/max) = 5.441 | 5.816 | 6.074 Mbytes
Step PotEng KinEng TotEng v_fx v_fy v_fz 
    6685   -1152448.7            0   -1152448.7 -0.014227571 0.0027484704  0.016644103 
    6944   -1152448.7            0   -1152448.7 1.3665093e-06 -6.4121077e-07 -1.5715104e-06 
Loop time of 2.97945 on 104 procs for 259 steps with 288751 atoms

99.9% CPU use with 104 MPI tasks x 1 OpenMP threads

Minimization stats:
  Stopping criterion = energy tolerance
  Energy initial, next-to-last, final = 
     -1152448.69891679  -1152448.70080244  -1152448.70080244
  Force two-norm initial, final = 0.18150198 1.7084063e-05
  Force max component initial, final = 0.15206029 3.1126333e-06
  Final line search alpha, max atom move = 1.0000000 3.1126333e-06
  Iterations, force evaluations = 259 518

MPI task timing breakdown:
Section |  min time  |  avg time  |  max time  |%varavg| %total
---------------------------------------------------------------
Pair    | 0.78804    | 2.1832     | 2.8239     |  39.8 | 73.28
Neigh   | 0          | 0          | 0          |   0.0 |  0.00
Comm    | 0.045067   | 0.48291    | 1.4693     |  59.8 | 16.21
Output  | 0          | 0          | 0          |   0.0 |  0.00
Modify  | 3.0057e-05 | 0.0042546  | 0.0091317  |   3.1 |  0.14
Other   |            | 0.309      |            |       | 10.37

Nlocal:        2776.45 ave        3954 max           0 min
Histogram: 8 4 4 0 4 12 8 0 30 34
Nghost:        3878.98 ave        5426 max         232 min
Histogram: 8 0 8 0 16 0 8 8 16 40
Neighs:        79213.6 ave      115261 max           0 min
Histogram: 8 4 4 0 10 6 8 8 24 32

Total # of neighbors = 8238215
Ave neighs/atom = 28.530516
Neighbor list builds = 0
Dangerous builds = 0
The dot product: 1.72437329510747e-09
Setting atom values ...
  1 settings made for x
  1 settings made for y
  1 settings made for z
Setting up cg style minimization ...
  Unit style    : metal
  Current step  : 6944
Per MPI rank memory allocation (min/avg/max) = 5.441 | 5.816 | 6.074 Mbytes
Step PotEng KinEng TotEng v_fx v_fy v_fz 
    6944   -1152448.7            0   -1152448.7 -0.016284153 0.0032985132  0.019001031 
    7000   -1152448.7            0   -1152448.7 6.0449607e-05 -4.4191024e-05 -6.8186794e-05 
    7085   -1152448.7            0   -1152448.7 2.1280374e-05 -1.1649273e-06 -2.5062061e-05 
Loop time of 1.6328 on 104 procs for 141 steps with 288751 atoms

99.9% CPU use with 104 MPI tasks x 1 OpenMP threads

Minimization stats:
  Stopping criterion = energy tolerance
  Energy initial, next-to-last, final = 
     -1152448.65945955  -1152448.66125005  -1152448.66125005
  Force two-norm initial, final = 0.18019078 0.00013321138
  Force max component initial, final = 0.1518969 2.5582172e-05
  Final line search alpha, max atom move = 1.0000000 2.5582172e-05
  Iterations, force evaluations = 141 282

MPI task timing breakdown:
Section |  min time  |  avg time  |  max time  |%varavg| %total
---------------------------------------------------------------
Pair    | 0.42899    | 1.1832     | 1.5426     |  29.4 | 72.46
Neigh   | 0          | 0          | 0          |   0.0 |  0.00
Comm    | 0.023908   | 0.2654     | 0.79715    |  43.3 | 16.25
Output  | 8.9278e-05 | 9.8748e-05 | 0.00020526 |   0.0 |  0.01
Modify  | 1.7823e-05 | 0.0023192  | 0.0049571  |   2.3 |  0.14
Other   |            | 0.1818     |            |       | 11.14

Nlocal:        2776.45 ave        3954 max           0 min
Histogram: 8 4 4 0 4 12 8 0 30 34
Nghost:        3878.94 ave        5426 max         232 min
Histogram: 8 0 8 0 16 0 8 8 16 40
Neighs:        79213.5 ave      115261 max           0 min
Histogram: 8 4 4 0 10 6 8 8 24 32

Total # of neighbors = 8238200
Ave neighs/atom = 28.530464
Neighbor list builds = 0
Dangerous builds = 0
The dot product: -1.86836243361512e-08
Setting atom values ...
  1 settings made for x
  1 settings made for y
  1 settings made for z
Setting up cg style minimization ...
  Unit style    : metal
  Current step  : 7085
Per MPI rank memory allocation (min/avg/max) = 5.441 | 5.816 | 6.074 Mbytes
Step PotEng KinEng TotEng v_fx v_fy v_fz 
    7085   -1152448.6            0   -1152448.6 -0.019197268 0.0037421982   0.02244019 
    7291   -1152448.6            0   -1152448.6 4.4922966e-06 2.9487343e-06 -5.5420669e-06 
Loop time of 2.38316 on 104 procs for 206 steps with 288751 atoms

99.9% CPU use with 104 MPI tasks x 1 OpenMP threads

Minimization stats:
  Stopping criterion = energy tolerance
  Energy initial, next-to-last, final = 
     -1152448.61982393  -1152448.62197417  -1152448.62197417
  Force two-norm initial, final = 0.17911468 0.00014591351
  Force max component initial, final = 0.15120385 1.5993491e-05
  Final line search alpha, max atom move = 1.0000000 1.5993491e-05
  Iterations, force evaluations = 206 412

MPI task timing breakdown:
Section |  min time  |  avg time  |  max time  |%varavg| %total
---------------------------------------------------------------
Pair    | 0.62815    | 1.7302     | 2.255      |  35.4 | 72.60
Neigh   | 0          | 0          | 0          |   0.0 |  0.00
Comm    | 0.042197   | 0.38548    | 1.1827     |  52.6 | 16.18
Output  | 0          | 0          | 0          |   0.0 |  0.00
Modify  | 2.3802e-05 | 0.003392   | 0.0072371  |   2.8 |  0.14
Other   |            | 0.2641     |            |       | 11.08

Nlocal:        2776.45 ave        3954 max           0 min
Histogram: 8 4 4 0 4 12 8 0 30 34
Nghost:        3878.89 ave        5426 max         232 min
Histogram: 8 0 8 0 16 0 8 8 16 40
Neighs:        79213.5 ave      115262 max           0 min
Histogram: 8 4 4 0 10 6 8 8 24 32

Total # of neighbors = 8238201
Ave neighs/atom = 28.530467
Neighbor list builds = 0
Dangerous builds = 0
The dot product: -9.38066981790342e-09
Setting atom values ...
  1 settings made for x
  1 settings made for y
  1 settings made for z
Setting up cg style minimization ...
  Unit style    : metal
  Current step  : 7291
Per MPI rank memory allocation (min/avg/max) = 5.441 | 5.816 | 6.074 Mbytes
Step PotEng KinEng TotEng v_fx v_fy v_fz 
    7291   -1152448.6            0   -1152448.6 -0.021528974 0.00085996663  0.025464035 
    7581   -1152448.6            0   -1152448.6 3.8305661e-06 -4.4266371e-07 -4.5077285e-06 
Loop time of 3.38999 on 104 procs for 290 steps with 288751 atoms

99.9% CPU use with 104 MPI tasks x 1 OpenMP threads

Minimization stats:
  Stopping criterion = energy tolerance
  Energy initial, next-to-last, final = 
     -1152448.58158392  -1152448.58609411  -1152448.58609411
  Force two-norm initial, final = 0.17845335 2.4632187e-05
  Force max component initial, final = 0.14830969 5.2200765e-06
  Final line search alpha, max atom move = 1.0000000 5.2200765e-06
  Iterations, force evaluations = 290 580

MPI task timing breakdown:
Section |  min time  |  avg time  |  max time  |%varavg| %total
---------------------------------------------------------------
Pair    | 0.88336    | 2.4363     | 3.1696     |  42.0 | 71.87
Neigh   | 1.0798e-05 | 0.0029378  | 0.0043427  |   2.2 |  0.09
Comm    | 0.051892   | 0.54832    | 1.6501     |  62.1 | 16.17
Output  | 0          | 0          | 0          |   0.0 |  0.00
Modify  | 3.4753e-05 | 0.0047717  | 0.010238   |   3.3 |  0.14
Other   |            | 0.3976     |            |       | 11.73

Nlocal:        2776.45 ave        3951 max           0 min
Histogram: 8 4 4 0 4 12 8 0 30 34
Nghost:        3879.05 ave        5426 max         232 min
Histogram: 8 0 8 0 16 0 8 8 16 40
Neighs:        79213.4 ave      115158 max           0 min
Histogram: 8 4 4 0 10 6 8 8 24 32

Total # of neighbors = 8238195
Ave neighs/atom = 28.530447
Neighbor list builds = 1
Dangerous builds = 0
The dot product: 7.41210673523341e-08
Setting atom values ...
  1 settings made for x
  1 settings made for y
  1 settings made for z
Setting up cg style minimization ...
  Unit style    : metal
  Current step  : 7581
Per MPI rank memory allocation (min/avg/max) = 5.441 | 5.816 | 6.074 Mbytes
Step PotEng KinEng TotEng v_fx v_fy v_fz 
    7581   -1152448.6            0   -1152448.6 -0.011699436 -0.0012475806  0.013534677 
    7758   -1152448.6            0   -1152448.6 5.7350579e-05 -6.5612299e-06 -6.527938e-05 
Loop time of 2.04204 on 104 procs for 177 steps with 288751 atoms

99.9% CPU use with 104 MPI tasks x 1 OpenMP threads

Minimization stats:
  Stopping criterion = energy tolerance
  Energy initial, next-to-last, final = 
     -1152448.55848072  -1152448.56157817  -1152448.56157817
  Force two-norm initial, final = 0.1844015 0.00032308862
  Force max component initial, final = 0.14846135 8.0540564e-05
  Final line search alpha, max atom move = 1.0000000 8.0540564e-05
  Iterations, force evaluations = 177 354

MPI task timing breakdown:
Section |  min time  |  avg time  |  max time  |%varavg| %total
---------------------------------------------------------------
Pair    | 0.5419     | 1.4907     | 1.9378     |  32.9 | 73.00
Neigh   | 0          | 0          | 0          |   0.0 |  0.00
Comm    | 0.030717   | 0.33146    | 1.0155     |  49.2 | 16.23
Output  | 0          | 0          | 0          |   0.0 |  0.00
Modify  | 2.0643e-05 | 0.0029277  | 0.0062901  |   2.6 |  0.14
Other   |            | 0.2169     |            |       | 10.62

Nlocal:        2776.45 ave        3952 max           0 min
Histogram: 8 4 4 0 4 12 8 0 30 34
Nghost:        3879.05 ave        5426 max         232 min
Histogram: 8 0 8 0 16 0 8 8 16 40
Neighs:        79213.4 ave      115221 max           0 min
Histogram: 8 4 4 0 10 6 8 8 24 32

Total # of neighbors = 8238198
Ave neighs/atom = 28.530457
Neighbor list builds = 0
Dangerous builds = 0
The dot product: 5.33582848626421e-07
Setting atom values ...
  1 settings made for x
  1 settings made for y
  1 settings made for z
Setting up cg style minimization ...
  Unit style    : metal
  Current step  : 7758
Per MPI rank memory allocation (min/avg/max) = 5.441 | 5.816 | 6.074 Mbytes
Step PotEng KinEng TotEng v_fx v_fy v_fz 
    7758   -1152448.5            0   -1152448.5  -0.02461148 0.0041667131  0.027456608 
    7992   -1152448.5            0   -1152448.5 1.2200402e-05 -1.5648213e-06 -1.3653747e-05 
[...]

Nlocal:        2776.45 ave        3962 max           0 min
Histogram: 8 4 4 0 6 10 8 4 26 34
Nghost:        3879.12 ave        5424 max         232 min
Histogram: 8 0 8 0 16 0 8 8 16 40
Neighs:        79213.3 ave      115512 max           0 min
Histogram: 8 4 4 0 10 6 8 8 24 32

Total # of neighbors = 8238179
Ave neighs/atom = 28.530391
Neighbor list builds = 0
Dangerous builds = 0
The dot product: 1.71361345128256e-09
Setting atom values ...
  1 settings made for x
  1 settings made for y
  1 settings made for z
Setting up cg style minimization ...
  Unit style    : metal
  Current step  : 5083
Per MPI rank memory allocation (min/avg/max) = 5.441 | 5.816 | 6.074 Mbytes
Step PotEng KinEng TotEng v_fx v_fy v_fz 
    5083   -1152448.9            0   -1152448.9  0.087191405  0.010547826  0.082029706 
    5330     -1152449            0     -1152449 -3.9286581e-05 -2.0345248e-06 9.1925943e-06 
Loop time of 2.85539 on 104 procs for 247 steps with 288751 atoms

99.9% CPU use with 104 MPI tasks x 1 OpenMP threads

Minimization stats:
  Stopping criterion = energy tolerance
  Energy initial, next-to-last, final = 
      -1152448.9420744   -1152448.9787384   -1152448.9787384
  Force two-norm initial, final = 0.22819185 0.00013880784
  Force max component initial, final = 0.18043325 3.9286581e-05
  Final line search alpha, max atom move = 1.0000000 3.9286581e-05
  Iterations, force evaluations = 247 493

MPI task timing breakdown:
Section |  min time  |  avg time  |  max time  |%varavg| %total
---------------------------------------------------------------
Pair    | 0.75502    | 2.0662     | 2.697      |  38.7 | 72.36
Neigh   | 1.0358e-05 | 0.0029551  | 0.0042751  |   2.2 |  0.10
Comm    | 0.050027   | 0.47292    | 1.4148     |  56.0 | 16.56
Output  | 0          | 0          | 0          |   0.0 |  0.00
Modify  | 3.0312e-05 | 0.0040509  | 0.0086517  |   3.0 |  0.14
Other   |            | 0.3093     |            |       | 10.83

Nlocal:        2776.45 ave        3962 max           0 min
Histogram: 8 4 4 0 6 10 8 3 27 34
Nghost:        3879.13 ave        5424 max         232 min
Histogram: 8 0 8 0 16 0 8 8 16 40
Neighs:        79213.4 ave      115512 max           0 min
Histogram: 8 4 4 0 10 6 8 8 24 32

Total # of neighbors = 8238194
Ave neighs/atom = 28.530443
Neighbor list builds = 1
Dangerous builds = 0
The dot product: -5.70613288747347e-07
Setting atom values ...
  1 settings made for x
  1 settings made for y
  1 settings made for z
Setting up cg style minimization ...
  Unit style    : metal
  Current step  : 5330
Per MPI rank memory allocation (min/avg/max) = 5.441 | 5.816 | 6.074 Mbytes
Step PotEng KinEng TotEng v_fx v_fy v_fz 
    5330     -1152449            0     -1152449  0.065204632 -0.0070606995   0.13774442 
    5508     -1152449            0     -1152449 -1.225529e-05 -1.6061411e-06 2.5787084e-05 
Loop time of 2.06008 on 104 procs for 178 steps with 288751 atoms

99.9% CPU use with 104 MPI tasks x 1 OpenMP threads

Minimization stats:
  Stopping criterion = energy tolerance
  Energy initial, next-to-last, final = 
     -1152448.95630066  -1152448.96023914  -1152448.96023914
  Force two-norm initial, final = 0.25723982 0.00026352913
  Force max component initial, final = 0.19093457 8.2286143e-05
  Final line search alpha, max atom move = 1.0000000 8.2286143e-05
  Iterations, force evaluations = 178 356

MPI task timing breakdown:
Section |  min time  |  avg time  |  max time  |%varavg| %total
---------------------------------------------------------------
Pair    | 0.53966    | 1.489      | 1.9487     |  32.8 | 72.28
Neigh   | 0          | 0          | 0          |   0.0 |  0.00
Comm    | 0.030842   | 0.33485    | 1.004      |  48.1 | 16.25
Output  | 0          | 0          | 0          |   0.0 |  0.00
Modify  | 2.1622e-05 | 0.0029297  | 0.0062299  |   2.6 |  0.14
Other   |            | 0.2333     |            |       | 11.32

Nlocal:        2776.45 ave        3962 max           0 min
Histogram: 8 4 4 0 6 10 8 4 26 34
Nghost:        3879.09 ave        5424 max         232 min
Histogram: 8 0 8 0 16 0 8 8 16 40
Neighs:        79213.3 ave      115514 max           0 min
Histogram: 8 4 4 0 10 6 8 8 24 32

Total # of neighbors = 8238183
Ave neighs/atom = 28.530405
Neighbor list builds = 0
Dangerous builds = 0
The dot product: 5.50935397633157e-07
Setting atom values ...
  1 settings made for x
  1 settings made for y
  1 settings made for z
Setting up cg style minimization ...
  Unit style    : metal
  Current step  : 5508
Per MPI rank memory allocation (min/avg/max) = 5.441 | 5.816 | 6.074 Mbytes
Step PotEng KinEng TotEng v_fx v_fy v_fz 
    5508   -1152448.9            0   -1152448.9  0.028741385 -0.0074131094  0.067534433 
    5708   -1152448.9            0   -1152448.9 5.0060408e-07 6.7773077e-07 -6.4791049e-06 
Loop time of 2.32362 on 104 procs for 200 steps with 288751 atoms

99.9% CPU use with 104 MPI tasks x 1 OpenMP threads

Minimization stats:
  Stopping criterion = energy tolerance
  Energy initial, next-to-last, final = 
     -1152448.93775635  -1152448.94015061  -1152448.94015061
  Force two-norm initial, final = 0.22433476 5.8903312e-05
  Force max component initial, final = 0.19347256 6.4791049e-06
  Final line search alpha, max atom move = 1.0000000 6.4791049e-06
  Iterations, force evaluations = 200 400

MPI task timing breakdown:
Section |  min time  |  avg time  |  max time  |%varavg| %total
---------------------------------------------------------------
Pair    | 0.60526    | 1.6766     | 2.2037     |  35.1 | 72.16
Neigh   | 0          | 0          | 0          |   0.0 |  0.00
Comm    | 0.034265   | 0.38684    | 1.1461     |  49.9 | 16.65
Output  | 0          | 0          | 0          |   0.0 |  0.00
Modify  | 2.4392e-05 | 0.0032998  | 0.0070645  |   2.7 |  0.14
Other   |            | 0.2569     |            |       | 11.05

Nlocal:        2776.45 ave        3961 max           0 min
Histogram: 8 4 4 0 6 10 8 4 26 34
Nghost:        3879.09 ave        5424 max         232 min
Histogram: 8 0 8 0 16 0 8 8 16 40
Neighs:        79213.3 ave      115495 max           0 min
Histogram: 8 4 4 0 10 6 8 8 24 32

Total # of neighbors = 8238184
Ave neighs/atom = 28.530409
Neighbor list builds = 0
Dangerous builds = 0
The dot product: -8.33588027318307e-08
Setting atom values ...
  1 settings made for x
  1 settings made for y
  1 settings made for z
Setting up cg style minimization ...
  Unit style    : metal
  Current step  : 5708
Per MPI rank memory allocation (min/avg/max) = 5.441 | 5.816 | 6.074 Mbytes
Step PotEng KinEng TotEng v_fx v_fy v_fz 
    5708   -1152448.9            0   -1152448.9  0.013202005 -0.005516543  0.041025267 
    5876   -1152448.9            0   -1152448.9 -5.0364563e-06 -3.7868994e-06 3.0248359e-05 
Loop time of 1.93561 on 104 procs for 168 steps with 288751 atoms

99.9% CPU use with 104 MPI tasks x 1 OpenMP threads

Minimization stats:
  Stopping criterion = energy tolerance
  Energy initial, next-to-last, final = 
     -1152448.91771969  -1152448.92002236  -1152448.92002236
  Force two-norm initial, final = 0.22141225 0.00010835383
  Force max component initial, final = 0.19592595 3.0248359e-05
  Final line search alpha, max atom move = 1.0000000 3.0248359e-05
  Iterations, force evaluations = 168 336

MPI task timing breakdown:
Section |  min time  |  avg time  |  max time  |%varavg| %total
---------------------------------------------------------------
Pair    | 0.50926    | 1.4054     | 1.8346     |  32.0 | 72.61
Neigh   | 0          | 0          | 0          |   0.0 |  0.00
Comm    | 0.029536   | 0.31526    | 0.9488     |  46.7 | 16.29
Output  | 0          | 0          | 0          |   0.0 |  0.00
Modify  | 2.0551e-05 | 0.0027643  | 0.0059061  |   2.5 |  0.14
Other   |            | 0.2122     |            |       | 10.96

Nlocal:        2776.45 ave        3961 max           0 min
Histogram: 8 4 4 0 6 10 8 4 26 34
Nghost:        3879.07 ave        5424 max         232 min
Histogram: 8 0 8 0 16 0 8 8 16 40
Neighs:        79213.3 ave      115494 max           0 min
Histogram: 8 4 4 0 10 6 8 8 24 32

Total # of neighbors = 8238183
Ave neighs/atom = 28.530405
Neighbor list builds = 0
Dangerous builds = 0
The dot product: 2.36876217904058e-07
Setting atom values ...
  1 settings made for x
  1 settings made for y
  1 settings made for z
Setting up cg style minimization ...
  Unit style    : metal
  Current step  : 5876
Per MPI rank memory allocation (min/avg/max) = 5.441 | 5.816 | 6.074 Mbytes
Step PotEng KinEng TotEng v_fx v_fy v_fz 
    5876   -1152448.9            0   -1152448.9 0.0071825025 -0.0043677605  0.029566085 
    6000   -1152448.9            0   -1152448.9 4.7198779e-05 4.3675558e-07 -1.0693039e-05 
    6016   -1152448.9            0   -1152448.9 1.2378167e-05 2.5202817e-06 -1.9727902e-05 
Loop time of 1.64369 on 104 procs for 140 steps with 288751 atoms

99.9% CPU use with 104 MPI tasks x 1 OpenMP threads

Minimization stats:
  Stopping criterion = energy tolerance
  Energy initial, next-to-last, final = 
      -1152448.8977262  -1152448.89966707  -1152448.89966707
  Force two-norm initial, final = 0.22051058 0.00020737438
  Force max component initial, final = 0.19847106 5.2212468e-05
  Final line search alpha, max atom move = 1.0000000 5.2212468e-05
  Iterations, force evaluations = 140 280

MPI task timing breakdown:
Section |  min time  |  avg time  |  max time  |%varavg| %total
---------------------------------------------------------------
Pair    | 0.424      | 1.1759     | 1.5471     |  29.2 | 71.54
Neigh   | 0          | 0          | 0          |   0.0 |  0.00
Comm    | 0.023799   | 0.27183    | 0.79693    |  41.6 | 16.54
Output  | 0.00011171 | 0.00012027 | 0.00027441 |   0.0 |  0.01
Modify  | 1.7472e-05 | 0.0023123  | 0.0049526  |   2.3 |  0.14
Other   |            | 0.1935     |            |       | 11.77

Nlocal:        2776.45 ave        3960 max           0 min
Histogram: 8 4 4 0 4 12 8 4 26 34
Nghost:        3879.07 ave        5424 max         232 min
Histogram: 8 0 8 0 16 0 8 8 16 40
Neighs:        79213.3 ave      115448 max           0 min
Histogram: 8 4 4 0 10 6 8 8 24 32

Total # of neighbors = 8238182
Ave neighs/atom = 28.530402
Neighbor list builds = 0
Dangerous builds = 0
The dot product: -7.88416941902002e-08
Setting atom values ...
  1 settings made for x
  1 settings made for y
  1 settings made for z
Setting up cg style minimization ...
  Unit style    : metal
  Current step  : 6016
Per MPI rank memory allocation (min/avg/max) = 5.441 | 5.816 | 6.074 Mbytes
Step PotEng KinEng TotEng v_fx v_fy v_fz 
    6016   -1152448.9            0   -1152448.9 0.0046983055 -0.0030089143  0.019351179 
    6224   -1152448.9            0   -1152448.9 -8.0544954e-07 4.9900195e-07 -3.2049342e-06 
Loop time of 2.3968 on 104 procs for 208 steps with 288751 atoms

99.9% CPU use with 104 MPI tasks x 1 OpenMP threads

Minimization stats:
  Stopping criterion = energy tolerance
  Energy initial, next-to-last, final = 
     -1152448.87614117  -1152448.87795773  -1152448.87795773
  Force two-norm initial, final = 0.21963713 5.0926392e-05
  Force max component initial, final = 0.20106234 4.7892776e-06
  Final line search alpha, max atom move = 1.0000000 4.7892776e-06
  Iterations, force evaluations = 208 416

MPI task timing breakdown:
Section |  min time  |  avg time  |  max time  |%varavg| %total
---------------------------------------------------------------
Pair    | 0.63132    | 1.7389     | 2.2722     |  35.5 | 72.55
Neigh   | 0          | 0          | 0          |   0.0 |  0.00
Comm    | 0.034886   | 0.39064    | 1.1883     |  52.0 | 16.30
Output  | 0          | 0          | 0          |   0.0 |  0.00
Modify  | 2.4632e-05 | 0.0034241  | 0.0072928  |   2.8 |  0.14
Other   |            | 0.2639     |            |       | 11.01

Nlocal:        2776.45 ave        3960 max           0 min
Histogram: 8 4 4 0 4 12 8 4 26 34
Nghost:        3879.07 ave        5424 max         232 min
Histogram: 8 0 8 0 16 0 8 8 16 40
Neighs:        79213.3 ave      115447 max           0 min
Histogram: 8 4 4 0 10 6 8 8 24 32

Total # of neighbors = 8238180
Ave neighs/atom = 28.530395
Neighbor list builds = 0
Dangerous builds = 0
The dot product: -6.34371171875749e-09
Setting atom values ...
  1 settings made for x
  1 settings made for y
  1 settings made for z
Setting up cg style minimization ...
  Unit style    : metal
  Current step  : 6224
Per MPI rank memory allocation (min/avg/max) = 5.441 | 5.816 | 6.074 Mbytes
Step PotEng KinEng TotEng v_fx v_fy v_fz 
    6224   -1152448.9            0   -1152448.9 0.0032185675 -0.0020599747   0.01297732 
    6418   -1152448.9            0   -1152448.9 -8.3936683e-07 2.5118354e-07 -1.5113301e-06 
Loop time of 2.26192 on 104 procs for 194 steps with 288751 atoms

99.9% CPU use with 104 MPI tasks x 1 OpenMP threads

Minimization stats:
  Stopping criterion = energy tolerance
  Energy initial, next-to-last, final = 
     -1152448.85238684  -1152448.85431953  -1152448.85431953
  Force two-norm initial, final = 0.22370633 7.8210273e-05
  Force max component initial, final = 0.20357247 1.1339640e-05
  Final line search alpha, max atom move = 1.0000000 1.1339640e-05
  Iterations, force evaluations = 194 388

MPI task timing breakdown:
Section |  min time  |  avg time  |  max time  |%varavg| %total
---------------------------------------------------------------
Pair    | 0.58797    | 1.6254     | 2.1408     |  34.4 | 71.86
Neigh   | 0          | 0          | 0          |   0.0 |  0.00
Comm    | 0.037793   | 0.37251    | 1.1044     |  49.7 | 16.47
Output  | 0          | 0          | 0          |   0.0 |  0.00
Modify  | 2.3314e-05 | 0.003198   | 0.006808   |   2.7 |  0.14
Other   |            | 0.2608     |            |       | 11.53

Nlocal:        2776.45 ave        3960 max           0 min
Histogram: 8 4 4 0 4 12 8 4 26 34
Nghost:        3879.07 ave        5424 max         232 min
Histogram: 8 0 8 0 16 0 8 8 16 40
Neighs:        79213.3 ave      115447 max           0 min
Histogram: 8 4 4 0 10 6 8 8 24 32

Total # of neighbors = 8238179
Ave neighs/atom = 28.530391
Neighbor list builds = 0
Dangerous builds = 0
The dot product: -5.09587234550656e-10
Setting atom values ...
  1 settings made for x
  1 settings made for y
  1 settings made for z
Setting up cg style minimization ...
  Unit style    : metal
  Current step  : 6418
Per MPI rank memory allocation (min/avg/max) = 5.441 | 5.816 | 6.074 Mbytes
Step PotEng KinEng TotEng v_fx v_fy v_fz 
    6418   -1152448.8            0   -1152448.8 0.0024886436 -0.0015247938 0.0095403744 
    6560   -1152448.8            0   -1152448.8 3.7340188e-06 -4.4730044e-06 2.852958e-05 
Loop time of 1.65537 on 104 procs for 142 steps with 288751 atoms

99.9% CPU use with 104 MPI tasks x 1 OpenMP threads

Minimization stats:
  Stopping criterion = energy tolerance
  Energy initial, next-to-last, final = 
     -1152448.82650041  -1152448.82854433  -1152448.82854433
  Force two-norm initial, final = 0.2283762 0.00020016331
  Force max component initial, final = 0.20619359 7.4668039e-05
  Final line search alpha, max atom move = 1.0000000 7.4668039e-05
  Iterations, force evaluations = 142 284

MPI task timing breakdown:
Section |  min time  |  avg time  |  max time  |%varavg| %total
---------------------------------------------------------------
Pair    | 0.43207    | 1.1884     | 1.5604     |  29.3 | 71.79
Neigh   | 0          | 0          | 0          |   0.0 |  0.00
Comm    | 0.030429   | 0.27217    | 0.83428    |  42.8 | 16.44
Output  | 0          | 0          | 0          |   0.0 |  0.00
Modify  | 1.7808e-05 | 0.0023428  | 0.0050123  |   2.3 |  0.14
Other   |            | 0.1925     |            |       | 11.63

Nlocal:        2776.45 ave        3960 max           0 min
Histogram: 8 4 4 0 4 12 8 4 26 34
Nghost:        3879.07 ave        5424 max         232 min
Histogram: 8 0 8 0 16 0 8 8 16 40
Neighs:        79213.2 ave      115444 max           0 min
Histogram: 8 4 4 0 10 6 8 8 24 32

Total # of neighbors = 8238176
Ave neighs/atom = 28.530381
Neighbor list builds = 0
Dangerous builds = 0
The dot product: -3.42547068691757e-09
Setting atom values ...
  1 settings made for x
  1 settings made for y
  1 settings made for z
Setting up cg style minimization ...
  Unit style    : metal
  Current step  : 6560
Per MPI rank memory allocation (min/avg/max) = 5.441 | 5.816 | 6.074 Mbytes
Step PotEng KinEng TotEng v_fx v_fy v_fz 
    6560   -1152448.8            0   -1152448.8 0.0022193729 -0.0012005945 0.0074908763 
    6773   -1152448.8            0   -1152448.8 -3.7114947e-06 -1.5826391e-06 1.0832086e-05 
Loop time of 2.49906 on 104 procs for 213 steps with 288751 atoms

99.9% CPU use with 104 MPI tasks x 1 OpenMP threads

Minimization stats:
  Stopping criterion = energy tolerance
  Energy initial, next-to-last, final = 
     -1152448.79837058  -1152448.80051282  -1152448.80051282
  Force two-norm initial, final = 0.23294763 6.0509537e-05
  Force max component initial, final = 0.20892307 1.9847609e-05
  Final line search alpha, max atom move = 1.0000000 1.9847609e-05
  Iterations, force evaluations = 213 426

MPI task timing breakdown:
Section |  min time  |  avg time  |  max time  |%varavg| %total
---------------------------------------------------------------
Pair    | 0.64717    | 1.7915     | 2.3491     |  36.2 | 71.69
Neigh   | 0          | 0          | 0          |   0.0 |  0.00
Comm    | 0.037531   | 0.41104    | 1.2124     |  51.6 | 16.45
Output  | 0          | 0          | 0          |   0.0 |  0.00
Modify  | 2.5504e-05 | 0.0035002  | 0.0074488  |   2.8 |  0.14
Other   |            | 0.293      |            |       | 11.73

Nlocal:        2776.45 ave        3960 max           0 min
Histogram: 8 4 4 0 4 12 8 4 26 34
Nghost:        3879.07 ave        5424 max         232 min
Histogram: 8 0 8 0 16 0 8 8 16 40
Neighs:        79213.2 ave      115444 max           0 min
Histogram: 8 4 4 0 10 6 8 8 24 32

Total # of neighbors = 8238175
Ave neighs/atom = 28.530377
Neighbor list builds = 0
Dangerous builds = 0
The dot product: -1.18297243349595e-11
Setting up cg style minimization ...
  Unit style    : metal
  Current step  : 6773
Per MPI rank memory allocation (min/avg/max) = 5.441 | 5.816 | 6.074 Mbytes
Step PotEng KinEng TotEng v_fx v_fy v_fz 
    6773   -1152448.8            0   -1152448.8 -0.031985138   -1.4422608  -0.22167081 
    7000   -1152449.5            0   -1152449.5 -6.7856786e-05 -1.56019e-05 6.7614519e-05 
    7076   -1152449.5            0   -1152449.5 -2.0879457e-07 9.0899243e-07 -3.2776988e-06 
Loop time of 3.50177 on 104 procs for 303 steps with 288751 atoms

99.9% CPU use with 104 MPI tasks x 1 OpenMP threads

Minimization stats:
  Stopping criterion = energy tolerance
  Energy initial, next-to-last, final = 
     -1152448.80051282  -1152449.45035286  -1152449.45035286
  Force two-norm initial, final = 1.4595469 2.8868994e-05
  Force max component initial, final = 1.4422608 7.6760525e-06
  Final line search alpha, max atom move = 1.0000000 7.6760525e-06
  Iterations, force evaluations = 303 601

MPI task timing breakdown:
Section |  min time  |  avg time  |  max time  |%varavg| %total
---------------------------------------------------------------
Pair    | 0.93218    | 2.5184     | 3.2908     |  42.4 | 71.92
Neigh   | 4.0338e-05 | 0.01183    | 0.017245   |   4.5 |  0.34
Comm    | 0.052456   | 0.56799    | 1.6993     |  62.2 | 16.22
Output  | 0.00016935 | 0.00017704 | 0.00035532 |   0.0 |  0.01
Modify  | 3.2848e-05 | 0.0032244  | 0.0082146  |   3.5 |  0.09
Other   |            | 0.4001     |            |       | 11.43

Nlocal:        2776.45 ave        3961 max           0 min
Histogram: 8 4 4 0 6 10 8 4 26 34
Nghost:        3879.07 ave        5424 max         232 min
Histogram: 8 0 8 0 16 0 8 8 16 40
Neighs:        79213.3 ave      115487 max           0 min
Histogram: 8 4 4 0 10 6 8 8 24 32

Total # of neighbors = 8238180
Ave neighs/atom = 28.530395
Neighbor list builds = 4
Dangerous builds = 0
