LAMMPS (29 Oct 2020)
OMP_NUM_THREADS environment is not set. Defaulting to 1 thread. (../comm.cpp:94)
  using 1 OpenMP thread(s) per MPI task
OMP_NUM_THREADS environment is not set. Defaulting to 1 thread. (../comm.cpp:94)
  using 1 OpenMP thread(s) per MPI task
Reading data file ...
  orthogonal box = (-122.39241 -121.13707 -37.090501) to (122.39241 121.13707 37.090501)
  13 by 4 by 2 MPI processor grid
  reading atoms ...
  288751 atoms
  read_data CPU = 0.382 seconds
199981 atoms in group inner
88770 atoms in group outer
1 atoms in group carbon
Neighbor list info ...
  update every 1 steps, delay 0 steps, check yes
  max neighbors/atom: 2000, page size: 100000
  master list distance cutoff = 5.6
  ghost atom cutoff = 5.6
  binsize = 2.8, bins = 88 87 27
  1 neighbor lists, perpetual/occasional/extra = 1 0 0
  (1) pair eam/alloy, perpetual
      attributes: half, newton on
      pair build: half/bin/atomonly/newton
      stencil: half/bin/3d/newton
      bin: standard
Setting up cg style minimization ...
  Unit style    : metal
  Current step  : 0
Per MPI rank memory allocation (min/avg/max) = 5.441 | 5.816 | 6.074 Mbytes
Step v_fx v_fy v_fz PotEng KinEng TotEng 
       0   -12.781645    23.481295   -7.9008292   -1152441.7            0   -1152441.7 
     252 -5.5972613e-06 1.1932199e-05 -1.3100933e-05     -1152449            0     -1152449 
Loop time of 2.98042 on 104 procs for 252 steps with 288751 atoms

99.9% CPU use with 104 MPI tasks x 1 OpenMP threads

Minimization stats:
  Stopping criterion = energy tolerance
  Energy initial, next-to-last, final = 
     -1152441.73744256  -1152448.97218785  -1152448.97218785
  Force two-norm initial, final = 45.609465 0.00012327213
  Force max component initial, final = 29.822548 1.8519475e-05
  Final line search alpha, max atom move = 1.0000000 1.8519475e-05
  Iterations, force evaluations = 252 500

MPI task timing breakdown:
Section |  min time  |  avg time  |  max time  |%varavg| %total
---------------------------------------------------------------
Pair    | 0.80756    | 2.1118     | 2.7552     |  38.0 | 70.86
Neigh   | 0.0001046  | 0.029448   | 0.042925   |   7.1 |  0.99
Comm    | 0.053554   | 0.47846    | 1.4151     |  56.7 | 16.05
Output  | 0          | 0          | 0          |   0.0 |  0.00
Modify  | 2.9706e-05 | 0.0026971  | 0.0069135  |   3.2 |  0.09
Other   |            | 0.358      |            |       | 12.01

Nlocal:        2776.45 ave        3959 max           0 min
Histogram: 8 4 4 0 4 12 8 2 28 34
Nghost:        3879.05 ave        5424 max         232 min
Histogram: 8 0 8 0 16 0 8 8 16 40
Neighs:        79213.6 ave      115442 max           0 min
Histogram: 8 4 4 0 10 6 8 8 24 32

Total # of neighbors = 8238214
Ave neighs/atom = 28.530512
Neighbor list builds = 10
Dangerous builds = 0
Setting atom values ...
  1 settings made for x
  1 settings made for y
  1 settings made for z
Setting up cg style minimization ...
  Unit style    : metal
  Current step  : 252
Per MPI rank memory allocation (min/avg/max) = 5.441 | 5.816 | 6.074 Mbytes
Step PotEng KinEng TotEng v_fx v_fy v_fz 
     252     -1152449            0     -1152449  0.019024903   0.01920238 -0.013512003 
     385     -1152449            0     -1152449 1.5298167e-05 1.4503552e-05 -1.1667012e-05 
Loop time of 1.57874 on 104 procs for 133 steps with 288751 atoms

99.9% CPU use with 104 MPI tasks x 1 OpenMP threads

Minimization stats:
  Stopping criterion = energy tolerance
  Energy initial, next-to-last, final = 
      -1152448.9713713  -1152448.97198106  -1152448.97198106
  Force two-norm initial, final = 0.1137872 0.00021608826
  Force max component initial, final = 0.053778034 4.8883347e-05
  Final line search alpha, max atom move = 1.0000000 4.8883347e-05
  Iterations, force evaluations = 133 266

MPI task timing breakdown:
Section |  min time  |  avg time  |  max time  |%varavg| %total
---------------------------------------------------------------
Pair    | 0.40939    | 1.1253     | 1.4939     |  28.6 | 71.28
Neigh   | 0          | 0          | 0          |   0.0 |  0.00
Comm    | 0.026843   | 0.25696    | 0.76258    |  41.6 | 16.28
Output  | 0          | 0          | 0          |   0.0 |  0.00
Modify  | 1.5333e-05 | 0.0021934  | 0.0047048  |   2.2 |  0.14
Other   |            | 0.1943     |            |       | 12.31

Nlocal:        2776.45 ave        3957 max           0 min
Histogram: 8 4 4 0 4 12 8 2 28 34
Nghost:        3879.14 ave        5425 max         232 min
Histogram: 8 0 8 0 16 0 8 8 16 40
Neighs:        79213.5 ave      115383 max           0 min
Histogram: 8 4 4 0 10 6 8 8 24 32

Total # of neighbors = 8238206
Ave neighs/atom = 28.530485
Neighbor list builds = 0
Dangerous builds = 0
Setting atom values ...
  1 settings made for x
  1 settings made for y
  1 settings made for z
Setting up cg style minimization ...
  Unit style    : metal
  Current step  : 385
Per MPI rank memory allocation (min/avg/max) = 5.441 | 5.816 | 6.074 Mbytes
Step PotEng KinEng TotEng v_fx v_fy v_fz 
     385     -1152449            0     -1152449  0.032004938  0.037989819 -0.015182508 
     578     -1152449            0     -1152449 1.3154406e-05 1.198141e-05 -8.346036e-06 
Loop time of 2.26497 on 104 procs for 193 steps with 288751 atoms

99.9% CPU use with 104 MPI tasks x 1 OpenMP threads

Minimization stats:
  Stopping criterion = energy tolerance
  Energy initial, next-to-last, final = 
     -1152448.96843329  -1152448.97053268  -1152448.97053268
  Force two-norm initial, final = 0.20735959 0.00012567514
  Force max component initial, final = 0.096490305 2.4422899e-05
  Final line search alpha, max atom move = 1.0000000 2.4422899e-05
  Iterations, force evaluations = 193 386

MPI task timing breakdown:
Section |  min time  |  avg time  |  max time  |%varavg| %total
---------------------------------------------------------------
Pair    | 0.5877     | 1.6193     | 2.1322     |  34.4 | 71.49
Neigh   | 0          | 0          | 0          |   0.0 |  0.00
Comm    | 0.041265   | 0.36767    | 1.0898     |  50.0 | 16.23
Output  | 0          | 0          | 0          |   0.0 |  0.00
Modify  | 2.2286e-05 | 0.0031898  | 0.0073797  |   2.7 |  0.14
Other   |            | 0.2748     |            |       | 12.13

Nlocal:        2776.45 ave        3957 max           0 min
Histogram: 8 4 4 0 4 12 8 2 28 34
Nghost:        3879.14 ave        5425 max         232 min
Histogram: 8 0 8 0 16 0 8 8 16 40
Neighs:        79213.5 ave      115383 max           0 min
Histogram: 8 4 4 0 10 6 8 8 24 32

Total # of neighbors = 8238203
Ave neighs/atom = 28.530474
Neighbor list builds = 0
Dangerous builds = 0
The dot product: -5.81331327141712e-08
Setting atom values ...
  1 settings made for x
  1 settings made for y
  1 settings made for z
Setting up cg style minimization ...
  Unit style    : metal
  Current step  : 578
Per MPI rank memory allocation (min/avg/max) = 5.441 | 5.816 | 6.074 Mbytes
Step PotEng KinEng TotEng v_fx v_fy v_fz 
     578     -1152449            0     -1152449  0.012851289  0.045925027 0.0062045693 
     850     -1152449            0     -1152449 -3.6434157e-06 -6.1189313e-06 6.651414e-07 
Loop time of 3.19889 on 104 procs for 272 steps with 288751 atoms

99.9% CPU use with 104 MPI tasks x 1 OpenMP threads

Minimization stats:
  Stopping criterion = energy tolerance
  Energy initial, next-to-last, final = 
     -1152448.96540587  -1152448.96892467  -1152448.96892467
  Force two-norm initial, final = 0.20794195 0.0001110735
  Force max component initial, final = 0.094086083 2.1865862e-05
  Final line search alpha, max atom move = 1.0000000 2.1865862e-05
  Iterations, force evaluations = 272 544

MPI task timing breakdown:
Section |  min time  |  avg time  |  max time  |%varavg| %total
---------------------------------------------------------------
Pair    | 0.83054    | 2.2997     | 2.9964     |  40.7 | 71.89
Neigh   | 0          | 0          | 0          |   0.0 |  0.00
Comm    | 0.061711   | 0.51768    | 1.56       |  60.4 | 16.18
Output  | 0          | 0          | 0          |   0.0 |  0.00
Modify  | 3.1838e-05 | 0.0044863  | 0.0096172  |   3.2 |  0.14
Other   |            | 0.3771     |            |       | 11.79

Nlocal:        2776.45 ave        3957 max           0 min
Histogram: 8 4 4 0 4 12 8 2 28 34
Nghost:        3879.14 ave        5425 max         232 min
Histogram: 8 0 8 0 16 0 8 8 16 40
Neighs:        79213.5 ave      115396 max           0 min
Histogram: 8 4 4 0 10 6 8 8 24 32

Total # of neighbors = 8238203
Ave neighs/atom = 28.530474
Neighbor list builds = 0
Dangerous builds = 0
The dot product: 2.21445264928552e-08
Setting atom values ...
  1 settings made for x
  1 settings made for y
  1 settings made for z
Setting up cg style minimization ...
  Unit style    : metal
  Current step  : 850
Per MPI rank memory allocation (min/avg/max) = 5.441 | 5.816 | 6.074 Mbytes
Step PotEng KinEng TotEng v_fx v_fy v_fz 
     850     -1152449            0     -1152449 -0.071442444  0.077571188 -0.0011532673 
    1000   -1152449.2            0   -1152449.2 0.0010706622 -0.001897141 4.6174118e-05 
    1177   -1152449.2            0   -1152449.2 -4.5816176e-06 1.2825777e-05 -3.8272029e-07 
Loop time of 3.83216 on 104 procs for 327 steps with 288751 atoms

99.9% CPU use with 104 MPI tasks x 1 OpenMP threads

Minimization stats:
  Stopping criterion = energy tolerance
  Energy initial, next-to-last, final = 
     -1152448.96464197  -1152449.19633313  -1152449.19633313
  Force two-norm initial, final = 0.21692114 0.0001009115
  Force max component initial, final = 0.078364025 1.4339556e-05
  Final line search alpha, max atom move = 1.0000000 1.4339556e-05
  Iterations, force evaluations = 327 654

MPI task timing breakdown:
Section |  min time  |  avg time  |  max time  |%varavg| %total
---------------------------------------------------------------
Pair    | 1.0135     | 2.7413     | 3.5984     |  44.2 | 71.53
Neigh   | 4.096e-05  | 0.011731   | 0.016889   |   4.5 |  0.31
Comm    | 0.065916   | 0.61919    | 1.8519     |  65.2 | 16.16
Output  | 0.00015225 | 0.00016303 | 0.00032307 |   0.0 |  0.00
Modify  | 3.8799e-05 | 0.0053926  | 0.011505   |   3.5 |  0.14
Other   |            | 0.4544     |            |       | 11.86

Nlocal:        2776.45 ave        3935 max           0 min
Histogram: 8 4 4 0 4 12 8 0 27 37
Nghost:        3879.00 ave        5425 max         232 min
Histogram: 8 0 8 0 16 0 8 8 16 40
Neighs:        79214.2 ave      114724 max           0 min
Histogram: 8 4 4 0 9 7 8 8 22 34

Total # of neighbors = 8238278
Ave neighs/atom = 28.530734
Neighbor list builds = 4
Dangerous builds = 0
The dot product: 1.1099592010991e-07
Setting atom values ...
  1 settings made for x
  1 settings made for y
  1 settings made for z
Setting up cg style minimization ...
  Unit style    : metal
  Current step  : 1177
Per MPI rank memory allocation (min/avg/max) = 5.441 | 5.816 | 6.074 Mbytes
Step PotEng KinEng TotEng v_fx v_fy v_fz 
    1177   -1152449.2            0   -1152449.2  0.011973657  0.040282957 0.0014816832 
    1407   -1152449.2            0   -1152449.2 -3.1595692e-06 5.4809978e-06 -1.0038281e-06 
Loop time of 2.68577 on 104 procs for 230 steps with 288751 atoms

99.9% CPU use with 104 MPI tasks x 1 OpenMP threads

Minimization stats:
  Stopping criterion = energy tolerance
  Energy initial, next-to-last, final = 
     -1152449.19609296  -1152449.19861366  -1152449.19861366
  Force two-norm initial, final = 0.19169143 5.8156697e-05
  Force max component initial, final = 0.08636643 7.9589260e-06
  Final line search alpha, max atom move = 1.0000000 7.9589260e-06
  Iterations, force evaluations = 230 460

MPI task timing breakdown:
Section |  min time  |  avg time  |  max time  |%varavg| %total
---------------------------------------------------------------
Pair    | 0.69915    | 1.9348     | 2.5476     |  37.6 | 72.04
Neigh   | 0          | 0          | 0          |   0.0 |  0.00
Comm    | 0.041533   | 0.43483    | 1.2996     |  55.3 | 16.19
Output  | 0          | 0          | 0          |   0.0 |  0.00
Modify  | 2.6296e-05 | 0.0037883  | 0.0081045  |   2.9 |  0.14
Other   |            | 0.3124     |            |       | 11.63

Nlocal:        2776.45 ave        3930 max           0 min
Histogram: 8 4 4 0 4 12 8 0 26 38
Nghost:        3879.05 ave        5427 max         232 min
Histogram: 8 0 8 0 16 0 8 8 16 40
Neighs:        79214.7 ave      114584 max           0 min
Histogram: 8 4 4 0 8 8 8 8 20 36

Total # of neighbors = 8238333
Ave neighs/atom = 28.530925
Neighbor list builds = 0
Dangerous builds = 0
The dot product: -6.78156807340584e-08
Setting atom values ...
  1 settings made for x
  1 settings made for y
  1 settings made for z
Setting up cg style minimization ...
  Unit style    : metal
  Current step  : 1407
Per MPI rank memory allocation (min/avg/max) = 5.441 | 5.816 | 6.074 Mbytes
Step PotEng KinEng TotEng v_fx v_fy v_fz 
    1407   -1152449.2            0   -1152449.2 -0.026621063  0.042654146 -0.0032676426 
    1600   -1152449.2            0   -1152449.2 -9.7476679e-06 1.3095731e-05 -1.1252423e-06 
Loop time of 2.24652 on 104 procs for 193 steps with 288751 atoms

99.9% CPU use with 104 MPI tasks x 1 OpenMP threads

Minimization stats:
  Stopping criterion = energy tolerance
  Energy initial, next-to-last, final = 
     -1152449.19757511  -1152449.19986844  -1152449.19986844
  Force two-norm initial, final = 0.19917183 0.00012827761
  Force max component initial, final = 0.084476632 1.9767250e-05
  Final line search alpha, max atom move = 1.0000000 1.9767250e-05
  Iterations, force evaluations = 193 386

MPI task timing breakdown:
Section |  min time  |  avg time  |  max time  |%varavg| %total
---------------------------------------------------------------
Pair    | 0.58967    | 1.6186     | 2.1186     |  34.3 | 72.05
Neigh   | 0          | 0          | 0          |   0.0 |  0.00
Comm    | 0.03403    | 0.36317    | 1.0948     |  50.4 | 16.17
Output  | 0          | 0          | 0          |   0.0 |  0.00
Modify  | 2.24e-05   | 0.0031885  | 0.006775   |   2.7 |  0.14
Other   |            | 0.2616     |            |       | 11.64

Nlocal:        2776.45 ave        3930 max           0 min
Histogram: 8 4 4 0 4 12 8 0 26 38
Nghost:        3878.97 ave        5427 max         232 min
Histogram: 8 0 8 0 16 0 8 8 16 40
Neighs:        79214.7 ave      114585 max           0 min
Histogram: 8 4 4 0 8 8 8 8 20 36

Total # of neighbors = 8238328
Ave neighs/atom = 28.530907
Neighbor list builds = 0
Dangerous builds = 0
The dot product: 9.7200019864609e-08
Setting atom values ...
  1 settings made for x
  1 settings made for y
  1 settings made for z
Setting up cg style minimization ...
  Unit style    : metal
  Current step  : 1600
Per MPI rank memory allocation (min/avg/max) = 5.441 | 5.816 | 6.074 Mbytes
Step PotEng KinEng TotEng v_fx v_fy v_fz 
    1600   -1152449.2            0   -1152449.2 -0.017900309  0.038953768 -0.004372931 
    2000   -1152449.4            0   -1152449.4 0.00099885367 -0.0035808268 0.00033388042 
    2183   -1152449.4            0   -1152449.4 4.6238287e-06 2.7183211e-06 3.1336622e-07 
Loop time of 6.85985 on 104 procs for 583 steps with 288751 atoms

99.9% CPU use with 104 MPI tasks x 1 OpenMP threads

Minimization stats:
  Stopping criterion = energy tolerance
  Energy initial, next-to-last, final = 
      -1152449.1977057  -1152449.39832001  -1152449.39832001
  Force two-norm initial, final = 0.19621747 0.0001745123
  Force max component initial, final = 0.085866292 3.5680395e-05
  Final line search alpha, max atom move = 1.0000000 3.5680395e-05
  Iterations, force evaluations = 583 1166

MPI task timing breakdown:
Section |  min time  |  avg time  |  max time  |%varavg| %total
---------------------------------------------------------------
Pair    | 1.8061     | 4.9098     | 6.4313     |  59.1 | 71.57
Neigh   | 9.4125e-05 | 0.026541   | 0.038656   |   6.7 |  0.39
Comm    | 0.11116    | 1.1023     | 3.2955     |  87.8 | 16.07
Output  | 0.0001533  | 0.00015943 | 0.00032522 |   0.0 |  0.00
Modify  | 6.7834e-05 | 0.0096009  | 0.02055    |   4.6 |  0.14
Other   |            | 0.8114     |            |       | 11.83

Nlocal:        2776.45 ave        3943 max           0 min
Histogram: 8 4 4 0 4 12 8 0 27 37
Nghost:        3878.68 ave        5426 max         232 min
Histogram: 8 0 8 0 16 0 8 8 16 40
Neighs:        79213.2 ave      114993 max           0 min
Histogram: 8 4 4 0 10 6 8 8 24 32

Total # of neighbors = 8238173
Ave neighs/atom = 28.530370
Neighbor list builds = 9
Dangerous builds = 0
The dot product: 4.07608444501065e-08
Setting atom values ...
  1 settings made for x
  1 settings made for y
  1 settings made for z
Setting up cg style minimization ...
  Unit style    : metal
  Current step  : 2183
Per MPI rank memory allocation (min/avg/max) = 5.441 | 5.816 | 6.074 Mbytes
Step PotEng KinEng TotEng v_fx v_fy v_fz 
    2183   -1152449.4            0   -1152449.4  0.087640285  -0.19640007   0.12974757 
    2425   -1152449.4            0   -1152449.4 5.4969357e-06 -1.0915811e-05 7.4072045e-06 
Loop time of 2.82852 on 104 procs for 242 steps with 288751 atoms

99.9% CPU use with 104 MPI tasks x 1 OpenMP threads

Minimization stats:
  Stopping criterion = energy tolerance
  Energy initial, next-to-last, final = 
     -1152449.40708542  -1152449.41710548  -1152449.41710548
  Force two-norm initial, final = 0.31717979 4.7633797e-05
  Force max component initial, final = 0.19640007 1.0915811e-05
  Final line search alpha, max atom move = 1.0000000 1.0915811e-05
  Iterations, force evaluations = 242 484

MPI task timing breakdown:
Section |  min time  |  avg time  |  max time  |%varavg| %total
---------------------------------------------------------------
Pair    | 0.73583    | 2.028      | 2.659      |  38.2 | 71.70
Neigh   | 1.0065e-05 | 0.0028747  | 0.004229   |   2.3 |  0.10
Comm    | 0.045286   | 0.45812    | 1.3751     |  56.6 | 16.20
Output  | 0          | 0          | 0          |   0.0 |  0.00
Modify  | 2.8222e-05 | 0.0039906  | 0.0085457  |   3.0 |  0.14
Other   |            | 0.3356     |            |       | 11.86

Nlocal:        2776.45 ave        3943 max           0 min
Histogram: 8 4 4 0 4 12 8 0 26 38
Nghost:        3878.64 ave        5429 max         232 min
Histogram: 8 0 8 0 16 0 8 8 16 40
Neighs:        79213.4 ave      114967 max           0 min
Histogram: 8 4 4 0 10 6 8 8 24 32

Total # of neighbors = 8238194
Ave neighs/atom = 28.530443
Neighbor list builds = 1
Dangerous builds = 0
The dot product: 9.25772731331236e-07
Setting atom values ...
  1 settings made for x
  1 settings made for y
  1 settings made for z
Setting up cg style minimization ...
  Unit style    : metal
  Current step  : 2425
Per MPI rank memory allocation (min/avg/max) = 5.441 | 5.816 | 6.074 Mbytes
Step PotEng KinEng TotEng v_fx v_fy v_fz 
    2425   -1152449.4            0   -1152449.4 -0.072440693   0.15872868 -0.037697678 
    2626   -1152449.4            0   -1152449.4 1.1749899e-05 -2.8085274e-05 6.5300324e-06 
Loop time of 2.36174 on 104 procs for 201 steps with 288751 atoms

99.9% CPU use with 104 MPI tasks x 1 OpenMP threads

Minimization stats:
  Stopping criterion = energy tolerance
  Energy initial, next-to-last, final = 
     -1152449.42281818  -1152449.42832461  -1152449.42832461
  Force two-norm initial, final = 0.2706941 0.00012751767
  Force max component initial, final = 0.15872868 2.9602031e-05
  Final line search alpha, max atom move = 1.0000000 2.9602031e-05
  Iterations, force evaluations = 201 402

MPI task timing breakdown:
Section |  min time  |  avg time  |  max time  |%varavg| %total
---------------------------------------------------------------
Pair    | 0.60974    | 1.6968     | 2.2256     |  35.1 | 71.84
Neigh   | 0          | 0          | 0          |   0.0 |  0.00
Comm    | 0.039252   | 0.38112    | 1.1449     |  51.9 | 16.14
Output  | 0          | 0          | 0          |   0.0 |  0.00
Modify  | 2.3328e-05 | 0.0033199  | 0.0071053  |   2.7 |  0.14
Other   |            | 0.2805     |            |       | 11.88

Nlocal:        2776.45 ave        3942 max           0 min
Histogram: 8 4 4 0 4 12 8 0 28 36
Nghost:        3878.53 ave        5429 max         232 min
Histogram: 8 0 8 0 16 0 8 8 16 40
Neighs:        79213.5 ave      114940 max           0 min
Histogram: 8 4 4 0 10 6 8 8 22 34

Total # of neighbors = 8238200
Ave neighs/atom = 28.530464
Neighbor list builds = 0
Dangerous builds = 0
The dot product: -1.28029083561121e-06
Setting atom values ...
  1 settings made for x
  1 settings made for y
  1 settings made for z
Setting up cg style minimization ...
  Unit style    : metal
  Current step  : 2626
Per MPI rank memory allocation (min/avg/max) = 5.441 | 5.816 | 6.074 Mbytes
Step PotEng KinEng TotEng v_fx v_fy v_fz 
    2626   -1152449.4            0   -1152449.4  0.024163128 -0.029079008  0.015973073 
    2789   -1152449.4            0   -1152449.4 2.9219423e-06 -9.4360883e-06 4.0482596e-06 
Loop time of 1.91127 on 104 procs for 163 steps with 288751 atoms

99.9% CPU use with 104 MPI tasks x 1 OpenMP threads

Minimization stats:
  Stopping criterion = energy tolerance
  Energy initial, next-to-last, final = 
     -1152449.43246291  -1152449.43482155  -1152449.43482155
  Force two-norm initial, final = 0.20245134 0.00015460467
  Force max component initial, final = 0.10439504 1.1114134e-05
  Final line search alpha, max atom move = 1.0000000 1.1114134e-05
  Iterations, force evaluations = 163 326

MPI task timing breakdown:
Section |  min time  |  avg time  |  max time  |%varavg| %total
---------------------------------------------------------------
Pair    | 0.50737    | 1.3732     | 1.7987     |  31.3 | 71.85
Neigh   | 0          | 0          | 0          |   0.0 |  0.00
Comm    | 0.031091   | 0.30957    | 0.92904    |  46.5 | 16.20
Output  | 0          | 0          | 0          |   0.0 |  0.00
Modify  | 1.8824e-05 | 0.0026903  | 0.0057567  |   2.4 |  0.14
Other   |            | 0.2259     |            |       | 11.82

Nlocal:        2776.45 ave        3943 max           0 min
Histogram: 8 4 4 0 4 12 8 0 28 36
Nghost:        3878.51 ave        5428 max         232 min
Histogram: 8 0 8 0 16 0 8 8 16 40
Neighs:        79213.5 ave      114966 max           0 min
Histogram: 8 4 4 0 10 6 8 8 24 32

Total # of neighbors = 8238199
Ave neighs/atom = 28.530461
Neighbor list builds = 0
Dangerous builds = 0
The dot product: 1.46342136616686e-07
Setting atom values ...
  1 settings made for x
  1 settings made for y
  1 settings made for z
Setting up cg style minimization ...
  Unit style    : metal
  Current step  : 2789
Per MPI rank memory allocation (min/avg/max) = 5.441 | 5.816 | 6.074 Mbytes
Step PotEng KinEng TotEng v_fx v_fy v_fz 
    2789   -1152449.4            0   -1152449.4 -0.018697079  0.035929851 -0.014425258 
    2951   -1152449.4            0   -1152449.4 -1.0197893e-05 2.9259099e-05 -1.0793586e-05 
Loop time of 1.91551 on 104 procs for 162 steps with 288751 atoms

99.9% CPU use with 104 MPI tasks x 1 OpenMP threads

Minimization stats:
  Stopping criterion = energy tolerance
  Energy initial, next-to-last, final = 
     -1152449.43703397  -1152449.43902054  -1152449.43902054
  Force two-norm initial, final = 0.2046692 0.00027117268
  Force max component initial, final = 0.10188341 4.9219693e-05
  Final line search alpha, max atom move = 1.0000000 4.9219693e-05
  Iterations, force evaluations = 162 324

MPI task timing breakdown:
Section |  min time  |  avg time  |  max time  |%varavg| %total
---------------------------------------------------------------
Pair    | 0.49196    | 1.3647     | 1.8129     |  31.6 | 71.24
Neigh   | 0          | 0          | 0          |   0.0 |  0.00
Comm    | 0.032674   | 0.31224    | 0.92782    |  45.8 | 16.30
Output  | 0          | 0          | 0          |   0.0 |  0.00
Modify  | 1.9837e-05 | 0.0026731  | 0.0057793  |   2.4 |  0.14
Other   |            | 0.2359     |            |       | 12.32

Nlocal:        2776.45 ave        3943 max           0 min
Histogram: 8 4 4 0 4 12 8 0 28 36
Nghost:        3878.55 ave        5428 max         232 min
Histogram: 8 0 8 0 16 0 8 8 16 40
Neighs:        79213.4 ave      114977 max           0 min
Histogram: 8 4 4 0 10 6 8 8 24 32

Total # of neighbors = 8238197
Ave neighs/atom = 28.530454
Neighbor list builds = 0
Dangerous builds = 0
The dot product: 1.4157429703183e-07
Setting atom values ...
  1 settings made for x
  1 settings made for y
  1 settings made for z
Setting up cg style minimization ...
  Unit style    : metal
  Current step  : 2951
Per MPI rank memory allocation (min/avg/max) = 5.441 | 5.816 | 6.074 Mbytes
Step PotEng KinEng TotEng v_fx v_fy v_fz 
    2951   -1152449.4            0   -1152449.4 -0.012940608  0.023825978  -0.01017896 
    3000   -1152449.4            0   -1152449.4 0.00013139107 -0.00024945463 0.00010575687 
    3125   -1152449.4            0   -1152449.4 -2.1095641e-06 4.7352093e-06 -1.9309383e-06 
Loop time of 2.01463 on 104 procs for 174 steps with 288751 atoms

99.9% CPU use with 104 MPI tasks x 1 OpenMP threads

Minimization stats:
  Stopping criterion = energy tolerance
  Energy initial, next-to-last, final = 
     -1152449.43931499  -1152449.44126094  -1152449.44126094
  Force two-norm initial, final = 0.20178631 0.00011444894
  Force max component initial, final = 0.10048336 1.1567230e-05
  Final line search alpha, max atom move = 1.0000000 1.1567230e-05
  Iterations, force evaluations = 174 348

MPI task timing breakdown:
Section |  min time  |  avg time  |  max time  |%varavg| %total
---------------------------------------------------------------
Pair    | 0.52764    | 1.4559     | 1.9075     |  32.5 | 72.27
Neigh   | 0          | 0          | 0          |   0.0 |  0.00
Comm    | 0.035085   | 0.32427    | 0.98219    |  48.3 | 16.10
Output  | 9.5442e-05 | 9.7632e-05 | 0.00017878 |   0.0 |  0.00
Modify  | 2.0175e-05 | 0.0028686  | 0.0061111  |   2.5 |  0.14
Other   |            | 0.2315     |            |       | 11.49

Nlocal:        2776.45 ave        3943 max           0 min
Histogram: 8 4 4 0 4 12 8 0 28 36
Nghost:        3878.78 ave        5428 max         232 min
Histogram: 8 0 8 0 16 0 8 8 16 40
Neighs:        79213.4 ave      114982 max           0 min
Histogram: 8 4 4 0 10 6 8 8 24 32

Total # of neighbors = 8238197
Ave neighs/atom = 28.530454
Neighbor list builds = 0
Dangerous builds = 0
The dot product: 4.59416417373962e-09
Setting atom values ...
  1 settings made for x
  1 settings made for y
  1 settings made for z
Setting up cg style minimization ...
  Unit style    : metal
  Current step  : 3125
Per MPI rank memory allocation (min/avg/max) = 5.441 | 5.816 | 6.074 Mbytes
Step PotEng KinEng TotEng v_fx v_fy v_fz 
    3125   -1152449.4            0   -1152449.4 -0.017907797  0.027106099 -0.012323518 
    3307   -1152449.4            0   -1152449.4 -1.3600609e-06 2.9197643e-06 -1.2132033e-06 
Loop time of 2.13944 on 104 procs for 182 steps with 288751 atoms

99.9% CPU use with 104 MPI tasks x 1 OpenMP threads

Minimization stats:
  Stopping criterion = energy tolerance
  Energy initial, next-to-last, final = 
     -1152449.43954242  -1152449.44150546  -1152449.44150546
  Force two-norm initial, final = 0.20277038 0.0001265861
  Force max component initial, final = 0.098669394 1.7133275e-05
  Final line search alpha, max atom move = 1.0000000 1.7133275e-05
  Iterations, force evaluations = 182 364

MPI task timing breakdown:
Section |  min time  |  avg time  |  max time  |%varavg| %total
---------------------------------------------------------------
Pair    | 0.54907    | 1.5294     | 2.0199     |  33.5 | 71.49
Neigh   | 0          | 0          | 0          |   0.0 |  0.00
Comm    | 0.03219    | 0.3439     | 1.0281     |  49.1 | 16.07
Output  | 0          | 0          | 0          |   0.0 |  0.00
Modify  | 2.0901e-05 | 0.0030135  | 0.0064509  |   2.6 |  0.14
Other   |            | 0.2631     |            |       | 12.30

Nlocal:        2776.45 ave        3943 max           0 min
Histogram: 8 4 4 0 4 12 8 0 28 36
Nghost:        3878.75 ave        5428 max         232 min
Histogram: 8 0 8 0 16 0 8 8 16 40
Neighs:        79213.4 ave      114973 max           0 min
Histogram: 8 4 4 0 10 6 8 8 24 32

Total # of neighbors = 8238197
Ave neighs/atom = 28.530454
Neighbor list builds = 0
Dangerous builds = 0
The dot product: 6.43576505332595e-09
Setting atom values ...
  1 settings made for x
  1 settings made for y
  1 settings made for z
Setting up cg style minimization ...
  Unit style    : metal
  Current step  : 3307
Per MPI rank memory allocation (min/avg/max) = 5.441 | 5.816 | 6.074 Mbytes
Step PotEng KinEng TotEng v_fx v_fy v_fz 
    3307   -1152449.4            0   -1152449.4 -0.018224296  0.029442732 -0.013388324 
    3460   -1152449.4            0   -1152449.4 3.841572e-05 -5.5684005e-05 2.6131369e-05 
Loop time of 1.77504 on 104 procs for 153 steps with 288751 atoms

99.9% CPU use with 104 MPI tasks x 1 OpenMP threads

Minimization stats:
  Stopping criterion = energy tolerance
  Energy initial, next-to-last, final = 
     -1152449.43776842   -1152449.4397303   -1152449.4397303
  Force two-norm initial, final = 0.20300817 0.00024762614
  Force max component initial, final = 0.096814255 6.7139848e-05
  Final line search alpha, max atom move = 1.0000000 6.7139848e-05
  Iterations, force evaluations = 153 306

MPI task timing breakdown:
Section |  min time  |  avg time  |  max time  |%varavg| %total
---------------------------------------------------------------
Pair    | 0.46413    | 1.2803     | 1.6834     |  30.5 | 72.13
Neigh   | 0          | 0          | 0          |   0.0 |  0.00
Comm    | 0.026704   | 0.28707    | 0.86492    |  45.0 | 16.17
Output  | 0          | 0          | 0          |   0.0 |  0.00
Modify  | 1.7808e-05 | 0.0025213  | 0.0053879  |   2.4 |  0.14
Other   |            | 0.2052     |            |       | 11.56

Nlocal:        2776.45 ave        3944 max           0 min
Histogram: 8 4 4 0 4 12 8 0 28 36
Nghost:        3878.69 ave        5428 max         232 min
Histogram: 8 0 8 0 16 0 8 8 16 40
Neighs:        79213.5 ave      114983 max           0 min
Histogram: 8 4 4 0 10 6 8 8 24 32

Total # of neighbors = 8238199
Ave neighs/atom = 28.530461
Neighbor list builds = 0
Dangerous builds = 0
The dot product: -1.79492454742386e-07
Setting atom values ...
  1 settings made for x
  1 settings made for y
  1 settings made for z
Setting up cg style minimization ...
  Unit style    : metal
  Current step  : 3460
Per MPI rank memory allocation (min/avg/max) = 5.441 | 5.816 | 6.074 Mbytes
Step PotEng KinEng TotEng v_fx v_fy v_fz 
    3460   -1152449.4            0   -1152449.4 -0.017592344  0.030717971 -0.013989497 
    3610   -1152449.4            0   -1152449.4 -2.8799398e-05 4.9680363e-05 -2.2698064e-05 
Loop time of 1.77611 on 104 procs for 150 steps with 288751 atoms

99.9% CPU use with 104 MPI tasks x 1 OpenMP threads

Minimization stats:
  Stopping criterion = energy tolerance
  Energy initial, next-to-last, final = 
     -1152449.43399013  -1152449.43594297  -1152449.43594297
  Force two-norm initial, final = 0.20278332 0.00026247835
  Force max component initial, final = 0.097544431 7.1409511e-05
  Final line search alpha, max atom move = 1.0000000 7.1409511e-05
  Iterations, force evaluations = 150 300

MPI task timing breakdown:
Section |  min time  |  avg time  |  max time  |%varavg| %total
---------------------------------------------------------------
Pair    | 0.45426    | 1.2614     | 1.6578     |  30.3 | 71.02
Neigh   | 0          | 0          | 0          |   0.0 |  0.00
Comm    | 0.026241   | 0.28344    | 0.85195    |  44.9 | 15.96
Output  | 0          | 0          | 0          |   0.0 |  0.00
Modify  | 1.7121e-05 | 0.0024731  | 0.0052778  |   2.3 |  0.14
Other   |            | 0.2288     |            |       | 12.88

Nlocal:        2776.45 ave        3944 max           0 min
Histogram: 8 4 4 0 4 12 8 0 28 36
Nghost:        3878.68 ave        5427 max         232 min
Histogram: 8 0 8 0 16 0 8 8 16 40
Neighs:        79213.5 ave      114997 max           0 min
Histogram: 8 4 4 0 10 6 8 8 24 32

Total # of neighbors = 8238199
Ave neighs/atom = 28.530461
Neighbor list builds = 0
Dangerous builds = 0
The dot product: 1.68546048699464e-07
Setting atom values ...
  1 settings made for x
  1 settings made for y
  1 settings made for z
Setting up cg style minimization ...
  Unit style    : metal
  Current step  : 3610
Per MPI rank memory allocation (min/avg/max) = 5.441 | 5.816 | 6.074 Mbytes
Step PotEng KinEng TotEng v_fx v_fy v_fz 
    3610   -1152449.4            0   -1152449.4 -0.016764307  0.031365998 -0.014361239 
    3792   -1152449.4            0   -1152449.4 1.0342788e-05 -1.5361187e-05 7.4888079e-06 
Loop time of 2.11322 on 104 procs for 182 steps with 288751 atoms

99.9% CPU use with 104 MPI tasks x 1 OpenMP threads

Minimization stats:
  Stopping criterion = energy tolerance
  Energy initial, next-to-last, final = 
      -1152449.4282003  -1152449.43014418  -1152449.43014418
  Force two-norm initial, final = 0.20241458 0.00012664321
  Force max component initial, final = 0.09987579 2.5789671e-05
  Final line search alpha, max atom move = 1.0000000 2.5789671e-05
  Iterations, force evaluations = 182 364

MPI task timing breakdown:
Section |  min time  |  avg time  |  max time  |%varavg| %total
---------------------------------------------------------------
Pair    | 0.55026    | 1.5212     | 2.0031     |  33.3 | 71.99
Neigh   | 0          | 0          | 0          |   0.0 |  0.00
Comm    | 0.032552   | 0.34131    | 1.023      |  49.0 | 16.15
Output  | 0          | 0          | 0          |   0.0 |  0.00
Modify  | 2.0978e-05 | 0.0030016  | 0.006404   |   2.6 |  0.14
Other   |            | 0.2477     |            |       | 11.72

Nlocal:        2776.45 ave        3944 max           0 min
Histogram: 8 4 4 0 4 12 8 0 28 36
Nghost:        3878.68 ave        5427 max         232 min
Histogram: 8 0 8 0 16 0 8 8 16 40
Neighs:        79213.5 ave      115005 max           0 min
Histogram: 8 4 4 0 10 6 8 8 24 32

Total # of neighbors = 8238200
Ave neighs/atom = 28.530464
Neighbor list builds = 0
Dangerous builds = 0
The dot product: -5.58341113946429e-08
Setting atom values ...
  1 settings made for x
  1 settings made for y
  1 settings made for z
Setting up cg style minimization ...
  Unit style    : metal
  Current step  : 3792
Per MPI rank memory allocation (min/avg/max) = 5.441 | 5.816 | 6.074 Mbytes
Step PotEng KinEng TotEng v_fx v_fy v_fz 
    3792   -1152449.4            0   -1152449.4 -0.015392225  0.031742682 -0.014517291 
    3963   -1152449.4            0   -1152449.4 3.6035091e-06 -7.5403457e-06 3.4370288e-06 
Loop time of 1.99973 on 104 procs for 171 steps with 288751 atoms

99.9% CPU use with 104 MPI tasks x 1 OpenMP threads

Minimization stats:
  Stopping criterion = energy tolerance
  Energy initial, next-to-last, final = 
     -1152449.42040658  -1152449.42233923  -1152449.42233923
  Force two-norm initial, final = 0.2018839 0.00016526505
  Force max component initial, final = 0.10232026 8.7602852e-06
  Final line search alpha, max atom move = 1.0000000 8.7602852e-06
  Iterations, force evaluations = 171 342

MPI task timing breakdown:
Section |  min time  |  avg time  |  max time  |%varavg| %total
---------------------------------------------------------------
Pair    | 0.51761    | 1.4411     | 1.8966     |  32.5 | 72.07
Neigh   | 0          | 0          | 0          |   0.0 |  0.00
Comm    | 0.030795   | 0.32247    | 0.97106    |  48.0 | 16.13
Output  | 0          | 0          | 0          |   0.0 |  0.00
Modify  | 1.9661e-05 | 0.0028208  | 0.0060395  |   2.5 |  0.14
Other   |            | 0.2333     |            |       | 11.67

Nlocal:        2776.45 ave        3945 max           0 min
Histogram: 8 4 4 0 4 12 8 0 28 36
Nghost:        3878.76 ave        5428 max         232 min
Histogram: 8 0 8 0 16 0 8 8 16 40
Neighs:        79213.5 ave      115044 max           0 min
Histogram: 8 4 4 0 10 6 8 8 24 32

Total # of neighbors = 8238205
Ave neighs/atom = 28.530481
Neighbor list builds = 0
Dangerous builds = 0
The dot product: -2.60658853579397e-08
Setting atom values ...
  1 settings made for x
  1 settings made for y
  1 settings made for z
Setting up cg style minimization ...
  Unit style    : metal
  Current step  : 3963
Per MPI rank memory allocation (min/avg/max) = 5.441 | 5.816 | 6.074 Mbytes
Step PotEng KinEng TotEng v_fx v_fy v_fz 
    3963   -1152449.4            0   -1152449.4 -0.013596438  0.032143919 -0.014575403 
    4000   -1152449.4            0   -1152449.4 0.00056383055 -0.00087171912 0.00043843305 
    4163   -1152449.4            0   -1152449.4 -6.4577359e-07 1.2900802e-06 -6.0711675e-07 
Loop time of 2.32183 on 104 procs for 200 steps with 288751 atoms

99.9% CPU use with 104 MPI tasks x 1 OpenMP threads

Minimization stats:
  Stopping criterion = energy tolerance
  Energy initial, next-to-last, final = 
     -1152449.41061761  -1152449.41253887  -1152449.41253887
  Force two-norm initial, final = 0.20136379 7.8479739e-05
  Force max component initial, final = 0.10471889 6.7608777e-06
  Final line search alpha, max atom move = 1.0000000 6.7608777e-06
  Iterations, force evaluations = 200 400

MPI task timing breakdown:
Section |  min time  |  avg time  |  max time  |%varavg| %total
---------------------------------------------------------------
Pair    | 0.6069     | 1.676      | 2.195      |  35.0 | 72.18
Neigh   | 0          | 0          | 0          |   0.0 |  0.00
Comm    | 0.035995   | 0.37441    | 1.1308     |  51.7 | 16.13
Output  | 9.3521e-05 | 0.00010166 | 0.00018173 |   0.0 |  0.00
Modify  | 2.3121e-05 | 0.0032949  | 0.0070663  |   2.7 |  0.14
Other   |            | 0.268      |            |       | 11.54

Nlocal:        2776.45 ave        3945 max           0 min
Histogram: 8 4 4 0 4 12 8 0 28 36
Nghost:        3878.76 ave        5428 max         232 min
Histogram: 8 0 8 0 16 0 8 8 16 40
Neighs:        79213.6 ave      115043 max           0 min
Histogram: 8 4 4 0 10 6 8 8 24 32

Total # of neighbors = 8238210
Ave neighs/atom = 28.530499
Neighbor list builds = 0
Dangerous builds = 0
The dot product: 4.51569269546631e-09
Setting atom values ...
  1 settings made for x
  1 settings made for y
  1 settings made for z
Setting up cg style minimization ...
  Unit style    : metal
  Current step  : 4163
Per MPI rank memory allocation (min/avg/max) = 5.441 | 5.816 | 6.074 Mbytes
Step PotEng KinEng TotEng v_fx v_fy v_fz 
    4163   -1152449.4            0   -1152449.4 -0.011298192  0.032477563  -0.01447652 
    4357   -1152449.4            0   -1152449.4 -3.452588e-06 4.6397764e-06 -2.4810832e-06 
Loop time of 2.28923 on 104 procs for 194 steps with 288751 atoms

99.9% CPU use with 104 MPI tasks x 1 OpenMP threads

Minimization stats:
  Stopping criterion = energy tolerance
  Energy initial, next-to-last, final = 
      -1152449.3988494  -1152449.40075796  -1152449.40075796
  Force two-norm initial, final = 0.20084712 9.9782434e-05
  Force max component initial, final = 0.10705346 5.1348447e-06
  Final line search alpha, max atom move = 1.0000000 5.1348447e-06
  Iterations, force evaluations = 194 388

MPI task timing breakdown:
Section |  min time  |  avg time  |  max time  |%varavg| %total
---------------------------------------------------------------
Pair    | 0.58913    | 1.635      | 2.1635     |  34.5 | 71.42
Neigh   | 0          | 0          | 0          |   0.0 |  0.00
Comm    | 0.037152   | 0.36954    | 1.1071     |  50.5 | 16.14
Output  | 0          | 0          | 0          |   0.0 |  0.00
Modify  | 2.2629e-05 | 0.0032013  | 0.006835   |   2.7 |  0.14
Other   |            | 0.2815     |            |       | 12.30

Nlocal:        2776.45 ave        3945 max           0 min
Histogram: 8 4 4 0 4 12 8 0 28 36
Nghost:        3878.84 ave        5428 max         232 min
Histogram: 8 0 8 0 16 0 8 8 16 40
Neighs:        79213.6 ave      115034 max           0 min
Histogram: 8 4 4 0 10 6 8 8 24 32

Total # of neighbors = 8238214
Ave neighs/atom = 28.530512
Neighbor list builds = 0
Dangerous builds = 0
The dot product: 1.75554630587764e-08
Setting atom values ...
  1 settings made for x
  1 settings made for y
  1 settings made for z
Setting up cg style minimization ...
  Unit style    : metal
  Current step  : 4357
Per MPI rank memory allocation (min/avg/max) = 5.441 | 5.816 | 6.074 Mbytes
Step PotEng KinEng TotEng v_fx v_fy v_fz 
    4357   -1152449.4            0   -1152449.4 -0.008482431  0.032791818 -0.014231539 
    4582   -1152449.4            0   -1152449.4 3.497657e-07 -3.9879442e-07 2.292027e-07 
Loop time of 2.66585 on 104 procs for 225 steps with 288751 atoms

99.9% CPU use with 104 MPI tasks x 1 OpenMP threads

Minimization stats:
  Stopping criterion = energy tolerance
  Energy initial, next-to-last, final = 
     -1152449.38512097  -1152449.38701781  -1152449.38701781
  Force two-norm initial, final = 0.20038201 1.9833087e-05
  Force max component initial, final = 0.10935931 8.6582407e-07
  Final line search alpha, max atom move = 1.0000000 8.6582407e-07
  Iterations, force evaluations = 225 450

MPI task timing breakdown:
Section |  min time  |  avg time  |  max time  |%varavg| %total
---------------------------------------------------------------
Pair    | 0.68257    | 1.8929     | 2.4968     |  37.3 | 71.00
Neigh   | 0          | 0          | 0          |   0.0 |  0.00
Comm    | 0.053734   | 0.43446    | 1.286      |  53.9 | 16.30
Output  | 0          | 0          | 0          |   0.0 |  0.00
Modify  | 2.6594e-05 | 0.0037135  | 0.0079185  |   2.9 |  0.14
Other   |            | 0.3348     |            |       | 12.56

Nlocal:        2776.45 ave        3945 max           0 min
Histogram: 8 4 4 0 4 12 8 0 28 36
Nghost:        3878.80 ave        5428 max         232 min
Histogram: 8 0 8 0 16 0 8 8 16 40
Neighs:        79213.6 ave      115034 max           0 min
Histogram: 8 4 4 0 10 6 8 8 24 32

Total # of neighbors = 8238211
Ave neighs/atom = 28.530502
Neighbor list builds = 0
Dangerous builds = 0
The dot product: -1.5212631262077e-09
Setting atom values ...
  1 settings made for x
  1 settings made for y
  1 settings made for z
Setting up cg style minimization ...
  Unit style    : metal
  Current step  : 4582
Per MPI rank memory allocation (min/avg/max) = 5.441 | 5.816 | 6.074 Mbytes
Step PotEng KinEng TotEng v_fx v_fy v_fz 
    4582   -1152449.4            0   -1152449.4 -0.0050535649  0.033070308 -0.013810199 
    4767   -1152449.4            0   -1152449.4 1.7462508e-05 -2.9589726e-05 1.5332508e-05 
Loop time of 2.16272 on 104 procs for 185 steps with 288751 atoms

99.9% CPU use with 104 MPI tasks x 1 OpenMP threads

Minimization stats:
  Stopping criterion = energy tolerance
  Energy initial, next-to-last, final = 
     -1152449.36946078  -1152449.37134473  -1152449.37134473
  Force two-norm initial, final = 0.20000706 0.00013449558
  Force max component initial, final = 0.11160677 2.9589726e-05
  Final line search alpha, max atom move = 1.0000000 2.9589726e-05
  Iterations, force evaluations = 185 370

MPI task timing breakdown:
Section |  min time  |  avg time  |  max time  |%varavg| %total
---------------------------------------------------------------
Pair    | 0.56112    | 1.5512     | 2.0513     |  33.6 | 71.72
Neigh   | 0          | 0          | 0          |   0.0 |  0.00
Comm    | 0.033017   | 0.34736    | 1.0391     |  49.5 | 16.06
Output  | 0          | 0          | 0          |   0.0 |  0.00
Modify  | 2.134e-05  | 0.0030488  | 0.0064899  |   2.6 |  0.14
Other   |            | 0.2611     |            |       | 12.07

Nlocal:        2776.45 ave        3945 max           0 min
Histogram: 8 4 4 0 4 12 8 0 28 36
Nghost:        3878.82 ave        5428 max         232 min
Histogram: 8 0 8 0 16 0 8 8 16 40
Neighs:        79213.6 ave      115023 max           0 min
Histogram: 8 4 4 0 10 6 8 8 24 32

Total # of neighbors = 8238211
Ave neighs/atom = 28.530502
Neighbor list builds = 0
Dangerous builds = 0
The dot product: -1.00175361112818e-07
Setting atom values ...
  1 settings made for x
  1 settings made for y
  1 settings made for z
Setting up cg style minimization ...
  Unit style    : metal
  Current step  : 4767
Per MPI rank memory allocation (min/avg/max) = 5.441 | 5.816 | 6.074 Mbytes
Step PotEng KinEng TotEng v_fx v_fy v_fz 
    4767   -1152449.4            0   -1152449.4 -0.0021500978  0.033550134 -0.013569244 
    4944   -1152449.4            0   -1152449.4 9.3374936e-06 -1.7049992e-05 8.8036566e-06 
Loop time of 2.05817 on 104 procs for 177 steps with 288751 atoms

99.9% CPU use with 104 MPI tasks x 1 OpenMP threads

Minimization stats:
  Stopping criterion = energy tolerance
  Energy initial, next-to-last, final = 
     -1152449.35190224  -1152449.35376773  -1152449.35376773
  Force two-norm initial, final = 0.19978618 0.00015067732
  Force max component initial, final = 0.11378481 1.7049992e-05
  Final line search alpha, max atom move = 1.0000000 1.7049992e-05
  Iterations, force evaluations = 177 354

MPI task timing breakdown:
Section |  min time  |  avg time  |  max time  |%varavg| %total
---------------------------------------------------------------
Pair    | 0.53855    | 1.4804     | 1.9453     |  32.8 | 71.93
Neigh   | 0          | 0          | 0          |   0.0 |  0.00
Comm    | 0.03352    | 0.33305    | 1.0033     |  48.2 | 16.18
Output  | 0          | 0          | 0          |   0.0 |  0.00
Modify  | 2.2125e-05 | 0.0029232  | 0.006231   |   2.6 |  0.14
Other   |            | 0.2418     |            |       | 11.75

Nlocal:        2776.45 ave        3945 max           0 min
Histogram: 8 4 4 0 4 12 8 0 28 36
Nghost:        3878.82 ave        5428 max         232 min
Histogram: 8 0 8 0 16 0 8 8 16 40
Neighs:        79213.6 ave      115024 max           0 min
Histogram: 8 4 4 0 10 6 8 8 24 32

Total # of neighbors = 8238213
Ave neighs/atom = 28.530509
Neighbor list builds = 0
Dangerous builds = 0
The dot product: -5.69035683251417e-08
Setting atom values ...
  1 settings made for x
  1 settings made for y
  1 settings made for z
Setting up cg style minimization ...
  Unit style    : metal
  Current step  : 4944
Per MPI rank memory allocation (min/avg/max) = 5.441 | 5.816 | 6.074 Mbytes
Step PotEng KinEng TotEng v_fx v_fy v_fz 
    4944   -1152449.3            0   -1152449.3 0.0011687351  0.034747079   -0.0135171 
    5000   -1152449.3            0   -1152449.3 1.7699857e-05 2.9027548e-07 3.9929409e-06 
    5098   -1152449.3            0   -1152449.3 -1.6766399e-05 2.8187072e-05 -1.5076689e-05 
Loop time of 1.80497 on 104 procs for 154 steps with 288751 atoms

99.9% CPU use with 104 MPI tasks x 1 OpenMP threads

Minimization stats:
  Stopping criterion = energy tolerance
  Energy initial, next-to-last, final = 
       -1152449.332499  -1152449.33433952  -1152449.33433952
  Force two-norm initial, final = 0.19985818 0.00026239525
  Force max component initial, final = 0.11595929 6.6584176e-05
  Final line search alpha, max atom move = 1.0000000 6.6584176e-05
  Iterations, force evaluations = 154 308

MPI task timing breakdown:
Section |  min time  |  avg time  |  max time  |%varavg| %total
---------------------------------------------------------------
Pair    | 0.46783    | 1.2959     | 1.7114     |  30.8 | 71.79
Neigh   | 0          | 0          | 0          |   0.0 |  0.00
Comm    | 0.028272   | 0.29243    | 0.87518    |  45.0 | 16.20
Output  | 9.4088e-05 | 9.8014e-05 | 0.00021069 |   0.0 |  0.01
Modify  | 1.7633e-05 | 0.0025464  | 0.0054303  |   2.4 |  0.14
Other   |            | 0.214      |            |       | 11.86

Nlocal:        2776.45 ave        3946 max           0 min
Histogram: 8 4 4 0 4 12 8 0 28 36
Nghost:        3878.74 ave        5427 max         232 min
Histogram: 8 0 8 0 16 0 8 8 16 40
Neighs:        79213.6 ave      115064 max           0 min
Histogram: 8 4 4 0 10 6 8 8 24 32

Total # of neighbors = 8238215
Ave neighs/atom = 28.530516
Neighbor list builds = 0
Dangerous builds = 0
The dot product: 1.00387592363606e-07
Setting atom values ...
  1 settings made for x
  1 settings made for y
  1 settings made for z
Setting up cg style minimization ...
  Unit style    : metal
  Current step  : 5098
Per MPI rank memory allocation (min/avg/max) = 5.441 | 5.816 | 6.074 Mbytes
Step PotEng KinEng TotEng v_fx v_fy v_fz 
    5098   -1152449.3            0   -1152449.3 0.0066534373  0.036752351 -0.013334995 
    5277   -1152449.3            0   -1152449.3 7.1485635e-06 -1.5710249e-05 8.016463e-06 
Loop time of 2.07587 on 104 procs for 179 steps with 288751 atoms

99.9% CPU use with 104 MPI tasks x 1 OpenMP threads

Minimization stats:
  Stopping criterion = energy tolerance
  Energy initial, next-to-last, final = 
     -1152449.31133224  -1152449.31317138  -1152449.31317138
  Force two-norm initial, final = 0.20061233 0.00011835312
  Force max component initial, final = 0.11810699 1.5710249e-05
  Final line search alpha, max atom move = 1.0000000 1.5710249e-05
  Iterations, force evaluations = 179 358

MPI task timing breakdown:
Section |  min time  |  avg time  |  max time  |%varavg| %total
---------------------------------------------------------------
Pair    | 0.54891    | 1.4993     | 1.9589     |  32.9 | 72.23
Neigh   | 0          | 0          | 0          |   0.0 |  0.00
Comm    | 0.031801   | 0.3356     | 1.0157     |  48.7 | 16.17
Output  | 0          | 0          | 0          |   0.0 |  0.00
Modify  | 2.093e-05  | 0.0029545  | 0.0062829  |   2.6 |  0.14
Other   |            | 0.238      |            |       | 11.47

Nlocal:        2776.45 ave        3946 max           0 min
Histogram: 8 4 4 0 4 12 8 0 28 36
Nghost:        3878.76 ave        5427 max         232 min
Histogram: 8 0 8 0 16 0 8 8 16 40
Neighs:        79213.6 ave      115072 max           0 min
Histogram: 8 4 4 0 10 6 8 8 24 32

Total # of neighbors = 8238217
Ave neighs/atom = 28.530523
Neighbor list builds = 0
Dangerous builds = 0
The dot product: -5.0478124240662e-08
Setting atom values ...
  1 settings made for x
  1 settings made for y
  1 settings made for z
Setting up cg style minimization ...
  Unit style    : metal
  Current step  : 5277
Per MPI rank memory allocation (min/avg/max) = 5.441 | 5.816 | 6.074 Mbytes
Step PotEng KinEng TotEng v_fx v_fy v_fz 
    5277   -1152449.3            0   -1152449.3  0.027136515  0.042032187  -0.01147151 
    5483   -1152449.3            0   -1152449.3 -6.9600402e-06 1.2105271e-05 -6.5810082e-06 
Loop time of 2.42502 on 104 procs for 206 steps with 288751 atoms

99.9% CPU use with 104 MPI tasks x 1 OpenMP threads

Minimization stats:
  Stopping criterion = energy tolerance
  Energy initial, next-to-last, final = 
      -1152449.2886178  -1152449.29497156  -1152449.29497156
  Force two-norm initial, final = 0.20424697 0.00013279185
  Force max component initial, final = 0.12015537 1.4904072e-05
  Final line search alpha, max atom move = 1.0000000 1.4904072e-05
  Iterations, force evaluations = 206 412

MPI task timing breakdown:
Section |  min time  |  avg time  |  max time  |%varavg| %total
---------------------------------------------------------------
Pair    | 0.62911    | 1.7396     | 2.2939     |  35.5 | 71.73
Neigh   | 1.0262e-05 | 0.0029694  | 0.004318   |   2.2 |  0.12
Comm    | 0.036478   | 0.39207    | 1.1724     |  52.4 | 16.17
Output  | 0          | 0          | 0          |   0.0 |  0.00
Modify  | 2.3535e-05 | 0.0033996  | 0.0072807  |   2.8 |  0.14
Other   |            | 0.287      |            |       | 11.84

Nlocal:        2776.45 ave        3946 max           0 min
Histogram: 8 4 4 0 4 12 8 0 28 36
Nghost:        3878.76 ave        5427 max         232 min
Histogram: 8 0 8 0 16 0 8 8 16 40
Neighs:        79213.7 ave      115069 max           0 min
Histogram: 8 4 4 0 10 6 8 8 24 32

Total # of neighbors = 8238221
Ave neighs/atom = 28.530537
Neighbor list builds = 1
Dangerous builds = 0
The dot product: -2.37863633200712e-07
Setting atom values ...
  1 settings made for x
  1 settings made for y
  1 settings made for z
Setting up cg style minimization ...
  Unit style    : metal
  Current step  : 5483
Per MPI rank memory allocation (min/avg/max) = 5.441 | 5.816 | 6.074 Mbytes
Step PotEng KinEng TotEng v_fx v_fy v_fz 
    5483   -1152449.3            0   -1152449.3   0.21016645   0.08091837 -0.029394556 
    5827   -1152449.3            0   -1152449.3 1.7274492e-07 -6.6757541e-07 3.2719101e-07 
Loop time of 4.01903 on 104 procs for 344 steps with 288751 atoms

99.9% CPU use with 104 MPI tasks x 1 OpenMP threads

Minimization stats:
  Stopping criterion = energy tolerance
  Energy initial, next-to-last, final = 
     -1152449.27315174   -1152449.3381814   -1152449.3381814
  Force two-norm initial, final = 0.29638273 3.1731896e-06
  Force max component initial, final = 0.21016645 6.8097541e-07
  Final line search alpha, max atom move = 1.0000000 6.8097541e-07
  Iterations, force evaluations = 344 688

MPI task timing breakdown:
Section |  min time  |  avg time  |  max time  |%varavg| %total
---------------------------------------------------------------
Pair    | 1.0568     | 2.88       | 3.798      |  45.6 | 71.66
Neigh   | 2.0098e-05 | 0.0059365  | 0.0086944  |   3.2 |  0.15
Comm    | 0.061775   | 0.64998    | 1.9343     |  66.9 | 16.17
Output  | 0          | 0          | 0          |   0.0 |  0.00
Modify  | 3.9124e-05 | 0.0056612  | 0.012078   |   3.6 |  0.14
Other   |            | 0.4775     |            |       | 11.88

Nlocal:        2776.45 ave        3946 max           0 min
Histogram: 8 4 4 0 4 12 8 0 28 36
Nghost:        3878.76 ave        5427 max         232 min
Histogram: 8 0 8 0 16 0 8 8 16 40
Neighs:        79213.6 ave      115069 max           0 min
Histogram: 8 4 4 0 10 6 8 8 24 32

Total # of neighbors = 8238212
Ave neighs/atom = 28.530506
Neighbor list builds = 2
Dangerous builds = 0
The dot product: 1.05678450746644e-08
Setting atom values ...
  1 settings made for x
  1 settings made for y
  1 settings made for z
Setting up cg style minimization ...
  Unit style    : metal
  Current step  : 5827
Per MPI rank memory allocation (min/avg/max) = 5.441 | 5.816 | 6.074 Mbytes
Step PotEng KinEng TotEng v_fx v_fy v_fz 
    5827   -1152449.3            0   -1152449.3   0.12211842  0.019186851 -0.064839735 
    6000   -1152449.3            0   -1152449.3 1.8904939e-05 -1.3908681e-05 -3.672283e-07 
    6012   -1152449.3            0   -1152449.3 -1.5181248e-05 1.110606e-05 3.310125e-07 
Loop time of 2.1462 on 104 procs for 185 steps with 288751 atoms

99.9% CPU use with 104 MPI tasks x 1 OpenMP threads

Minimization stats:
  Stopping criterion = energy tolerance
  Energy initial, next-to-last, final = 
     -1152449.33255704  -1152449.33473132  -1152449.33473132
  Force two-norm initial, final = 0.20067803 8.5968738e-05
  Force max component initial, final = 0.12211842 1.5181248e-05
  Final line search alpha, max atom move = 1.0000000 1.5181248e-05
  Iterations, force evaluations = 185 370

MPI task timing breakdown:
Section |  min time  |  avg time  |  max time  |%varavg| %total
---------------------------------------------------------------
Pair    | 0.56549    | 1.5585     | 2.0345     |  33.6 | 72.62
Neigh   | 0          | 0          | 0          |   0.0 |  0.00
Comm    | 0.032933   | 0.3456     | 1.0538     |  50.1 | 16.10
Output  | 9.6475e-05 | 0.00010585 | 0.00027033 |   0.0 |  0.00
Modify  | 2.1229e-05 | 0.0030534  | 0.0065387  |   2.6 |  0.14
Other   |            | 0.2389     |            |       | 11.13

Nlocal:        2776.45 ave        3945 max           0 min
Histogram: 8 4 4 0 4 12 8 0 28 36
Nghost:        3878.68 ave        5427 max         232 min
Histogram: 8 0 8 0 16 0 8 8 16 40
Neighs:        79213.3 ave      115031 max           0 min
Histogram: 8 4 4 0 10 6 8 8 24 32

Total # of neighbors = 8238187
Ave neighs/atom = 28.530419
Neighbor list builds = 0
Dangerous builds = 0
The dot product: -2.93571388850484e-07
Setting atom values ...
  1 settings made for x
  1 settings made for y
  1 settings made for z
Setting up cg style minimization ...
  Unit style    : metal
  Current step  : 6012
Per MPI rank memory allocation (min/avg/max) = 5.441 | 5.816 | 6.074 Mbytes
Step PotEng KinEng TotEng v_fx v_fy v_fz 
    6012   -1152449.3            0   -1152449.3  0.052976643  0.018541713 -0.036493235 
    6186   -1152449.3            0   -1152449.3 -5.655527e-06 2.5615779e-05 -1.2163281e-05 
Loop time of 2.03619 on 104 procs for 174 steps with 288751 atoms

99.9% CPU use with 104 MPI tasks x 1 OpenMP threads

Minimization stats:
  Stopping criterion = energy tolerance
  Energy initial, next-to-last, final = 
     -1152449.32795367  -1152449.32912257  -1152449.32912257
  Force two-norm initial, final = 0.15567775 0.00015627913
  Force max component initial, final = 0.06105642 2.5615779e-05
  Final line search alpha, max atom move = 1.0000000 2.5615779e-05
  Iterations, force evaluations = 174 348

MPI task timing breakdown:
Section |  min time  |  avg time  |  max time  |%varavg| %total
---------------------------------------------------------------
Pair    | 0.52956    | 1.4615     | 1.9266     |  32.7 | 71.78
Neigh   | 0          | 0          | 0          |   0.0 |  0.00
Comm    | 0.034855   | 0.33009    | 0.99647    |  48.0 | 16.21
Output  | 0          | 0          | 0          |   0.0 |  0.00
Modify  | 1.9863e-05 | 0.0028635  | 0.0061051  |   2.5 |  0.14
Other   |            | 0.2418     |            |       | 11.87

Nlocal:        2776.45 ave        3945 max           0 min
Histogram: 8 4 4 0 4 12 8 0 28 36
Nghost:        3878.68 ave        5427 max         232 min
Histogram: 8 0 8 0 16 0 8 8 16 40
Neighs:        79213.3 ave      115032 max           0 min
Histogram: 8 4 4 0 10 6 8 8 24 32

Total # of neighbors = 8238187
Ave neighs/atom = 28.530419
Neighbor list builds = 0
Dangerous builds = 0
The dot product: 1.68465639313602e-08
Setting atom values ...
  1 settings made for x
  1 settings made for y
  1 settings made for z
Setting up cg style minimization ...
  Unit style    : metal
  Current step  : 6186
Per MPI rank memory allocation (min/avg/max) = 5.441 | 5.816 | 6.074 Mbytes
Step PotEng KinEng TotEng v_fx v_fy v_fz 
    6186   -1152449.3            0   -1152449.3  0.046894622  0.018166743  -0.03388144 
    6392   -1152449.3            0   -1152449.3 7.6845324e-06 -5.5054549e-07 -3.4866718e-06 
Loop time of 2.43348 on 104 procs for 206 steps with 288751 atoms

99.9% CPU use with 104 MPI tasks x 1 OpenMP threads

Minimization stats:
  Stopping criterion = energy tolerance
  Energy initial, next-to-last, final = 
     -1152449.32090039  -1152449.32201899  -1152449.32201899
  Force two-norm initial, final = 0.15161728 4.9122704e-05
  Force max component initial, final = 0.059150032 7.9525806e-06
  Final line search alpha, max atom move = 1.0000000 7.9525806e-06
  Iterations, force evaluations = 206 412

MPI task timing breakdown:
Section |  min time  |  avg time  |  max time  |%varavg| %total
---------------------------------------------------------------
Pair    | 0.62628    | 1.7333     | 2.3002     |  35.6 | 71.23
Neigh   | 0          | 0          | 0          |   0.0 |  0.00
Comm    | 0.0376     | 0.39621    | 1.1682     |  51.6 | 16.28
Output  | 0          | 0          | 0          |   0.0 |  0.00
Modify  | 2.4007e-05 | 0.0033891  | 0.0072532  |   2.7 |  0.14
Other   |            | 0.3006     |            |       | 12.35

Nlocal:        2776.45 ave        3945 max           0 min
Histogram: 8 4 4 0 4 12 8 0 28 36
Nghost:        3878.68 ave        5427 max         232 min
Histogram: 8 0 8 0 16 0 8 8 16 40
Neighs:        79213.3 ave      115031 max           0 min
Histogram: 8 4 4 0 10 6 8 8 24 32

Total # of neighbors = 8238188
Ave neighs/atom = 28.530422
Neighbor list builds = 0
Dangerous builds = 0
The dot product: 3.06264059366132e-08
Setting atom values ...
  1 settings made for x
  1 settings made for y
  1 settings made for z
Setting up cg style minimization ...
  Unit style    : metal
  Current step  : 6392
Per MPI rank memory allocation (min/avg/max) = 5.441 | 5.816 | 6.074 Mbytes
Step PotEng KinEng TotEng v_fx v_fy v_fz 
    6392   -1152449.3            0   -1152449.3  0.045360537  0.017878901 -0.033351991 
    6554   -1152449.3            0   -1152449.3 6.7701953e-06 5.7039703e-05 -3.6981967e-05 
Loop time of 1.88134 on 104 procs for 162 steps with 288751 atoms

99.9% CPU use with 104 MPI tasks x 1 OpenMP threads

Minimization stats:
  Stopping criterion = energy tolerance
  Energy initial, next-to-last, final = 
     -1152449.31231271  -1152449.31341062  -1152449.31341062
  Force two-norm initial, final = 0.14989915 0.00024414475
  Force max component initial, final = 0.057195814 5.7039703e-05
  Final line search alpha, max atom move = 1.0000000 5.7039703e-05
  Iterations, force evaluations = 162 324

MPI task timing breakdown:
Section |  min time  |  avg time  |  max time  |%varavg| %total
---------------------------------------------------------------
Pair    | 0.4924     | 1.3591     | 1.7742     |  31.4 | 72.24
Neigh   | 0          | 0          | 0          |   0.0 |  0.00
Comm    | 0.034378   | 0.3048     | 0.93249    |  46.6 | 16.20
Output  | 0          | 0          | 0          |   0.0 |  0.00
Modify  | 1.8667e-05 | 0.0026727  | 0.0056932  |   2.4 |  0.14
Other   |            | 0.2148     |            |       | 11.42

Nlocal:        2776.45 ave        3945 max           0 min
Histogram: 8 4 4 0 4 12 8 0 28 36
Nghost:        3878.72 ave        5427 max         232 min
Histogram: 8 0 8 0 16 0 8 8 16 40
Neighs:        79213.4 ave      115040 max           0 min
Histogram: 8 4 4 0 10 6 8 8 24 32

Total # of neighbors = 8238189
Ave neighs/atom = 28.530426
Neighbor list builds = 0
Dangerous builds = 0
The dot product: 1.23361277159283e-07
Setting atom values ...
  1 settings made for x
  1 settings made for y
  1 settings made for z
Setting up cg style minimization ...
  Unit style    : metal
  Current step  : 6554
Per MPI rank memory allocation (min/avg/max) = 5.441 | 5.816 | 6.074 Mbytes
Step PotEng KinEng TotEng v_fx v_fy v_fz 
    6554   -1152449.3            0   -1152449.3  0.043942242  0.018028969 -0.033089816 
    6768   -1152449.3            0   -1152449.3 -9.2774499e-07  -1.2697e-06 1.2246608e-06 
Loop time of 2.5299 on 104 procs for 214 steps with 288751 atoms

99.9% CPU use with 104 MPI tasks x 1 OpenMP threads

Minimization stats:
  Stopping criterion = energy tolerance
  Energy initial, next-to-last, final = 
     -1152449.30219099  -1152449.30327502  -1152449.30327502
  Force two-norm initial, final = 0.1486245 3.5616096e-05
  Force max component initial, final = 0.055245003 1.7590449e-06
  Final line search alpha, max atom move = 1.0000000 1.7590449e-06
  Iterations, force evaluations = 214 428

MPI task timing breakdown:
Section |  min time  |  avg time  |  max time  |%varavg| %total
---------------------------------------------------------------
Pair    | 0.65478    | 1.8        | 2.3951     |  36.2 | 71.15
Neigh   | 0          | 0          | 0          |   0.0 |  0.00
Comm    | 0.038316   | 0.40611    | 1.2033     |  52.9 | 16.05
Output  | 0          | 0          | 0          |   0.0 |  0.00
Modify  | 2.4571e-05 | 0.0035239  | 0.0075285  |   2.8 |  0.14
Other   |            | 0.3203     |            |       | 12.66

Nlocal:        2776.45 ave        3945 max           0 min
Histogram: 8 4 4 0 4 12 8 0 28 36
Nghost:        3878.72 ave        5427 max         232 min
Histogram: 8 0 8 0 16 0 8 8 16 40
Neighs:        79213.4 ave      115041 max           0 min
Histogram: 8 4 4 0 10 6 8 8 24 32

Total # of neighbors = 8238189
Ave neighs/atom = 28.530426
Neighbor list builds = 0
Dangerous builds = 0
The dot product: -5.62215353730571e-09
Setting atom values ...
  1 settings made for x
  1 settings made for y
  1 settings made for z
Setting up cg style minimization ...
  Unit style    : metal
  Current step  : 6768
Per MPI rank memory allocation (min/avg/max) = 5.441 | 5.816 | 6.074 Mbytes
Step PotEng KinEng TotEng v_fx v_fy v_fz 
    6768   -1152449.3            0   -1152449.3  0.042310308  0.018416873 -0.032818067 
    6961   -1152449.3            0   -1152449.3 2.2924794e-06 -1.5456282e-06 -2.65556e-07 
Loop time of 2.24594 on 104 procs for 193 steps with 288751 atoms

99.9% CPU use with 104 MPI tasks x 1 OpenMP threads

Minimization stats:
  Stopping criterion = energy tolerance
  Energy initial, next-to-last, final = 
     -1152449.29051608  -1152449.29158702  -1152449.29158702
  Force two-norm initial, final = 0.14748596 0.00010411951
  Force max component initial, final = 0.053270124 1.6208684e-05
  Final line search alpha, max atom move = 1.0000000 1.6208684e-05
  Iterations, force evaluations = 193 386

MPI task timing breakdown:
Section |  min time  |  avg time  |  max time  |%varavg| %total
---------------------------------------------------------------
Pair    | 0.59063    | 1.6165     | 2.1245     |  34.1 | 71.97
Neigh   | 0          | 0          | 0          |   0.0 |  0.00
Comm    | 0.036571   | 0.36229    | 1.0841     |  50.2 | 16.13
Output  | 0          | 0          | 0          |   0.0 |  0.00
Modify  | 2.2196e-05 | 0.0031787  | 0.0067828  |   2.7 |  0.14
Other   |            | 0.264      |            |       | 11.75

Nlocal:        2776.45 ave        3946 max           0 min
Histogram: 8 4 4 0 4 12 8 0 28 36
Nghost:        3878.74 ave        5427 max         232 min
Histogram: 8 0 8 0 16 0 8 8 16 40
Neighs:        79213.4 ave      115065 max           0 min
Histogram: 8 4 4 0 10 6 8 8 24 32

Total # of neighbors = 8238190
Ave neighs/atom = 28.530429
Neighbor list builds = 0
Dangerous builds = 0
The dot product: 5.41121993544913e-09
Setting atom values ...
  1 settings made for x
  1 settings made for y
  1 settings made for z
Setting up cg style minimization ...
  Unit style    : metal
  Current step  : 6961
Per MPI rank memory allocation (min/avg/max) = 5.441 | 5.816 | 6.074 Mbytes
Step PotEng KinEng TotEng v_fx v_fy v_fz 
    6961   -1152449.3            0   -1152449.3  0.040580085   0.01927501 -0.032741778 
    7000   -1152449.3            0   -1152449.3 0.00032927675 -0.00039227687 6.2308439e-05 
    7143   -1152449.3            0   -1152449.3 -1.6343452e-05 -3.2040978e-05 2.7699272e-05 
Loop time of 2.15024 on 104 procs for 182 steps with 288751 atoms

99.9% CPU use with 104 MPI tasks x 1 OpenMP threads

Minimization stats:
  Stopping criterion = energy tolerance
  Energy initial, next-to-last, final = 
     -1152449.27726419  -1152449.27832421  -1152449.27832421
  Force two-norm initial, final = 0.14663503 0.00014761214
  Force max component initial, final = 0.051297941 3.8582270e-05
  Final line search alpha, max atom move = 1.0000000 3.8582270e-05
  Iterations, force evaluations = 182 364

MPI task timing breakdown:
Section |  min time  |  avg time  |  max time  |%varavg| %total
---------------------------------------------------------------
Pair    | 0.5586     | 1.5374     | 2.0082     |  33.4 | 71.50
Neigh   | 0          | 0          | 0          |   0.0 |  0.00
Comm    | 0.035025   | 0.34893    | 1.0408     |  48.6 | 16.23
Output  | 0.00010182 | 0.00010933 | 0.000212   |   0.0 |  0.01
Modify  | 2.1073e-05 | 0.0030128  | 0.0064706  |   2.6 |  0.14
Other   |            | 0.2608     |            |       | 12.13

Nlocal:        2776.45 ave        3946 max           0 min
Histogram: 8 4 4 0 4 12 8 0 28 36
Nghost:        3878.84 ave        5428 max         232 min
Histogram: 8 0 8 0 16 0 8 8 16 40
Neighs:        79213.4 ave      115064 max           0 min
Histogram: 8 4 4 0 10 6 8 8 24 32

Total # of neighbors = 8238189
Ave neighs/atom = 28.530426
Neighbor list builds = 0
Dangerous builds = 0
The dot product: -1.16792486331183e-07
Setting atom values ...
  1 settings made for x
  1 settings made for y
  1 settings made for z
Setting up cg style minimization ...
  Unit style    : metal
  Current step  : 7143
Per MPI rank memory allocation (min/avg/max) = 5.441 | 5.816 | 6.074 Mbytes
Step PotEng KinEng TotEng v_fx v_fy v_fz 
    7143   -1152449.3            0   -1152449.3  0.038836576  0.020514802 -0.032859095 
    7309   -1152449.3            0   -1152449.3 -3.7565242e-05 5.9282474e-06 1.6296072e-05 
Loop time of 1.92618 on 104 procs for 166 steps with 288751 atoms

99.9% CPU use with 104 MPI tasks x 1 OpenMP threads

Minimization stats:
  Stopping criterion = energy tolerance
  Energy initial, next-to-last, final = 
     -1152449.26242046  -1152449.26346978  -1152449.26346978
  Force two-norm initial, final = 0.14599055 0.00024505383
  Force max component initial, final = 0.049294318 3.7565242e-05
  Final line search alpha, max atom move = 1.0000000 3.7565242e-05
  Iterations, force evaluations = 166 332

MPI task timing breakdown:
Section |  min time  |  avg time  |  max time  |%varavg| %total
---------------------------------------------------------------
Pair    | 0.50848    | 1.3912     | 1.8255     |  31.7 | 72.23
Neigh   | 0          | 0          | 0          |   0.0 |  0.00
Comm    | 0.029201   | 0.31213    | 0.93367    |  46.9 | 16.20
Output  | 0          | 0          | 0          |   0.0 |  0.00
Modify  | 1.9218e-05 | 0.0027366  | 0.0058553  |   2.5 |  0.14
Other   |            | 0.2201     |            |       | 11.43

Nlocal:        2776.45 ave        3946 max           0 min
Histogram: 8 4 4 0 4 12 8 0 28 36
Nghost:        3878.86 ave        5428 max         232 min
Histogram: 8 0 8 0 16 0 8 8 16 40
Neighs:        79213.4 ave      115065 max           0 min
Histogram: 8 4 4 0 10 6 8 8 24 32

Total # of neighbors = 8238189
Ave neighs/atom = 28.530426
Neighbor list builds = 0
Dangerous builds = 0
The dot product: -1.11923912255463e-07
Setting atom values ...
  1 settings made for x
  1 settings made for y
  1 settings made for z
Setting up cg style minimization ...
  Unit style    : metal
  Current step  : 7309
Per MPI rank memory allocation (min/avg/max) = 5.441 | 5.816 | 6.074 Mbytes
Step PotEng KinEng TotEng v_fx v_fy v_fz 
    7309   -1152449.2            0   -1152449.2  0.037296306  0.022186819 -0.033325296 
    7491   -1152449.2            0   -1152449.2 2.6107373e-05 -2.2090031e-05 -5.9384443e-07 
Loop time of 2.15062 on 104 procs for 182 steps with 288751 atoms

99.9% CPU use with 104 MPI tasks x 1 OpenMP threads

Minimization stats:
  Stopping criterion = energy tolerance
  Energy initial, next-to-last, final = 
     -1152449.24597424  -1152449.24701074  -1152449.24701074
  Force two-norm initial, final = 0.14566569 0.00015058326
  Force max component initial, final = 0.048842798 2.7763717e-05
  Final line search alpha, max atom move = 1.0000000 2.7763717e-05
  Iterations, force evaluations = 182 364

MPI task timing breakdown:
Section |  min time  |  avg time  |  max time  |%varavg| %total
---------------------------------------------------------------
Pair    | 0.55924    | 1.5376     | 2.0274     |  33.4 | 71.49
Neigh   | 0          | 0          | 0          |   0.0 |  0.00
Comm    | 0.032616   | 0.34622    | 1.0384     |  48.9 | 16.10
Output  | 0          | 0          | 0          |   0.0 |  0.00
Modify  | 2.0899e-05 | 0.0030082  | 0.0064326  |   2.6 |  0.14
Other   |            | 0.2638     |            |       | 12.27

Nlocal:        2776.45 ave        3946 max           0 min
Histogram: 8 4 4 0 4 12 8 0 28 36
Nghost:        3878.88 ave        5428 max         232 min
Histogram: 8 0 8 0 16 0 8 8 16 40
Neighs:        79213.3 ave      115066 max           0 min
Histogram: 8 4 4 0 10 6 8 8 24 32

Total # of neighbors = 8238188
Ave neighs/atom = 28.530422
Neighbor list builds = 0
Dangerous builds = 0
The dot product: 3.65247328618917e-08
Setting atom values ...
  1 settings made for x
  1 settings made for y
  1 settings made for z
Setting up cg style minimization ...
  Unit style    : metal
  Current step  : 7491
Per MPI rank memory allocation (min/avg/max) = 5.441 | 5.816 | 6.074 Mbytes
Step PotEng KinEng TotEng v_fx v_fy v_fz 
    7491   -1152449.2            0   -1152449.2  0.036281409  0.024345116 -0.034359924 
    7719   -1152449.2            0   -1152449.2 4.9809131e-06 7.1840289e-07 -3.1224585e-06 
Loop time of 2.6391 on 104 procs for 228 steps with 288751 atoms

99.9% CPU use with 104 MPI tasks x 1 OpenMP threads

Minimization stats:
  Stopping criterion = energy tolerance
  Energy initial, next-to-last, final = 
     -1152449.22791985  -1152449.22894182  -1152449.22894182
  Force two-norm initial, final = 0.14575865 2.5324115e-05
  Force max component initial, final = 0.049181596 4.9809131e-06
  Final line search alpha, max atom move = 1.0000000 4.9809131e-06
  Iterations, force evaluations = 228 456

MPI task timing breakdown:
Section |  min time  |  avg time  |  max time  |%varavg| %total
---------------------------------------------------------------
Pair    | 0.69629    | 1.911      | 2.4954     |  37.3 | 72.41
Neigh   | 0          | 0          | 0          |   0.0 |  0.00
Comm    | 0.046283   | 0.42841    | 1.2963     |  55.1 | 16.23
Output  | 0          | 0          | 0          |   0.0 |  0.00
Modify  | 2.6103e-05 | 0.0037539  | 0.0080335  |   2.9 |  0.14
Other   |            | 0.2959     |            |       | 11.21

Nlocal:        2776.45 ave        3946 max           0 min
Histogram: 8 4 4 0 4 12 8 0 28 36
Nghost:        3878.86 ave        5428 max         232 min
Histogram: 8 0 8 0 16 0 8 8 16 40
Neighs:        79213.4 ave      115061 max           0 min
Histogram: 8 4 4 0 10 6 8 8 24 32

Total # of neighbors = 8238189
Ave neighs/atom = 28.530426
Neighbor list builds = 0
Dangerous builds = 0
The dot product: 1.81322775566205e-08
Setting atom values ...
  1 settings made for x
  1 settings made for y
  1 settings made for z
Setting up cg style minimization ...
  Unit style    : metal
  Current step  : 7719
Per MPI rank memory allocation (min/avg/max) = 5.441 | 5.816 | 6.074 Mbytes
Step PotEng KinEng TotEng v_fx v_fy v_fz 
    7719   -1152449.2            0   -1152449.2  0.035929573   0.02732436 -0.036269623 
    7903   -1152449.2            0   -1152449.2 -3.1105246e-05 3.4862194e-05 -4.3865898e-06 
Loop time of 2.15338 on 104 procs for 184 steps with 288751 atoms

99.9% CPU use with 104 MPI tasks x 1 OpenMP threads

Minimization stats:
  Stopping criterion = energy tolerance
  Energy initial, next-to-last, final = 
     -1152449.20827108  -1152449.20927802  -1152449.20927802
  Force two-norm initial, final = 0.14641211 0.00016203949
  Force max component initial, final = 0.051197507 4.0487445e-05
  Final line search alpha, max atom move = 1.0000000 4.0487445e-05
  Iterations, force evaluations = 184 368

MPI task timing breakdown:
Section |  min time  |  avg time  |  max time  |%varavg| %total
---------------------------------------------------------------
Pair    | 0.55954    | 1.5494     | 2.0399     |  33.6 | 71.95
Neigh   | 0          | 0          | 0          |   0.0 |  0.00
Comm    | 0.032599   | 0.34563    | 1.0367     |  49.8 | 16.05
Output  | 0          | 0          | 0          |   0.0 |  0.00
Modify  | 2.1255e-05 | 0.0030434  | 0.0065532  |   2.6 |  0.14
Other   |            | 0.2553     |            |       | 11.85

Nlocal:        2776.45 ave        3946 max           0 min
Histogram: 8 4 4 0 4 12 8 0 27 37
Nghost:        3878.80 ave        5428 max         232 min
Histogram: 8 0 8 0 16 0 8 8 16 40
Neighs:        79213.4 ave      115066 max           0 min
Histogram: 8 4 4 0 10 6 8 8 24 32

Total # of neighbors = 8238190
Ave neighs/atom = 28.530429
Neighbor list builds = 0
Dangerous builds = 0
The dot product: -9.42664097216802e-09
Setting atom values ...
  1 settings made for x
  1 settings made for y
  1 settings made for z
Setting up cg style minimization ...
  Unit style    : metal
  Current step  : 7903
Per MPI rank memory allocation (min/avg/max) = 5.441 | 5.816 | 6.074 Mbytes
Step PotEng KinEng TotEng v_fx v_fy v_fz 
    7903   -1152449.2            0   -1152449.2  0.036771473  0.031331788 -0.039519041 
    8000   -1152449.2            0   -1152449.2 6.7992301e-05 1.2441677e-05 -4.5049307e-05 
    8077   -1152449.2            0   -1152449.2 1.0115143e-05 -6.8503763e-05 3.6636685e-05 
Loop time of 2.03062 on 104 procs for 174 steps with 288751 atoms

99.9% CPU use with 104 MPI tasks x 1 OpenMP threads

Minimization stats:
  Stopping criterion = energy tolerance
  Energy initial, next-to-last, final = 
     -1152449.18707441  -1152449.18807153  -1152449.18807153
  Force two-norm initial, final = 0.14807833 0.00023124162
  Force max component initial, final = 0.054421793 8.5323212e-05
  Final line search alpha, max atom move = 1.0000000 8.5323212e-05
  Iterations, force evaluations = 174 348

MPI task timing breakdown:
Section |  min time  |  avg time  |  max time  |%varavg| %total
---------------------------------------------------------------
Pair    | 0.53009    | 1.4603     | 1.9214     |  32.6 | 71.91
Neigh   | 0          | 0          | 0          |   0.0 |  0.00
Comm    | 0.030176   | 0.32866    | 0.9883     |  48.0 | 16.19
Output  | 0.00010249 | 0.00010989 | 0.00023961 |   0.0 |  0.01
Modify  | 2.1709e-05 | 0.0028687  | 0.0061362  |   2.5 |  0.14
Other   |            | 0.2387     |            |       | 11.76

Nlocal:        2776.45 ave        3946 max           0 min
Histogram: 8 4 4 0 4 12 8 0 27 37
Nghost:        3878.78 ave        5428 max         232 min
Histogram: 8 0 8 0 16 0 8 8 16 40
Neighs:        79213.4 ave      115079 max           0 min
Histogram: 8 4 4 0 10 6 8 8 24 32

Total # of neighbors = 8238194
Ave neighs/atom = 28.530443
Neighbor list builds = 0
Dangerous builds = 0
The dot product: -2.19322716949771e-07
Setting atom values ...
  1 settings made for x
  1 settings made for y
  1 settings made for z
Setting up cg style minimization ...
  Unit style    : metal
  Current step  : 8077
Per MPI rank memory allocation (min/avg/max) = 5.441 | 5.816 | 6.074 Mbytes
Step PotEng KinEng TotEng v_fx v_fy v_fz 
    8077   -1152449.2            0   -1152449.2  0.039752562  0.036711316 -0.044937656 
    8259   -1152449.2            0   -1152449.2 1.4097751e-05 -2.7287689e-05 9.1249118e-06 
Loop time of 2.14536 on 104 procs for 182 steps with 288751 atoms

99.9% CPU use with 104 MPI tasks x 1 OpenMP threads

Minimization stats:
  Stopping criterion = energy tolerance
  Energy initial, next-to-last, final = 
     -1152449.16444499  -1152449.16546922  -1152449.16546922
  Force two-norm initial, final = 0.15169851 0.00015054121
  Force max component initial, final = 0.057612777 4.8033080e-05
  Final line search alpha, max atom move = 1.0000000 4.8033080e-05
  Iterations, force evaluations = 182 364

MPI task timing breakdown:
Section |  min time  |  avg time  |  max time  |%varavg| %total
---------------------------------------------------------------
Pair    | 0.55433    | 1.5363     | 2.0201     |  33.5 | 71.61
Neigh   | 0          | 0          | 0          |   0.0 |  0.00
Comm    | 0.033986   | 0.34846    | 1.0395     |  49.1 | 16.24
Output  | 0          | 0          | 0          |   0.0 |  0.00
Modify  | 2.2804e-05 | 0.0030013  | 0.0064476  |   2.6 |  0.14
Other   |            | 0.2576     |            |       | 12.01

Nlocal:        2776.45 ave        3946 max           0 min
Histogram: 8 4 4 0 4 12 8 0 26 38
Nghost:        3878.76 ave        5427 max         232 min
Histogram: 8 0 8 0 16 0 8 8 16 40
Neighs:        79213.4 ave      115072 max           0 min
Histogram: 8 4 4 0 10 6 8 8 24 32

Total # of neighbors = 8238193
Ave neighs/atom = 28.530440
Neighbor list builds = 0
Dangerous builds = 0
The dot product: -7.51796893038342e-08
Setting atom values ...
  1 settings made for x
  1 settings made for y
  1 settings made for z
Setting up cg style minimization ...
  Unit style    : metal
  Current step  : 8259
Per MPI rank memory allocation (min/avg/max) = 5.441 | 5.816 | 6.074 Mbytes
Step PotEng KinEng TotEng v_fx v_fy v_fz 
    8259   -1152449.1            0   -1152449.1  0.047092529  0.047516555 -0.056619532 
[...]
Histogram: 8 0 8 0 16 0 8 8 16 40
Neighs:        79213.5 ave      114547 max           0 min
Histogram: 8 4 4 0 8 8 8 8 20 36

Total # of neighbors = 8238208
Ave neighs/atom = 28.530492
Neighbor list builds = 0
Dangerous builds = 0
The dot product: -8.87539803194392e-08
Setting atom values ...
  1 settings made for x
  1 settings made for y
  1 settings made for z
Setting up cg style minimization ...
  Unit style    : metal
  Current step  : 27139
Per MPI rank memory allocation (min/avg/max) = 5.441 | 5.816 | 6.074 Mbytes
Step PotEng KinEng TotEng v_fx v_fy v_fz 
   27139   -1152448.9            0   -1152448.9  0.003146902 -0.019011299  0.023816431 
   27344   -1152448.9            0   -1152448.9 -2.9070574e-07 6.2885694e-06 -8.5069991e-06 
Loop time of 2.39073 on 104 procs for 205 steps with 288751 atoms

99.9% CPU use with 104 MPI tasks x 1 OpenMP threads

Minimization stats:
  Stopping criterion = energy tolerance
  Energy initial, next-to-last, final = 
     -1152448.89203076  -1152448.89327665  -1152448.89327665
  Force two-norm initial, final = 0.15509933 8.9702209e-05
  Force max component initial, final = 0.084221352 1.2607166e-05
  Final line search alpha, max atom move = 1.0000000 1.2607166e-05
  Iterations, force evaluations = 205 410

MPI task timing breakdown:
Section |  min time  |  avg time  |  max time  |%varavg| %total
---------------------------------------------------------------
Pair    | 0.62526    | 1.7201     | 2.2664     |  35.4 | 71.95
Neigh   | 0          | 0          | 0          |   0.0 |  0.00
Comm    | 0.036844   | 0.38872    | 1.1673     |  52.5 | 16.26
Output  | 0          | 0          | 0          |   0.0 |  0.00
Modify  | 2.3984e-05 | 0.0033756  | 0.0072359  |   2.7 |  0.14
Other   |            | 0.2785     |            |       | 11.65

Nlocal:        2776.45 ave        3932 max           0 min
Histogram: 8 4 4 0 4 12 8 0 26 38
Nghost:        3879.09 ave        5425 max         232 min
Histogram: 8 0 8 0 16 0 8 8 16 40
Neighs:        79213.6 ave      114547 max           0 min
Histogram: 8 4 4 0 8 8 8 8 20 36

Total # of neighbors = 8238212
Ave neighs/atom = 28.530506
Neighbor list builds = 0
Dangerous builds = 0
The dot product: -9.80011703172117e-10
Setting atom values ...
  1 settings made for x
  1 settings made for y
  1 settings made for z
Setting up cg style minimization ...
  Unit style    : metal
  Current step  : 27344
Per MPI rank memory allocation (min/avg/max) = 5.441 | 5.816 | 6.074 Mbytes
Step PotEng KinEng TotEng v_fx v_fy v_fz 
   27344   -1152448.9            0   -1152448.9 0.0067223387 -0.024418851  0.028366188 
   27539   -1152448.9            0   -1152448.9 -1.1670301e-06 6.2199831e-06 -7.6806312e-06 
Loop time of 2.24445 on 104 procs for 195 steps with 288751 atoms

99.9% CPU use with 104 MPI tasks x 1 OpenMP threads

Minimization stats:
  Stopping criterion = energy tolerance
  Energy initial, next-to-last, final = 
     -1152448.85143848   -1152448.8525916   -1152448.8525916
  Force two-norm initial, final = 0.15386953 8.8176689e-05
  Force max component initial, final = 0.083994228 2.1729493e-05
  Final line search alpha, max atom move = 1.0000000 2.1729493e-05
  Iterations, force evaluations = 195 390

MPI task timing breakdown:
Section |  min time  |  avg time  |  max time  |%varavg| %total
---------------------------------------------------------------
Pair    | 0.59557    | 1.6341     | 2.1265     |  34.4 | 72.80
Neigh   | 0          | 0          | 0          |   0.0 |  0.00
Comm    | 0.037459   | 0.36318    | 1.0962     |  51.5 | 16.18
Output  | 0          | 0          | 0          |   0.0 |  0.00
Modify  | 2.3273e-05 | 0.0032091  | 0.0068843  |   2.7 |  0.14
Other   |            | 0.244      |            |       | 10.87

Nlocal:        2776.45 ave        3931 max           0 min
Histogram: 8 4 4 0 4 12 8 0 26 38
Nghost:        3879.12 ave        5425 max         232 min
Histogram: 8 0 8 0 16 0 8 8 16 40
Neighs:        79213.6 ave      114512 max           0 min
Histogram: 8 4 4 0 8 8 8 8 20 36

Total # of neighbors = 8238212
Ave neighs/atom = 28.530506
Neighbor list builds = 0
Dangerous builds = 0
The dot product: -3.65275372412357e-08
Setting atom values ...
  1 settings made for x
  1 settings made for y
  1 settings made for z
Setting up cg style minimization ...
  Unit style    : metal
  Current step  : 27539
Per MPI rank memory allocation (min/avg/max) = 5.441 | 5.816 | 6.074 Mbytes
Step PotEng KinEng TotEng v_fx v_fy v_fz 
   27539   -1152448.8            0   -1152448.8  0.011749255 -0.032952727  0.036171324 
   27682   -1152448.8            0   -1152448.8 -2.9731539e-05 -1.4860978e-05 4.5472572e-05 
Loop time of 1.66871 on 104 procs for 143 steps with 288751 atoms

99.9% CPU use with 104 MPI tasks x 1 OpenMP threads

Minimization stats:
  Stopping criterion = energy tolerance
  Energy initial, next-to-last, final = 
     -1152448.80995165  -1152448.81161808  -1152448.81161808
  Force two-norm initial, final = 0.15702489 0.00038454372
  Force max component initial, final = 0.083936898 0.00012485725
  Final line search alpha, max atom move = 1.0000000 0.00012485725
  Iterations, force evaluations = 143 286

MPI task timing breakdown:
Section |  min time  |  avg time  |  max time  |%varavg| %total
---------------------------------------------------------------
Pair    | 0.43712    | 1.2008     | 1.5761     |  29.5 | 71.96
Neigh   | 0          | 0          | 0          |   0.0 |  0.00
Comm    | 0.025867   | 0.27092    | 0.82179    |  44.0 | 16.24
Output  | 0          | 0          | 0          |   0.0 |  0.00
Modify  | 1.6832e-05 | 0.0023583  | 0.0050538  |   2.3 |  0.14
Other   |            | 0.1946     |            |       | 11.66

Nlocal:        2776.45 ave        3931 max           0 min
Histogram: 8 4 4 0 4 12 8 0 26 38
Nghost:        3879.12 ave        5425 max         232 min
Histogram: 8 0 8 0 16 0 8 8 16 40
Neighs:        79213.6 ave      114511 max           0 min
Histogram: 8 4 4 0 8 8 8 8 20 36

Total # of neighbors = 8238211
Ave neighs/atom = 28.530502
Neighbor list builds = 0
Dangerous builds = 0
The dot product: 5.40260908099167e-07
Setting atom values ...
  1 settings made for x
  1 settings made for y
  1 settings made for z
Setting up cg style minimization ...
  Unit style    : metal
  Current step  : 27682
Per MPI rank memory allocation (min/avg/max) = 5.441 | 5.816 | 6.074 Mbytes
Step PotEng KinEng TotEng v_fx v_fy v_fz 
   27682   -1152448.8            0   -1152448.8  0.021634142 -0.048787935  0.051057467 
   27947   -1152448.8            0   -1152448.8 5.9958339e-07 1.093833e-08 -5.1466247e-07 
Loop time of 3.06617 on 104 procs for 265 steps with 288751 atoms

99.9% CPU use with 104 MPI tasks x 1 OpenMP threads

Minimization stats:
  Stopping criterion = energy tolerance
  Energy initial, next-to-last, final = 
      -1152448.7704132  -1152448.77284987  -1152448.77284987
  Force two-norm initial, final = 0.16693721 7.4795873e-06
  Force max component initial, final = 0.083907482 2.0478644e-06
  Final line search alpha, max atom move = 1.0000000 2.0478644e-06
  Iterations, force evaluations = 265 530

MPI task timing breakdown:
Section |  min time  |  avg time  |  max time  |%varavg| %total
---------------------------------------------------------------
Pair    | 0.80805    | 2.2224     | 2.9015     |  40.0 | 72.48
Neigh   | 0          | 0          | 0          |   0.0 |  0.00
Comm    | 0.050758   | 0.49565    | 1.4885     |  59.9 | 16.17
Output  | 0          | 0          | 0          |   0.0 |  0.00
Modify  | 3.1668e-05 | 0.0043583  | 0.0093311  |   3.1 |  0.14
Other   |            | 0.3438     |            |       | 11.21

Nlocal:        2776.45 ave        3931 max           0 min
Histogram: 8 4 4 0 4 12 8 0 26 38
Nghost:        3879.12 ave        5425 max         232 min
Histogram: 8 0 8 0 16 0 8 8 16 40
Neighs:        79213.5 ave      114507 max           0 min
Histogram: 8 4 4 0 8 8 8 8 20 36

Total # of neighbors = 8238209
Ave neighs/atom = 28.530495
Neighbor list builds = 0
Dangerous builds = 0
The dot product: -1.32745325709064e-09
Setting atom values ...
  1 settings made for x
  1 settings made for y
  1 settings made for z
Setting up cg style minimization ...
  Unit style    : metal
  Current step  : 27947
Per MPI rank memory allocation (min/avg/max) = 5.441 | 5.816 | 6.074 Mbytes
Step PotEng KinEng TotEng v_fx v_fy v_fz 
   27947   -1152448.7            0   -1152448.7  0.022646545 -0.047639296   0.04976815 
   28000   -1152448.7            0   -1152448.7 -3.3412111e-05 -1.7555086e-05 5.3139811e-05 
   28128   -1152448.7            0   -1152448.7 -1.0373653e-05 2.1117804e-06 5.6025348e-06 
Loop time of 2.10811 on 104 procs for 181 steps with 288751 atoms

99.9% CPU use with 104 MPI tasks x 1 OpenMP threads

Minimization stats:
  Stopping criterion = energy tolerance
  Energy initial, next-to-last, final = 
     -1152448.73304758  -1152448.73462343  -1152448.73462343
  Force two-norm initial, final = 0.16224241 7.7472387e-05
  Force max component initial, final = 0.083520505 1.7564318e-05
  Final line search alpha, max atom move = 1.0000000 1.7564318e-05
  Iterations, force evaluations = 181 362

MPI task timing breakdown:
Section |  min time  |  avg time  |  max time  |%varavg| %total
---------------------------------------------------------------
Pair    | 0.5507     | 1.5185     | 1.9985     |  33.2 | 72.03
Neigh   | 0          | 0          | 0          |   0.0 |  0.00
Comm    | 0.032813   | 0.3428     | 1.0326     |  49.3 | 16.26
Output  | 0.00010084 | 0.00010364 | 0.00021883 |   0.0 |  0.00
Modify  | 2.1652e-05 | 0.002983   | 0.0063934  |   2.6 |  0.14
Other   |            | 0.2437     |            |       | 11.56

Nlocal:        2776.45 ave        3932 max           0 min
Histogram: 8 4 4 0 4 12 8 0 26 38
Nghost:        3879.09 ave        5426 max         232 min
Histogram: 8 0 8 0 16 0 8 8 16 40
Neighs:        79213.6 ave      114542 max           0 min
Histogram: 8 4 4 0 8 8 8 8 20 36

Total # of neighbors = 8238212
Ave neighs/atom = 28.530506
Neighbor list builds = 0
Dangerous builds = 0
The dot product: -6.02368700701445e-08
Setting atom values ...
  1 settings made for x
  1 settings made for y
  1 settings made for z
Setting up cg style minimization ...
  Unit style    : metal
  Current step  : 28128
Per MPI rank memory allocation (min/avg/max) = 5.441 | 5.816 | 6.074 Mbytes
Step PotEng KinEng TotEng v_fx v_fy v_fz 
   28128   -1152448.7            0   -1152448.7  0.021512725 -0.042726851   0.04429816 
   28245   -1152448.7            0   -1152448.7 -1.5240409e-05 1.6969698e-05 -1.2015227e-05 
Loop time of 1.35664 on 104 procs for 117 steps with 288751 atoms

99.9% CPU use with 104 MPI tasks x 1 OpenMP threads

Minimization stats:
  Stopping criterion = energy tolerance
  Energy initial, next-to-last, final = 
     -1152448.69503102  -1152448.69638917  -1152448.69638917
  Force two-norm initial, final = 0.15686896 0.00015279362
  Force max component initial, final = 0.083007829 3.5392628e-05
  Final line search alpha, max atom move = 1.0000000 3.5392628e-05
  Iterations, force evaluations = 117 234

MPI task timing breakdown:
Section |  min time  |  avg time  |  max time  |%varavg| %total
---------------------------------------------------------------
Pair    | 0.35768    | 0.98305    | 1.2857     |  26.6 | 72.46
Neigh   | 0          | 0          | 0          |   0.0 |  0.00
Comm    | 0.021454   | 0.21959    | 0.6653     |  40.1 | 16.19
Output  | 0          | 0          | 0          |   0.0 |  0.00
Modify  | 1.423e-05  | 0.001942   | 0.0046959  |   2.1 |  0.14
Other   |            | 0.1521     |            |       | 11.21

Nlocal:        2776.45 ave        3931 max           0 min
Histogram: 8 4 4 0 4 12 8 0 26 38
Nghost:        3879.14 ave        5426 max         232 min
Histogram: 8 0 8 0 16 0 8 8 16 40
Neighs:        79213.6 ave      114506 max           0 min
Histogram: 8 4 4 0 8 8 8 8 20 36

Total # of neighbors = 8238210
Ave neighs/atom = 28.530499
Neighbor list builds = 0
Dangerous builds = 0
The dot product: -3.83064942009564e-07
Setting atom values ...
  1 settings made for x
  1 settings made for y
  1 settings made for z
Setting up cg style minimization ...
  Unit style    : metal
  Current step  : 28245
Per MPI rank memory allocation (min/avg/max) = 5.441 | 5.816 | 6.074 Mbytes
Step PotEng KinEng TotEng v_fx v_fy v_fz 
   28245   -1152448.7            0   -1152448.7  0.024081713 -0.044515208  0.045344019 
   28567   -1152448.7            0   -1152448.7 2.5800259e-07 3.6497945e-07 -7.5085203e-07 
Loop time of 3.76135 on 104 procs for 322 steps with 288751 atoms

99.9% CPU use with 104 MPI tasks x 1 OpenMP threads

Minimization stats:
  Stopping criterion = energy tolerance
  Energy initial, next-to-last, final = 
      -1152448.6569778  -1152448.67840116  -1152448.67840116
  Force two-norm initial, final = 0.15729993 6.1235490e-06
  Force max component initial, final = 0.082283974 1.6739944e-06
  Final line search alpha, max atom move = 1.0000000 1.6739944e-06
  Iterations, force evaluations = 322 644

MPI task timing breakdown:
Section |  min time  |  avg time  |  max time  |%varavg| %total
---------------------------------------------------------------
Pair    | 0.98679    | 2.7052     | 3.5603     |  44.3 | 71.92
Neigh   | 1.0301e-05 | 0.0029648  | 0.0043086  |   2.2 |  0.08
Comm    | 0.057605   | 0.61202    | 1.8285     |  65.1 | 16.27
Output  | 0          | 0          | 0          |   0.0 |  0.00
Modify  | 3.823e-05  | 0.0052986  | 0.011332   |   3.4 |  0.14
Other   |            | 0.4359     |            |       | 11.59

Nlocal:        2776.45 ave        3933 max           0 min
Histogram: 8 4 4 0 4 12 8 0 26 38
Nghost:        3879.14 ave        5426 max         232 min
Histogram: 8 0 8 0 16 0 8 8 16 40
Neighs:        79213.6 ave      114570 max           0 min
Histogram: 8 4 4 0 8 8 8 8 20 36

Total # of neighbors = 8238214
Ave neighs/atom = 28.530512
Neighbor list builds = 1
Dangerous builds = 0
The dot product: -6.12070078905961e-08
Setting atom values ...
  1 settings made for x
  1 settings made for y
  1 settings made for z
Setting up cg style minimization ...
  Unit style    : metal
  Current step  : 28567
Per MPI rank memory allocation (min/avg/max) = 5.441 | 5.816 | 6.074 Mbytes
Step PotEng KinEng TotEng v_fx v_fy v_fz 
   28567   -1152448.7            0   -1152448.7  0.045381588  -0.06862069  0.070275913 
   28735   -1152448.7            0   -1152448.7 -6.5557957e-07 2.4888001e-07 1.5259179e-07 
Loop time of 1.94461 on 104 procs for 168 steps with 288751 atoms

99.9% CPU use with 104 MPI tasks x 1 OpenMP threads

Minimization stats:
  Stopping criterion = energy tolerance
  Energy initial, next-to-last, final = 
     -1152448.65431533  -1152448.65564904  -1152448.65564904
  Force two-norm initial, final = 0.17245471 1.4550352e-05
  Force max component initial, final = 0.074838708 7.6242376e-07
  Final line search alpha, max atom move = 1.0000000 7.6242376e-07
  Iterations, force evaluations = 168 336

MPI task timing breakdown:
Section |  min time  |  avg time  |  max time  |%varavg| %total
---------------------------------------------------------------
Pair    | 0.51411    | 1.4096     | 1.8378     |  31.9 | 72.49
Neigh   | 0          | 0          | 0          |   0.0 |  0.00
Comm    | 0.035985   | 0.31595    | 0.95763    |  47.7 | 16.25
Output  | 0          | 0          | 0          |   0.0 |  0.00
Modify  | 2.0149e-05 | 0.0027694  | 0.0059087  |   2.5 |  0.14
Other   |            | 0.2163     |            |       | 11.12

Nlocal:        2776.45 ave        3942 max           0 min
Histogram: 8 4 4 0 4 12 8 2 26 36
Nghost:        3879.17 ave        5425 max         232 min
Histogram: 8 0 8 0 16 0 8 8 16 40
Neighs:        79213.7 ave      114846 max           0 min
Histogram: 8 4 4 0 10 6 8 8 22 34

Total # of neighbors = 8238221
Ave neighs/atom = 28.530537
Neighbor list builds = 0
Dangerous builds = 0
The dot product: -7.15500780368944e-09
Setting atom values ...
  1 settings made for x
  1 settings made for y
  1 settings made for z
Setting up cg style minimization ...
  Unit style    : metal
  Current step  : 28735
Per MPI rank memory allocation (min/avg/max) = 5.441 | 5.816 | 6.074 Mbytes
Step PotEng KinEng TotEng v_fx v_fy v_fz 
   28735   -1152448.6            0   -1152448.6  0.026741094 -0.045956761  0.050652463 
   28946   -1152448.6            0   -1152448.6 2.3051185e-07 2.3768891e-06 -3.9546213e-06 
Loop time of 2.50848 on 104 procs for 211 steps with 288751 atoms

99.9% CPU use with 104 MPI tasks x 1 OpenMP threads

Minimization stats:
  Stopping criterion = energy tolerance
  Energy initial, next-to-last, final = 
      -1152448.6306997  -1152448.63169756  -1152448.63169756
  Force two-norm initial, final = 0.15219913 4.9685351e-05
  Force max component initial, final = 0.07374965 7.9904876e-06
  Final line search alpha, max atom move = 1.0000000 7.9904876e-06
  Iterations, force evaluations = 211 422

MPI task timing breakdown:
Section |  min time  |  avg time  |  max time  |%varavg| %total
---------------------------------------------------------------
Pair    | 0.64514    | 1.7762     | 2.3658     |  35.9 | 70.81
Neigh   | 0          | 0          | 0          |   0.0 |  0.00
Comm    | 0.039435   | 0.40965    | 1.2104     |  52.5 | 16.33
Output  | 0          | 0          | 0          |   0.0 |  0.00
Modify  | 2.5156e-05 | 0.0034974  | 0.0074334  |   2.8 |  0.14
Other   |            | 0.3192     |            |       | 12.72

Nlocal:        2776.45 ave        3941 max           0 min
Histogram: 8 4 4 0 4 12 8 2 26 36
Nghost:        3879.17 ave        5426 max         232 min
Histogram: 8 0 8 0 16 0 8 8 16 40
Neighs:        79213.7 ave      114819 max           0 min
Histogram: 8 4 4 0 10 6 8 8 22 34

Total # of neighbors = 8238220
Ave neighs/atom = 28.530533
Neighbor list builds = 0
Dangerous builds = 0
The dot product: -1.13459981375255e-08
Setting atom values ...
  1 settings made for x
  1 settings made for y
  1 settings made for z
Setting up cg style minimization ...
  Unit style    : metal
  Current step  : 28946
Per MPI rank memory allocation (min/avg/max) = 5.441 | 5.816 | 6.074 Mbytes
Step PotEng KinEng TotEng v_fx v_fy v_fz 
   28946   -1152448.6            0   -1152448.6  0.022516961 -0.043013945  0.049680597 
   29000   -1152448.6            0   -1152448.6 5.7289947e-06 -2.3699808e-05 3.2879737e-05 
   29153   -1152448.6            0   -1152448.6 -3.5616157e-06 1.3873618e-07 2.7170755e-06 
Loop time of 2.40834 on 104 procs for 207 steps with 288751 atoms

99.9% CPU use with 104 MPI tasks x 1 OpenMP threads

Minimization stats:
  Stopping criterion = energy tolerance
  Energy initial, next-to-last, final = 
     -1152448.60579792  -1152448.60674231  -1152448.60674231
  Force two-norm initial, final = 0.14883205 5.5095450e-05
  Force max component initial, final = 0.07278733 1.6846704e-05
  Final line search alpha, max atom move = 1.0000000 1.6846704e-05
  Iterations, force evaluations = 207 414

MPI task timing breakdown:
Section |  min time  |  avg time  |  max time  |%varavg| %total
---------------------------------------------------------------
Pair    | 0.63288    | 1.7386     | 2.2684     |  35.5 | 72.19
Neigh   | 0          | 0          | 0          |   0.0 |  0.00
Comm    | 0.037628   | 0.38927    | 1.1743     |  52.8 | 16.16
Output  | 9.7355e-05 | 0.00010033 | 0.00023021 |   0.0 |  0.00
Modify  | 2.4961e-05 | 0.0034049  | 0.0072776  |   2.8 |  0.14
Other   |            | 0.277      |            |       | 11.50

Nlocal:        2776.45 ave        3941 max           0 min
Histogram: 8 4 4 0 4 12 8 2 26 36
Nghost:        3879.17 ave        5426 max         232 min
Histogram: 8 0 8 0 16 0 8 8 16 40
Neighs:        79213.6 ave      114816 max           0 min
Histogram: 8 4 4 0 10 6 8 8 22 34

Total # of neighbors = 8238218
Ave neighs/atom = 28.530526
Neighbor list builds = 0
Dangerous builds = 0
The dot product: -1.30358131604059e-08
