LAMMPS (29 Oct 2020)
OMP_NUM_THREADS environment is not set. Defaulting to 1 thread. (../comm.cpp:94)
  using 1 OpenMP thread(s) per MPI task
OMP_NUM_THREADS environment is not set. Defaulting to 1 thread. (../comm.cpp:94)
  using 1 OpenMP thread(s) per MPI task
Reading data file ...
  orthogonal box = (-122.39241 -121.13707 -37.090501) to (122.39241 121.13707 37.090501)
  13 by 4 by 1 MPI processor grid
  reading atoms ...
  288751 atoms
  read_data CPU = 0.436 seconds
199981 atoms in group inner
88770 atoms in group outer
1 atoms in group carbon
Neighbor list info ...
  update every 1 steps, delay 0 steps, check yes
  max neighbors/atom: 2000, page size: 100000
  master list distance cutoff = 5.6
  ghost atom cutoff = 5.6
  binsize = 2.8, bins = 88 87 27
  1 neighbor lists, perpetual/occasional/extra = 1 0 0
  (1) pair eam/alloy, perpetual
      attributes: half, newton on
      pair build: half/bin/atomonly/newton
      stencil: half/bin/3d/newton
      bin: standard
Setting up cg style minimization ...
  Unit style    : metal
  Current step  : 0
Per MPI rank memory allocation (min/avg/max) = 5.465 | 6.344 | 6.728 Mbytes
Step v_fx v_fy v_fz PotEng KinEng TotEng 
       0   0.11287439 -0.055963387  0.044732057   -1152444.6            0   -1152444.6 
     234 8.6160467e-06 2.1578814e-05 2.4133114e-05     -1152449            0     -1152449 
Loop time of 5.15112 on 52 procs for 234 steps with 288751 atoms

99.9% CPU use with 52 MPI tasks x 1 OpenMP threads

Minimization stats:
  Stopping criterion = energy tolerance
  Energy initial, next-to-last, final = 
     -1152444.63021537  -1152448.97218782  -1152448.97218782
  Force two-norm initial, final = 23.793714 0.0001212336
  Force max component initial, final = 12.007983 2.4133114e-05
  Final line search alpha, max atom move = 1.0000000 2.4133114e-05
  Iterations, force evaluations = 234 467

MPI task timing breakdown:
Section |  min time  |  avg time  |  max time  |%varavg| %total
---------------------------------------------------------------
Pair    | 1.3859     | 3.7389     | 4.8635     |  52.3 | 72.58
Neigh   | 0.00015906 | 0.042585   | 0.06253    |   8.7 |  0.83
Comm    | 0.078814   | 0.82413    | 2.5934     |  81.7 | 16.00
Output  | 0          | 0          | 0          |   0.0 |  0.00
Modify  | 6.4685e-05 | 0.0051268  | 0.01304    |   4.4 |  0.10
Other   |            | 0.5404     |            |       | 10.49

Nlocal:        5552.90 ave        7908 max           0 min
Histogram: 4 2 2 0 2 6 4 0 15 17
Nghost:        6213.58 ave        8769 max         412 min
Histogram: 4 0 4 0 8 0 4 5 7 20
Neighs:       158427.0 ave      230509 max           0 min
Histogram: 4 2 2 0 5 3 4 4 12 16

Total # of neighbors = 8238211
Ave neighs/atom = 28.530502
Neighbor list builds = 7
Dangerous builds = 0
Setting atom values ...
  1 settings made for x
  1 settings made for y
  1 settings made for z
Setting up cg style minimization ...
  Unit style    : metal
  Current step  : 234
Per MPI rank memory allocation (min/avg/max) = 5.465 | 6.344 | 6.728 Mbytes
Step PotEng KinEng TotEng v_fx v_fy v_fz 
     234     -1152449            0     -1152449 -0.0057172915 2.2130291e-06    0.0100291 
     606     -1152449            0     -1152449 1.7407779e-05 4.6276254e-05 5.7334579e-05 
Loop time of 8.1326 on 52 procs for 372 steps with 288751 atoms

99.9% CPU use with 52 MPI tasks x 1 OpenMP threads

Minimization stats:
  Stopping criterion = energy tolerance
  Energy initial, next-to-last, final = 
     -1152448.96871966  -1152448.97097166  -1152448.97097166
  Force two-norm initial, final = 0.20131814 0.00027315871
  Force max component initial, final = 0.11389277 8.9080137e-05
  Final line search alpha, max atom move = 1.0000000 8.9080137e-05
  Iterations, force evaluations = 372 746

MPI task timing breakdown:
Section |  min time  |  avg time  |  max time  |%varavg| %total
---------------------------------------------------------------
Pair    | 2.1061     | 5.9416     | 7.79       |  67.7 | 73.06
Neigh   | 0          | 0          | 0          |   0.0 |  0.00
Comm    | 0.10759    | 1.3096     | 4.1131     | 103.1 | 16.10
Output  | 0          | 0          | 0          |   0.0 |  0.00
Modify  | 0.00010756 | 0.012464   | 0.026638   |   5.2 |  0.15
Other   |            | 0.8689     |            |       | 10.68

Nlocal:        5552.90 ave        7906 max           0 min
Histogram: 4 2 2 0 2 6 4 0 15 17
Nghost:        6213.62 ave        8769 max         412 min
Histogram: 4 0 4 0 8 0 4 5 7 20
Neighs:       158427.0 ave      230462 max           0 min
Histogram: 4 2 2 0 5 3 4 4 12 16

Total # of neighbors = 8238205
Ave neighs/atom = 28.530481
Neighbor list builds = 0
Dangerous builds = 0
Setting atom values ...
  1 settings made for x
  1 settings made for y
  1 settings made for z
Setting up cg style minimization ...
  Unit style    : metal
  Current step  : 606
Per MPI rank memory allocation (min/avg/max) = 5.465 | 6.344 | 6.728 Mbytes
Step PotEng KinEng TotEng v_fx v_fy v_fz 
     606     -1152449            0     -1152449 -0.016161655 -0.012339619 0.00039609528 
     801     -1152449            0     -1152449 -1.0771899e-05 -5.0974211e-05 -3.5018545e-05 
Loop time of 4.25499 on 52 procs for 195 steps with 288751 atoms

99.9% CPU use with 52 MPI tasks x 1 OpenMP threads

Minimization stats:
  Stopping criterion = linesearch alpha is zero
  Energy initial, next-to-last, final = 
      -1152448.9677278  -1152448.96931168  -1152448.96931168
  Force two-norm initial, final = 0.14647111 0.00018627914
  Force max component initial, final = 0.071059422 5.0974211e-05
  Final line search alpha, max atom move = 0.25 1.2743553e-05
  Iterations, force evaluations = 195 393

MPI task timing breakdown:
Section |  min time  |  avg time  |  max time  |%varavg| %total
---------------------------------------------------------------
Pair    | 1.1098     | 3.1193     | 4.0836     |  49.0 | 73.31
Neigh   | 0          | 0          | 0          |   0.0 |  0.00
Comm    | 0.051971   | 0.68025    | 2.1572     |  75.3 | 15.99
Output  | 0          | 0          | 0          |   0.0 |  0.00
Modify  | 4.6862e-05 | 0.0065563  | 0.013986   |   3.8 |  0.15
Other   |            | 0.4489     |            |       | 10.55

Nlocal:        5552.90 ave        7907 max           0 min
Histogram: 4 2 2 0 2 6 4 0 15 17
Nghost:        6213.69 ave        8770 max         412 min
Histogram: 4 0 4 0 8 0 4 5 7 20
Neighs:       158427.0 ave      230481 max           0 min
Histogram: 4 2 2 0 5 3 4 4 12 16

Total # of neighbors = 8238200
Ave neighs/atom = 28.530464
Neighbor list builds = 0
Dangerous builds = 0
The dot product: -6.95480009253116e-07
Setting atom values ...
  1 settings made for x
  1 settings made for y
  1 settings made for z
Setting up cg style minimization ...
  Unit style    : metal
  Current step  : 801
Per MPI rank memory allocation (min/avg/max) = 5.465 | 6.344 | 6.728 Mbytes
Step PotEng KinEng TotEng v_fx v_fy v_fz 
     801     -1152449            0     -1152449 -0.014301822 -0.030059161 -0.0093444384 
     961     -1152449            0     -1152449 -6.6206714e-06 -3.3859454e-05 -1.3555999e-05 
Loop time of 3.4899 on 52 procs for 160 steps with 288751 atoms

99.9% CPU use with 52 MPI tasks x 1 OpenMP threads

Minimization stats:
  Stopping criterion = energy tolerance
  Energy initial, next-to-last, final = 
     -1152448.96515731  -1152448.96739659  -1152448.96739659
  Force two-norm initial, final = 0.16174344 0.00020082712
  Force max component initial, final = 0.083949464 6.4162377e-05
  Final line search alpha, max atom move = 1.0000000 6.4162377e-05
  Iterations, force evaluations = 160 322

MPI task timing breakdown:
Section |  min time  |  avg time  |  max time  |%varavg| %total
---------------------------------------------------------------
Pair    | 0.91003    | 2.5682     | 3.3524     |  44.5 | 73.59
Neigh   | 0          | 0          | 0          |   0.0 |  0.00
Comm    | 0.04391    | 0.5634     | 1.8        |  68.5 | 16.14
Output  | 0          | 0          | 0          |   0.0 |  0.00
Modify  | 4.7703e-05 | 0.0053584  | 0.01147    |   3.4 |  0.15
Other   |            | 0.3529     |            |       | 10.11

Nlocal:        5552.90 ave        7907 max           0 min
Histogram: 4 2 2 0 2 6 4 0 15 17
Nghost:        6213.62 ave        8769 max         412 min
Histogram: 4 0 4 0 8 0 4 5 7 20
Neighs:       158427.0 ave      230480 max           0 min
Histogram: 4 2 2 0 5 3 4 4 12 16

Total # of neighbors = 8238205
Ave neighs/atom = 28.530481
Neighbor list builds = 0
Dangerous builds = 0
The dot product: -9.45149439687317e-07
Setting atom values ...
  1 settings made for x
  1 settings made for y
  1 settings made for z
Setting up cg style minimization ...
  Unit style    : metal
  Current step  : 961
Per MPI rank memory allocation (min/avg/max) = 5.465 | 6.344 | 6.728 Mbytes
Step PotEng KinEng TotEng v_fx v_fy v_fz 
     961     -1152449            0     -1152449 -0.0083249817 -0.041096671 -0.0016377644 
    1000     -1152449            0     -1152449 -0.00040960931 -0.0013169316 -2.8463182e-05 
    1121     -1152449            0     -1152449 5.2528742e-06 1.521218e-05 2.4111271e-07 
Loop time of 3.48394 on 52 procs for 160 steps with 288751 atoms

99.9% CPU use with 52 MPI tasks x 1 OpenMP threads

Minimization stats:
  Stopping criterion = linesearch alpha is zero
  Energy initial, next-to-last, final = 
      -1152448.9631557  -1152448.96579029  -1152448.96579029
  Force two-norm initial, final = 0.18823393 7.3967405e-05
  Force max component initial, final = 0.079788215 1.7420419e-05
  Final line search alpha, max atom move = 0.5 8.7102095e-06
  Iterations, force evaluations = 160 321

MPI task timing breakdown:
Section |  min time  |  avg time  |  max time  |%varavg| %total
---------------------------------------------------------------
Pair    | 0.90787    | 2.5513     | 3.3403     |  44.2 | 73.23
Neigh   | 0          | 0          | 0          |   0.0 |  0.00
Comm    | 0.047197   | 0.55897    | 1.7731     |  68.1 | 16.04
Output  | 0.00011918 | 0.00012353 | 0.0002704  |   0.0 |  0.00
Modify  | 6.149e-05  | 0.0053626  | 0.011457   |   3.4 |  0.15
Other   |            | 0.3682     |            |       | 10.57

Nlocal:        5552.90 ave        7910 max           0 min
Histogram: 4 2 2 0 2 6 4 0 15 17
Nghost:        6213.62 ave        8769 max         412 min
Histogram: 4 0 4 0 8 0 4 5 7 20
Neighs:       158427.0 ave      230564 max           0 min
Histogram: 4 2 2 0 5 3 4 4 12 16

Total # of neighbors = 8238212
Ave neighs/atom = 28.530506
Neighbor list builds = 0
Dangerous builds = 0
The dot product: 2.48244425870664e-07
Setting atom values ...
  1 settings made for x
  1 settings made for y
  1 settings made for z
Setting up cg style minimization ...
  Unit style    : metal
  Current step  : 1121
Per MPI rank memory allocation (min/avg/max) = 5.465 | 6.344 | 6.728 Mbytes
Step PotEng KinEng TotEng v_fx v_fy v_fz 
    1121     -1152449            0     -1152449 -0.003307207 -0.055122682 0.0059988672 
    1336     -1152449            0     -1152449 5.7588134e-06 1.4459172e-05 -2.2610668e-06 
Loop time of 4.73667 on 52 procs for 215 steps with 288751 atoms

99.9% CPU use with 52 MPI tasks x 1 OpenMP threads

Minimization stats:
  Stopping criterion = linesearch alpha is zero
  Energy initial, next-to-last, final = 
     -1152448.96125702  -1152448.96437099  -1152448.96437099
  Force two-norm initial, final = 0.20432516 0.00015932073
  Force max component initial, final = 0.087541793 3.1686798e-05
  Final line search alpha, max atom move = 0.25 7.9216995e-06
  Iterations, force evaluations = 215 435

MPI task timing breakdown:
Section |  min time  |  avg time  |  max time  |%varavg| %total
---------------------------------------------------------------
Pair    | 1.2263     | 3.4653     | 4.5223     |  51.6 | 73.16
Neigh   | 0          | 0          | 0          |   0.0 |  0.00
Comm    | 0.062399   | 0.75762    | 2.3963     |  79.0 | 15.99
Output  | 0          | 0          | 0          |   0.0 |  0.00
Modify  | 5.9237e-05 | 0.0072467  | 0.015521   |   4.0 |  0.15
Other   |            | 0.5065     |            |       | 10.69

Nlocal:        5552.90 ave        7908 max           0 min
Histogram: 4 2 2 0 2 6 4 0 15 17
Nghost:        6213.62 ave        8769 max         412 min
Histogram: 4 0 4 0 8 0 4 5 7 20
Neighs:       158427.0 ave      230506 max           0 min
Histogram: 4 2 2 0 5 3 4 4 12 16

Total # of neighbors = 8238216
Ave neighs/atom = 28.530519
Neighbor list builds = 0
Dangerous builds = 0
The dot product: 1.84474574633652e-07
Setting atom values ...
  1 settings made for x
  1 settings made for y
  1 settings made for z
Setting up cg style minimization ...
  Unit style    : metal
  Current step  : 1336
Per MPI rank memory allocation (min/avg/max) = 5.465 | 6.344 | 6.728 Mbytes
Step PotEng KinEng TotEng v_fx v_fy v_fz 
    1336     -1152449            0     -1152449 -0.0019303584 -0.060715065  0.012675912 
    1469     -1152449            0     -1152449 2.3130148e-05 5.2740342e-05 -1.430788e-05 
Loop time of 2.87516 on 52 procs for 133 steps with 288751 atoms

99.9% CPU use with 52 MPI tasks x 1 OpenMP threads

Minimization stats:
  Stopping criterion = energy tolerance
  Energy initial, next-to-last, final = 
     -1152448.96023475  -1152448.96282692  -1152448.96282692
  Force two-norm initial, final = 0.2144719 0.00031876036
  Force max component initial, final = 0.095711008 9.6221259e-05
  Final line search alpha, max atom move = 1.0000000 9.6221259e-05
  Iterations, force evaluations = 133 266

MPI task timing breakdown:
Section |  min time  |  avg time  |  max time  |%varavg| %total
---------------------------------------------------------------
Pair    | 0.75197    | 2.1124     | 2.7624     |  40.3 | 73.47
Neigh   | 0          | 0          | 0          |   0.0 |  0.00
Comm    | 0.035873   | 0.46187    | 1.4708     |  62.2 | 16.06
Output  | 0          | 0          | 0          |   0.0 |  0.00
Modify  | 3.2955e-05 | 0.004437   | 0.0094632  |   3.1 |  0.15
Other   |            | 0.2965     |            |       | 10.31

Nlocal:        5552.90 ave        7909 max           0 min
Histogram: 4 2 2 0 2 6 4 0 15 17
Nghost:        6213.62 ave        8769 max         412 min
Histogram: 4 0 4 0 8 0 4 5 7 20
Neighs:       158427.0 ave      230527 max           0 min
Histogram: 4 2 2 0 5 3 4 4 12 16

Total # of neighbors = 8238213
Ave neighs/atom = 28.530509
Neighbor list builds = 0
Dangerous builds = 0
The dot product: -6.77882931721821e-08
Setting atom values ...
  1 settings made for x
  1 settings made for y
  1 settings made for z
Setting up cg style minimization ...
  Unit style    : metal
  Current step  : 1469
Per MPI rank memory allocation (min/avg/max) = 5.465 | 6.344 | 6.728 Mbytes
Step PotEng KinEng TotEng v_fx v_fy v_fz 
    1469     -1152449            0     -1152449 -0.0032776661 -0.070408763  0.014223805 
    1663     -1152449            0     -1152449 3.4098688e-06 8.2659563e-06 -2.13201e-06 
Loop time of 4.22044 on 52 procs for 194 steps with 288751 atoms

99.9% CPU use with 52 MPI tasks x 1 OpenMP threads

Minimization stats:
  Stopping criterion = linesearch alpha is zero
  Energy initial, next-to-last, final = 
     -1152448.95815378    -1152448.960623    -1152448.960623
  Force two-norm initial, final = 0.21702796 0.00012221292
  Force max component initial, final = 0.096007519 2.9755519e-05
  Final line search alpha, max atom move = 0.5 1.4877760e-05
  Iterations, force evaluations = 194 389

MPI task timing breakdown:
Section |  min time  |  avg time  |  max time  |%varavg| %total
---------------------------------------------------------------
Pair    | 1.0968     | 3.0942     | 4.0499     |  48.8 | 73.31
Neigh   | 0          | 0          | 0          |   0.0 |  0.00
Comm    | 0.053834   | 0.67732    | 2.1463     |  75.1 | 16.05
Output  | 0          | 0          | 0          |   0.0 |  0.00
Modify  | 5.1963e-05 | 0.0064879  | 0.013783   |   3.8 |  0.15
Other   |            | 0.4425     |            |       | 10.48

Nlocal:        5552.90 ave        7909 max           0 min
Histogram: 4 2 2 0 2 6 4 0 15 17
Nghost:        6213.62 ave        8769 max         412 min
Histogram: 4 0 4 0 8 0 4 5 7 20
Neighs:       158427.0 ave      230543 max           0 min
Histogram: 4 2 2 0 5 3 4 4 12 16

Total # of neighbors = 8238210
Ave neighs/atom = 28.530499
Neighbor list builds = 0
Dangerous builds = 0
The dot product: -4.82775928352374e-08
Setting atom values ...
  1 settings made for x
  1 settings made for y
  1 settings made for z
Setting up cg style minimization ...
  Unit style    : metal
  Current step  : 1663
Per MPI rank memory allocation (min/avg/max) = 5.465 | 6.344 | 6.728 Mbytes
Step PotEng KinEng TotEng v_fx v_fy v_fz 
    1663     -1152449            0     -1152449 -0.0045315042 -0.077917863   0.01317043 
    1821     -1152449            0     -1152449 3.3171894e-06 8.3157923e-06 -1.8200019e-06 
Loop time of 3.43831 on 52 procs for 158 steps with 288751 atoms

99.9% CPU use with 52 MPI tasks x 1 OpenMP threads

Minimization stats:
  Stopping criterion = linesearch alpha is zero
  Energy initial, next-to-last, final = 
     -1152448.95536799  -1152448.95797545  -1152448.95797545
  Force two-norm initial, final = 0.21706712 0.00012944368
  Force max component initial, final = 0.094146825 2.2779483e-05
  Final line search alpha, max atom move = 0.5 1.1389742e-05
  Iterations, force evaluations = 158 317

MPI task timing breakdown:
Section |  min time  |  avg time  |  max time  |%varavg| %total
---------------------------------------------------------------
Pair    | 0.89559    | 2.52       | 3.2964     |  44.0 | 73.29
Neigh   | 0          | 0          | 0          |   0.0 |  0.00
Comm    | 0.044678   | 0.55193    | 1.7468     |  67.6 | 16.05
Output  | 0          | 0          | 0          |   0.0 |  0.00
Modify  | 4.1399e-05 | 0.005294   | 0.011289   |   3.4 |  0.15
Other   |            | 0.361      |            |       | 10.50

Nlocal:        5552.90 ave        7908 max           0 min
Histogram: 4 2 2 0 2 6 4 0 15 17
Nghost:        6213.62 ave        8769 max         412 min
Histogram: 4 0 4 0 8 0 4 5 7 20
Neighs:       158427.0 ave      230518 max           0 min
Histogram: 4 2 2 0 5 3 4 4 12 16

Total # of neighbors = 8238206
Ave neighs/atom = 28.530485
Neighbor list builds = 0
Dangerous builds = 0
The dot product: -4.11217572461886e-08
Setting atom values ...
  1 settings made for x
  1 settings made for y
  1 settings made for z
Setting up cg style minimization ...
  Unit style    : metal
  Current step  : 1821
Per MPI rank memory allocation (min/avg/max) = 5.465 | 6.344 | 6.728 Mbytes
Step PotEng KinEng TotEng v_fx v_fy v_fz 
    1821     -1152449            0     -1152449 -0.0043727645 -0.081352872  0.011473549 
    1995     -1152449            0     -1152449 1.018603e-05 2.2489513e-05 -4.4728691e-06 
Loop time of 3.77202 on 52 procs for 174 steps with 288751 atoms

99.9% CPU use with 52 MPI tasks x 1 OpenMP threads

Minimization stats:
  Stopping criterion = energy tolerance
  Energy initial, next-to-last, final = 
     -1152448.95242069  -1152448.95472294  -1152448.95472294
  Force two-norm initial, final = 0.21622777 0.00018867493
  Force max component initial, final = 0.09261874 4.0685621e-05
  Final line search alpha, max atom move = 1.0000000 4.0685621e-05
  Iterations, force evaluations = 174 348

MPI task timing breakdown:
Section |  min time  |  avg time  |  max time  |%varavg| %total
---------------------------------------------------------------
Pair    | 0.98339    | 2.7766     | 3.6247     |  46.2 | 73.61
Neigh   | 0          | 0          | 0          |   0.0 |  0.00
Comm    | 0.046189   | 0.60978    | 1.9471     |  71.3 | 16.17
Output  | 0          | 0          | 0          |   0.0 |  0.00
Modify  | 4.7337e-05 | 0.0057835  | 0.012365   |   3.6 |  0.15
Other   |            | 0.3799     |            |       | 10.07

Nlocal:        5552.90 ave        7908 max           0 min
Histogram: 4 2 2 0 2 6 4 0 15 17
Nghost:        6213.62 ave        8769 max         412 min
Histogram: 4 0 4 0 8 0 4 5 7 20
Neighs:       158427.0 ave      230516 max           0 min
Histogram: 4 2 2 0 5 3 4 4 12 16

Total # of neighbors = 8238203
Ave neighs/atom = 28.530474
Neighbor list builds = 0
Dangerous builds = 0
The dot product: -1.63191763308236e-07
Setting atom values ...
  1 settings made for x
  1 settings made for y
  1 settings made for z
Setting up cg style minimization ...
  Unit style    : metal
  Current step  : 1995
Per MPI rank memory allocation (min/avg/max) = 5.465 | 6.344 | 6.728 Mbytes
Step PotEng KinEng TotEng v_fx v_fy v_fz 
    1995   -1152448.9            0   -1152448.9 -0.005155652 -0.086721743 0.0092724006 
    2000     -1152449            0     -1152449 -0.0056902499 -0.002821137 0.0010792757 
    2174     -1152449            0     -1152449  7.69294e-06 1.6557607e-05 -2.7150063e-06 
Loop time of 3.89683 on 52 procs for 179 steps with 288751 atoms

99.9% CPU use with 52 MPI tasks x 1 OpenMP threads

Minimization stats:
  Stopping criterion = linesearch alpha is zero
  Energy initial, next-to-last, final = 
     -1152448.94844068  -1152448.95067783  -1152448.95067783
  Force two-norm initial, final = 0.21529122 0.00014630537
  Force max component initial, final = 0.090148966 3.3171697e-05
  Final line search alpha, max atom move = 0.5 1.6585848e-05
  Iterations, force evaluations = 179 359

MPI task timing breakdown:
Section |  min time  |  avg time  |  max time  |%varavg| %total
---------------------------------------------------------------
Pair    | 1.0105     | 2.8522     | 3.7342     |  46.9 | 73.19
Neigh   | 0          | 0          | 0          |   0.0 |  0.00
Comm    | 0.047399   | 0.62434    | 1.9798     |  72.0 | 16.02
Output  | 0.00011497 | 0.00011861 | 0.00025057 |   0.0 |  0.00
Modify  | 5.6696e-05 | 0.0059784  | 0.012782   |   3.6 |  0.15
Other   |            | 0.4142     |            |       | 10.63

Nlocal:        5552.90 ave        7908 max           0 min
Histogram: 4 2 2 0 2 6 4 0 15 17
Nghost:        6213.62 ave        8769 max         412 min
Histogram: 4 0 4 0 8 0 4 5 7 20
Neighs:       158427.0 ave      230502 max           0 min
Histogram: 4 2 2 0 5 3 4 4 12 16

Total # of neighbors = 8238200
Ave neighs/atom = 28.530464
Neighbor list builds = 0
Dangerous builds = 0
The dot product: -1.45320944762255e-07
Setting atom values ...
  1 settings made for x
  1 settings made for y
  1 settings made for z
Setting up cg style minimization ...
  Unit style    : metal
  Current step  : 2174
Per MPI rank memory allocation (min/avg/max) = 5.465 | 6.344 | 6.728 Mbytes
Step PotEng KinEng TotEng v_fx v_fy v_fz 
    2174   -1152448.9            0   -1152448.9 -0.0061971183 -0.090921582 0.0064231703 
    2356   -1152448.9            0   -1152448.9 9.851052e-06 2.4950341e-05 -2.8579827e-06 
Loop time of 3.95942 on 52 procs for 182 steps with 288751 atoms

99.9% CPU use with 52 MPI tasks x 1 OpenMP threads

Minimization stats:
  Stopping criterion = linesearch alpha is zero
  Energy initial, next-to-last, final = 
     -1152448.94368739   -1152448.9458917   -1152448.9458917
  Force two-norm initial, final = 0.21365445 0.00012607631
  Force max component initial, final = 0.090921582 2.5322446e-05
  Final line search alpha, max atom move = 0.5 1.2661223e-05
  Iterations, force evaluations = 182 365

MPI task timing breakdown:
Section |  min time  |  avg time  |  max time  |%varavg| %total
---------------------------------------------------------------
Pair    | 1.031      | 2.9063     | 3.7997     |  47.3 | 73.40
Neigh   | 0          | 0          | 0          |   0.0 |  0.00
Comm    | 0.048986   | 0.63782    | 2.0178     |  72.6 | 16.11
Output  | 0          | 0          | 0          |   0.0 |  0.00
Modify  | 4.9499e-05 | 0.0060895  | 0.012938   |   3.6 |  0.15
Other   |            | 0.4092     |            |       | 10.34

Nlocal:        5552.90 ave        7908 max           0 min
Histogram: 4 2 2 0 2 6 4 0 15 17
Nghost:        6213.62 ave        8769 max         412 min
Histogram: 4 0 4 0 8 0 4 5 7 20
Neighs:       158427.0 ave      230512 max           0 min
Histogram: 4 2 2 0 5 3 4 4 12 16

Total # of neighbors = 8238209
Ave neighs/atom = 28.530495
Neighbor list builds = 0
Dangerous builds = 0
The dot product: -2.30782901714211e-07
Setting atom values ...
  1 settings made for x
  1 settings made for y
  1 settings made for z
Setting up cg style minimization ...
  Unit style    : metal
  Current step  : 2356
Per MPI rank memory allocation (min/avg/max) = 5.465 | 6.344 | 6.728 Mbytes
Step PotEng KinEng TotEng v_fx v_fy v_fz 
    2356   -1152448.9            0   -1152448.9 -0.0068234275  -0.09350288 0.0032539064 
    2501   -1152448.9            0   -1152448.9 -3.0080638e-05 -7.1213888e-05 5.6599861e-06 
Loop time of 3.13696 on 52 procs for 145 steps with 288751 atoms

99.9% CPU use with 52 MPI tasks x 1 OpenMP threads

Minimization stats:
  Stopping criterion = energy tolerance
  Energy initial, next-to-last, final = 
     -1152448.93823624  -1152448.94032175  -1152448.94032175
  Force two-norm initial, final = 0.21145108 0.00029980478
  Force max component initial, final = 0.09350288 9.7729596e-05
  Final line search alpha, max atom move = 1.0000000 9.7729596e-05
  Iterations, force evaluations = 145 290

MPI task timing breakdown:
Section |  min time  |  avg time  |  max time  |%varavg| %total
---------------------------------------------------------------
Pair    | 0.81859    | 2.3034     | 3.0148     |  42.0 | 73.43
Neigh   | 0          | 0          | 0          |   0.0 |  0.00
Comm    | 0.039543   | 0.50407    | 1.6028     |  64.9 | 16.07
Output  | 0          | 0          | 0          |   0.0 |  0.00
Modify  | 3.7271e-05 | 0.0048229  | 0.010285   |   3.2 |  0.15
Other   |            | 0.3247     |            |       | 10.35

Nlocal:        5552.90 ave        7908 max           0 min
Histogram: 4 2 2 0 2 6 4 0 15 17
Nghost:        6213.62 ave        8769 max         412 min
Histogram: 4 0 4 0 8 0 4 5 7 20
Neighs:       158427.0 ave      230517 max           0 min
Histogram: 4 2 2 0 5 3 4 4 12 16

Total # of neighbors = 8238204
Ave neighs/atom = 28.530478
Neighbor list builds = 0
Dangerous builds = 0
The dot product: 5.83951207793611e-07
Setting atom values ...
  1 settings made for x
  1 settings made for y
  1 settings made for z
Setting up cg style minimization ...
  Unit style    : metal
  Current step  : 2501
Per MPI rank memory allocation (min/avg/max) = 5.465 | 6.344 | 6.728 Mbytes
Step PotEng KinEng TotEng v_fx v_fy v_fz 
    2501   -1152448.9            0   -1152448.9 -0.0059290574 -0.094074333 0.00024630599 
    2673   -1152448.9            0   -1152448.9 4.9864041e-06 9.393695e-06 -5.7843268e-07 
Loop time of 3.75038 on 52 procs for 172 steps with 288751 atoms

99.9% CPU use with 52 MPI tasks x 1 OpenMP threads

Minimization stats:
  Stopping criterion = linesearch alpha is zero
  Energy initial, next-to-last, final = 
     -1152448.93191548  -1152448.93391543  -1152448.93391543
  Force two-norm initial, final = 0.20920829 0.00012045363
  Force max component initial, final = 0.094074333 2.2088879e-05
  Final line search alpha, max atom move = 0.5 1.1044439e-05
  Iterations, force evaluations = 172 345

MPI task timing breakdown:
Section |  min time  |  avg time  |  max time  |%varavg| %total
---------------------------------------------------------------
Pair    | 0.97924    | 2.7489     | 3.5914     |  45.9 | 73.30
Neigh   | 0          | 0          | 0          |   0.0 |  0.00
Comm    | 0.04735    | 0.5994     | 1.8974     |  70.8 | 15.98
Output  | 0          | 0          | 0          |   0.0 |  0.00
Modify  | 4.6592e-05 | 0.0057556  | 0.012248   |   3.5 |  0.15
Other   |            | 0.3964     |            |       | 10.57

Nlocal:        5552.90 ave        7908 max           0 min
Histogram: 4 2 2 0 2 6 4 0 15 17
Nghost:        6213.62 ave        8769 max         412 min
Histogram: 4 0 4 0 8 0 4 5 7 20
Neighs:       158427.0 ave      230514 max           0 min
Histogram: 4 2 2 0 5 3 4 4 12 16

Total # of neighbors = 8238201
Ave neighs/atom = 28.530467
Neighbor list builds = 0
Dangerous builds = 0
The dot product: -6.77493134037913e-08
Setting atom values ...
  1 settings made for x
  1 settings made for y
  1 settings made for z
Setting up cg style minimization ...
  Unit style    : metal
  Current step  : 2673
Per MPI rank memory allocation (min/avg/max) = 5.465 | 6.344 | 6.728 Mbytes
Step PotEng KinEng TotEng v_fx v_fy v_fz 
    2673   -1152448.9            0   -1152448.9 -0.0091045413 -0.091188625 -0.0017658156 
    2839   -1152448.9            0   -1152448.9 1.0624906e-06 7.5937937e-08 -1.3348775e-07 
Loop time of 3.59464 on 52 procs for 166 steps with 288751 atoms

99.9% CPU use with 52 MPI tasks x 1 OpenMP threads

Minimization stats:
  Stopping criterion = linesearch alpha is zero
  Energy initial, next-to-last, final = 
     -1152448.92464833  -1152448.92654968  -1152448.92654968
  Force two-norm initial, final = 0.20569003 0.00013496701
  Force max component initial, final = 0.091188625 2.7382206e-06
  Final line search alpha, max atom move = 0.5 1.3691103e-06
  Iterations, force evaluations = 166 333

MPI task timing breakdown:
Section |  min time  |  avg time  |  max time  |%varavg| %total
---------------------------------------------------------------
Pair    | 0.93964    | 2.6409     | 3.4541     |  45.0 | 73.47
Neigh   | 0          | 0          | 0          |   0.0 |  0.00
Comm    | 0.044608   | 0.57649    | 1.8348     |  69.5 | 16.04
Output  | 0          | 0          | 0          |   0.0 |  0.00
Modify  | 4.1382e-05 | 0.0055681  | 0.011833   |   3.5 |  0.15
Other   |            | 0.3717     |            |       | 10.34

Nlocal:        5552.90 ave        7908 max           0 min
Histogram: 4 2 2 0 2 6 4 0 15 17
Nghost:        6213.58 ave        8769 max         412 min
Histogram: 4 0 4 0 8 0 4 5 7 20
Neighs:       158427.0 ave      230509 max           0 min
Histogram: 4 2 2 0 5 3 4 4 12 16

Total # of neighbors = 8238199
Ave neighs/atom = 28.530461
Neighbor list builds = 0
Dangerous builds = 0
The dot product: -5.59033336878588e-10
Setting atom values ...
  1 settings made for x
  1 settings made for y
  1 settings made for z
Setting up cg style minimization ...
  Unit style    : metal
  Current step  : 2839
Per MPI rank memory allocation (min/avg/max) = 5.465 | 6.344 | 6.728 Mbytes
Step PotEng KinEng TotEng v_fx v_fy v_fz 
    2839   -1152448.9            0   -1152448.9 -0.017508291 -0.085545271 -0.0023297851 
    3000   -1152448.9            0   -1152448.9 -8.2146174e-06 -1.9761878e-05 -5.7276629e-09 
    3055   -1152448.9            0   -1152448.9 -3.9858427e-07 -9.023332e-07 2.739545e-09 
Loop time of 4.69736 on 52 procs for 216 steps with 288751 atoms

99.9% CPU use with 52 MPI tasks x 1 OpenMP threads

Minimization stats:
  Stopping criterion = linesearch alpha is zero
  Energy initial, next-to-last, final = 
     -1152448.91609987  -1152448.91797149  -1152448.91797149
  Force two-norm initial, final = 0.20239853 4.3423452e-05
  Force max component initial, final = 0.085545271 1.1874272e-06
  Final line search alpha, max atom move = 0.5 5.9371360e-07
  Iterations, force evaluations = 216 433

MPI task timing breakdown:
Section |  min time  |  avg time  |  max time  |%varavg| %total
---------------------------------------------------------------
Pair    | 1.2276     | 3.4409     | 4.4986     |  51.4 | 73.25
Neigh   | 0          | 0          | 0          |   0.0 |  0.00
Comm    | 0.059845   | 0.75312    | 2.3826     |  78.9 | 16.03
Output  | 0.0001229  | 0.00012727 | 0.00028457 |   0.0 |  0.00
Modify  | 6.8482e-05 | 0.007213   | 0.015433   |   4.0 |  0.15
Other   |            | 0.496      |            |       | 10.56

Nlocal:        5552.90 ave        7908 max           0 min
Histogram: 4 2 2 0 2 6 4 0 15 17
Nghost:        6213.58 ave        8769 max         412 min
Histogram: 4 0 4 0 8 0 4 5 7 20
Neighs:       158427.0 ave      230514 max           0 min
Histogram: 4 2 2 0 5 3 4 4 12 16

Total # of neighbors = 8238198
Ave neighs/atom = 28.530457
Neighbor list builds = 0
Dangerous builds = 0
The dot product: 4.89792858655179e-09
Setting atom values ...
  1 settings made for x
  1 settings made for y
  1 settings made for z
Setting up cg style minimization ...
  Unit style    : metal
  Current step  : 3055
Per MPI rank memory allocation (min/avg/max) = 5.465 | 6.344 | 6.728 Mbytes
Step PotEng KinEng TotEng v_fx v_fy v_fz 
    3055   -1152448.9            0   -1152448.9 -0.022872511 -0.081992912 -0.0027929293 
    3216   -1152448.9            0   -1152448.9 -5.8503807e-07 4.4234132e-06 3.7503092e-07 
Loop time of 3.5209 on 52 procs for 161 steps with 288751 atoms

99.9% CPU use with 52 MPI tasks x 1 OpenMP threads

Minimization stats:
  Stopping criterion = linesearch alpha is zero
  Energy initial, next-to-last, final = 
     -1152448.90618157  -1152448.90804624  -1152448.90804624
  Force two-norm initial, final = 0.2006885 0.00017359182
  Force max component initial, final = 0.082174192 1.3036389e-05
  Final line search alpha, max atom move = 0.25 3.2590974e-06
  Iterations, force evaluations = 161 325

MPI task timing breakdown:
Section |  min time  |  avg time  |  max time  |%varavg| %total
---------------------------------------------------------------
Pair    | 0.91863    | 2.5804     | 3.3776     |  44.5 | 73.29
Neigh   | 0          | 0          | 0          |   0.0 |  0.00
Comm    | 0.04736    | 0.56508    | 1.7911     |  68.4 | 16.05
Output  | 0          | 0          | 0          |   0.0 |  0.00
Modify  | 3.9931e-05 | 0.0054106  | 0.011539   |   3.4 |  0.15
Other   |            | 0.37       |            |       | 10.51

Nlocal:        5552.90 ave        7908 max           0 min
Histogram: 4 2 2 0 2 6 4 0 15 17
Nghost:        6213.62 ave        8769 max         412 min
Histogram: 4 0 4 0 8 0 4 5 7 20
Neighs:       158427.0 ave      230508 max           0 min
Histogram: 4 2 2 0 5 3 4 4 12 16

Total # of neighbors = 8238198
Ave neighs/atom = 28.530457
Neighbor list builds = 0
Dangerous builds = 0
The dot product: -1.55057721034191e-08
Setting atom values ...
  1 settings made for x
  1 settings made for y
  1 settings made for z
Setting up cg style minimization ...
  Unit style    : metal
  Current step  : 3216
Per MPI rank memory allocation (min/avg/max) = 5.465 | 6.344 | 6.728 Mbytes
Step PotEng KinEng TotEng v_fx v_fy v_fz 
    3216   -1152448.9            0   -1152448.9 -0.025824817 -0.079827577 -0.0033246483 
    3383   -1152448.9            0   -1152448.9 4.6115043e-06 8.3758394e-06 1.2564585e-07 
Loop time of 3.63107 on 52 procs for 167 steps with 288751 atoms

99.9% CPU use with 52 MPI tasks x 1 OpenMP threads

Minimization stats:
  Stopping criterion = linesearch alpha is zero
  Energy initial, next-to-last, final = 
     -1152448.89490027  -1152448.89676833  -1152448.89676833
  Force two-norm initial, final = 0.19962957 0.00014581686
  Force max component initial, final = 0.083897317 1.9364062e-05
  Final line search alpha, max atom move = 0.5 9.6820309e-06
  Iterations, force evaluations = 167 335

MPI task timing breakdown:
Section |  min time  |  avg time  |  max time  |%varavg| %total
---------------------------------------------------------------
Pair    | 0.94598    | 2.6705     | 3.4899     |  45.3 | 73.55
Neigh   | 0          | 0          | 0          |   0.0 |  0.00
Comm    | 0.045258   | 0.58613    | 1.8635     |  69.7 | 16.14
Output  | 0          | 0          | 0          |   0.0 |  0.00
Modify  | 4.4733e-05 | 0.0055787  | 0.011936   |   3.5 |  0.15
Other   |            | 0.3689     |            |       | 10.16

Nlocal:        5552.90 ave        7908 max           0 min
Histogram: 4 2 2 0 2 6 4 0 15 17
Nghost:        6213.62 ave        8769 max         412 min
Histogram: 4 0 4 0 8 0 4 5 7 20
Neighs:       158427.0 ave      230514 max           0 min
Histogram: 4 2 2 0 5 3 4 4 12 16

Total # of neighbors = 8238200
Ave neighs/atom = 28.530464
Neighbor list builds = 0
Dangerous builds = 0
The dot product: -3.16833515738619e-08
Setting atom values ...
  1 settings made for x
  1 settings made for y
  1 settings made for z
Setting up cg style minimization ...
  Unit style    : metal
  Current step  : 3383
Per MPI rank memory allocation (min/avg/max) = 5.465 | 6.344 | 6.728 Mbytes
Step PotEng KinEng TotEng v_fx v_fy v_fz 
    3383   -1152448.9            0   -1152448.9 -0.027532323 -0.077458995 -0.0036714421 
    3539   -1152448.9            0   -1152448.9 2.455258e-05 6.2142518e-05 2.6695642e-06 
Loop time of 3.38035 on 52 procs for 156 steps with 288751 atoms

99.9% CPU use with 52 MPI tasks x 1 OpenMP threads

Minimization stats:
  Stopping criterion = energy tolerance
  Energy initial, next-to-last, final = 
     -1152448.88229238  -1152448.88422172  -1152448.88422172
  Force two-norm initial, final = 0.19876198 0.00030143632
  Force max component initial, final = 0.085380162 7.3502033e-05
  Final line search alpha, max atom move = 1.0000000 7.3502033e-05
  Iterations, force evaluations = 156 312

MPI task timing breakdown:
Section |  min time  |  avg time  |  max time  |%varavg| %total
---------------------------------------------------------------
Pair    | 0.88096    | 2.4762     | 3.2435     |  43.6 | 73.25
Neigh   | 0          | 0          | 0          |   0.0 |  0.00
Comm    | 0.041868   | 0.54048    | 1.7125     |  67.1 | 15.99
Output  | 0          | 0          | 0          |   0.0 |  0.00
Modify  | 4.1834e-05 | 0.005196   | 0.011093   |   3.4 |  0.15
Other   |            | 0.3585     |            |       | 10.60

Nlocal:        5552.90 ave        7909 max           0 min
Histogram: 4 2 2 0 2 6 4 0 15 17
Nghost:        6213.62 ave        8769 max         412 min
Histogram: 4 0 4 0 8 0 4 5 7 20
Neighs:       158427.0 ave      230558 max           0 min
Histogram: 4 2 2 0 5 3 4 4 12 16

Total # of neighbors = 8238197
Ave neighs/atom = 28.530454
Neighbor list builds = 0
Dangerous builds = 0
The dot product: 4.32961156795685e-08
Setting atom values ...
  1 settings made for x
  1 settings made for y
  1 settings made for z
Setting up cg style minimization ...
  Unit style    : metal
  Current step  : 3539
Per MPI rank memory allocation (min/avg/max) = 5.465 | 6.344 | 6.728 Mbytes
Step PotEng KinEng TotEng v_fx v_fy v_fz 
    3539   -1152448.9            0   -1152448.9 -0.025857526 -0.071472843 -0.0032044965 
    3707   -1152448.9            0   -1152448.9 5.2750477e-06 1.5786476e-05 7.5646081e-07 
Loop time of 3.64548 on 52 procs for 168 steps with 288751 atoms

99.9% CPU use with 52 MPI tasks x 1 OpenMP threads

Minimization stats:
  Stopping criterion = linesearch alpha is zero
  Energy initial, next-to-last, final = 
     -1152448.86864786  -1152448.87124993  -1152448.87124993
  Force two-norm initial, final = 0.19693108 5.8284594e-05
  Force max component initial, final = 0.085835502 1.5786476e-05
  Final line search alpha, max atom move = 0.5 7.8932381e-06
  Iterations, force evaluations = 168 337

MPI task timing breakdown:
Section |  min time  |  avg time  |  max time  |%varavg| %total
---------------------------------------------------------------
Pair    | 0.95185    | 2.6863     | 3.5039     |  45.5 | 73.69
Neigh   | 0          | 0          | 0          |   0.0 |  0.00
Comm    | 0.044887   | 0.58958    | 1.8817     |  70.0 | 16.17
Output  | 0          | 0          | 0          |   0.0 |  0.00
Modify  | 4.4461e-05 | 0.0056059  | 0.011934   |   3.5 |  0.15
Other   |            | 0.364      |            |       |  9.98

Nlocal:        5552.90 ave        7910 max           0 min
Histogram: 4 2 2 0 2 6 4 0 15 17
Nghost:        6213.62 ave        8769 max         412 min
Histogram: 4 0 4 0 8 0 4 5 7 20
Neighs:       158427.0 ave      230587 max           0 min
Histogram: 4 2 2 0 5 3 4 4 12 16

Total # of neighbors = 8238193
Ave neighs/atom = 28.530440
Neighbor list builds = 0
Dangerous builds = 0
The dot product: 2.99585528061927e-07
Setting atom values ...
  1 settings made for x
  1 settings made for y
  1 settings made for z
Setting up cg style minimization ...
  Unit style    : metal
  Current step  : 3707
Per MPI rank memory allocation (min/avg/max) = 5.465 | 6.344 | 6.728 Mbytes
Step PotEng KinEng TotEng v_fx v_fy v_fz 
    3707   -1152448.9            0   -1152448.9 -0.012776674 -0.049106032 -0.0004954811 
    3958   -1152448.9            0   -1152448.9 2.0216066e-06 5.2221989e-06 -3.4950874e-08 
Loop time of 5.47008 on 52 procs for 251 steps with 288751 atoms

99.9% CPU use with 52 MPI tasks x 1 OpenMP threads

Minimization stats:
  Stopping criterion = linesearch alpha is zero
  Energy initial, next-to-last, final = 
     -1152448.85548941  -1152448.85774074  -1152448.85774074
  Force two-norm initial, final = 0.19282135 1.5777918e-05
  Force max component initial, final = 0.081679782 5.3614879e-06
  Final line search alpha, max atom move = 0.5 2.6807440e-06
  Iterations, force evaluations = 251 503

MPI task timing breakdown:
Section |  min time  |  avg time  |  max time  |%varavg| %total
---------------------------------------------------------------
Pair    | 1.4185     | 3.9977     | 5.2292     |  55.4 | 73.08
Neigh   | 0          | 0          | 0          |   0.0 |  0.00
Comm    | 0.072077   | 0.87448    | 2.78       |  85.6 | 15.99
Output  | 0          | 0          | 0          |   0.0 |  0.00
Modify  | 6.1353e-05 | 0.0083911  | 0.017872   |   4.3 |  0.15
Other   |            | 0.5895     |            |       | 10.78

Nlocal:        5552.90 ave        7909 max           0 min
Histogram: 4 2 2 0 2 6 4 0 15 17
Nghost:        6213.69 ave        8770 max         412 min
Histogram: 4 0 4 0 8 0 4 5 7 20
Neighs:       158427.0 ave      230556 max           0 min
Histogram: 4 2 2 0 5 3 4 4 12 16

Total # of neighbors = 8238193
Ave neighs/atom = 28.530440
Neighbor list builds = 0
Dangerous builds = 0
The dot product: 7.58957435115074e-08
Setting atom values ...
  1 settings made for x
  1 settings made for y
  1 settings made for z
Setting up cg style minimization ...
  Unit style    : metal
  Current step  : 3958
Per MPI rank memory allocation (min/avg/max) = 5.465 | 6.344 | 6.728 Mbytes
Step PotEng KinEng TotEng v_fx v_fy v_fz 
    3958   -1152448.8            0   -1152448.8  -0.01799794 -0.054791398 0.0018044833 
    4000   -1152448.8            0   -1152448.8 -5.6080376e-05 -0.00010828538 6.5411418e-06 
    4147   -1152448.8            0   -1152448.8 -1.7801672e-05 -4.6754671e-05 1.8942347e-06 
Loop time of 4.12012 on 52 procs for 189 steps with 288751 atoms

99.9% CPU use with 52 MPI tasks x 1 OpenMP threads

Minimization stats:
  Stopping criterion = linesearch alpha is zero
  Energy initial, next-to-last, final = 
     -1152448.84073503  -1152448.84280469  -1152448.84280469
  Force two-norm initial, final = 0.19750942 0.0001383027
  Force max component initial, final = 0.081569913 4.6754671e-05
  Final line search alpha, max atom move = 0.5 2.3377335e-05
  Iterations, force evaluations = 189 379

MPI task timing breakdown:
Section |  min time  |  avg time  |  max time  |%varavg| %total
---------------------------------------------------------------
Pair    | 1.0687     | 3.0112     | 3.9524     |  48.1 | 73.09
Neigh   | 0          | 0          | 0          |   0.0 |  0.00
Comm    | 0.050713   | 0.66042    | 2.0814     |  73.7 | 16.03
Output  | 0.00011731 | 0.00012108 | 0.00026492 |   0.0 |  0.00
Modify  | 5.1194e-05 | 0.0063086  | 0.013414   |   3.7 |  0.15
Other   |            | 0.442      |            |       | 10.73

Nlocal:        5552.90 ave        7909 max           0 min
Histogram: 4 2 2 0 2 6 4 0 15 17
Nghost:        6213.69 ave        8770 max         412 min
Histogram: 4 0 4 0 8 0 4 5 7 20
Neighs:       158427.0 ave      230555 max           0 min
Histogram: 4 2 2 0 5 3 4 4 12 16

Total # of neighbors = 8238191
Ave neighs/atom = 28.530433
Neighbor list builds = 0
Dangerous builds = 0
The dot product: -5.42696116252162e-07
Setting atom values ...
  1 settings made for x
  1 settings made for y
  1 settings made for z
Setting up cg style minimization ...
  Unit style    : metal
  Current step  : 4147
Per MPI rank memory allocation (min/avg/max) = 5.465 | 6.344 | 6.728 Mbytes
Step PotEng KinEng TotEng v_fx v_fy v_fz 
    4147   -1152448.8            0   -1152448.8 -0.022573805  -0.05729975 0.0039560032 
    4327   -1152448.8            0   -1152448.8 9.5350219e-06 3.2397255e-05 -1.7452964e-06 
Loop time of 3.91471 on 52 procs for 180 steps with 288751 atoms

99.9% CPU use with 52 MPI tasks x 1 OpenMP threads

Minimization stats:
  Stopping criterion = linesearch alpha is zero
  Energy initial, next-to-last, final = 
     -1152448.82445863  -1152448.82660815  -1152448.82660815
  Force two-norm initial, final = 0.20076644 0.00017705031
  Force max component initial, final = 0.085559721 4.4650622e-05
  Final line search alpha, max atom move = 0.25 1.1162655e-05
  Iterations, force evaluations = 180 363

MPI task timing breakdown:
Section |  min time  |  avg time  |  max time  |%varavg| %total
---------------------------------------------------------------
Pair    | 1.0228     | 2.878      | 3.7621     |  47.0 | 73.52
Neigh   | 0          | 0          | 0          |   0.0 |  0.00
Comm    | 0.049857   | 0.62916    | 2.0056     |  72.7 | 16.07
Output  | 0          | 0          | 0          |   0.0 |  0.00
Modify  | 4.4358e-05 | 0.0060399  | 0.012888   |   3.6 |  0.15
Other   |            | 0.4016     |            |       | 10.26

Nlocal:        5552.90 ave        7908 max           0 min
Histogram: 4 2 2 0 2 6 4 0 15 17
Nghost:        6213.65 ave        8770 max         412 min
Histogram: 4 0 4 0 8 0 4 5 7 20
Neighs:       158427.0 ave      230511 max           0 min
Histogram: 4 2 2 0 5 3 4 4 12 16

Total # of neighbors = 8238191
Ave neighs/atom = 28.530433
Neighbor list builds = 0
Dangerous builds = 0
The dot product: 3.08635478510943e-07
Setting atom values ...
  1 settings made for x
  1 settings made for y
  1 settings made for z
Setting up cg style minimization ...
  Unit style    : metal
  Current step  : 4327
Per MPI rank memory allocation (min/avg/max) = 5.465 | 6.344 | 6.728 Mbytes
Step PotEng KinEng TotEng v_fx v_fy v_fz 
    4327   -1152448.8            0   -1152448.8 -0.025319572 -0.059837732 0.0056792804 
    4509   -1152448.8            0   -1152448.8 1.5082522e-05 4.735108e-05 -3.7173979e-06 
Loop time of 3.95907 on 52 procs for 182 steps with 288751 atoms

99.9% CPU use with 52 MPI tasks x 1 OpenMP threads

Minimization stats:
  Stopping criterion = linesearch alpha is zero
  Energy initial, next-to-last, final = 
     -1152448.80697236  -1152448.80898674  -1152448.80898674
  Force two-norm initial, final = 0.20337092 0.00013278521
  Force max component initial, final = 0.088659526 4.7351080e-05
  Final line search alpha, max atom move = 0.5 2.3675540e-05
  Iterations, force evaluations = 182 365

MPI task timing breakdown:
Section |  min time  |  avg time  |  max time  |%varavg| %total
---------------------------------------------------------------
Pair    | 1.0305     | 2.908      | 3.7994     |  47.3 | 73.45
Neigh   | 0          | 0          | 0          |   0.0 |  0.00
Comm    | 0.051159   | 0.63497    | 2.0209     |  73.0 | 16.04
Output  | 0          | 0          | 0          |   0.0 |  0.00
Modify  | 4.9442e-05 | 0.0060724  | 0.012927   |   3.6 |  0.15
Other   |            | 0.41       |            |       | 10.36

Nlocal:        5552.90 ave        7908 max           0 min
Histogram: 4 2 2 0 2 6 4 0 15 17
Nghost:        6213.65 ave        8770 max         412 min
Histogram: 4 0 4 0 8 0 4 5 7 20
Neighs:       158427.0 ave      230523 max           0 min
Histogram: 4 2 2 0 5 3 4 4 12 16

Total # of neighbors = 8238191
Ave neighs/atom = 28.530433
Neighbor list builds = 0
Dangerous builds = 0
The dot product: 2.44012801096125e-07
Setting atom values ...
  1 settings made for x
  1 settings made for y
  1 settings made for z
Setting up cg style minimization ...
  Unit style    : metal
  Current step  : 4509
Per MPI rank memory allocation (min/avg/max) = 5.465 | 6.344 | 6.728 Mbytes
Step PotEng KinEng TotEng v_fx v_fy v_fz 
    4509   -1152448.8            0   -1152448.8 -0.028918359 -0.067061135 0.0071835031 
    4707   -1152448.8            0   -1152448.8 8.8640759e-06 2.6677038e-05 -2.4406675e-06 
Loop time of 4.2925 on 52 procs for 198 steps with 288751 atoms

99.9% CPU use with 52 MPI tasks x 1 OpenMP threads

Minimization stats:
  Stopping criterion = linesearch alpha is zero
  Energy initial, next-to-last, final = 
     -1152448.78796413  -1152448.78993034  -1152448.78993034
  Force two-norm initial, final = 0.20678848 7.6777804e-05
  Force max component initial, final = 0.090320647 2.6677038e-05
  Final line search alpha, max atom move = 0.5 1.3338519e-05
  Iterations, force evaluations = 198 397

MPI task timing breakdown:
Section |  min time  |  avg time  |  max time  |%varavg| %total
---------------------------------------------------------------
Pair    | 1.1192     | 3.1474     | 4.1167     |  49.2 | 73.32
Neigh   | 0          | 0          | 0          |   0.0 |  0.00
Comm    | 0.052327   | 0.68919    | 2.1989     |  76.0 | 16.06
Output  | 0          | 0          | 0          |   0.0 |  0.00
Modify  | 5.2219e-05 | 0.0066166  | 0.014021   |   3.8 |  0.15
Other   |            | 0.4492     |            |       | 10.47

Nlocal:        5552.90 ave        7906 max           0 min
Histogram: 4 2 2 0 2 6 4 0 15 17
Nghost:        6213.58 ave        8770 max         412 min
Histogram: 4 0 4 0 8 0 4 5 7 20
Neighs:       158427.0 ave      230461 max           0 min
Histogram: 4 2 2 0 5 3 4 4 12 16

Total # of neighbors = 8238191
Ave neighs/atom = 28.530433
Neighbor list builds = 0
Dangerous builds = 0
The dot product: 4.12744070166266e-08
Setting atom values ...
  1 settings made for x
  1 settings made for y
  1 settings made for z
Setting up cg style minimization ...
  Unit style    : metal
  Current step  : 4707
Per MPI rank memory allocation (min/avg/max) = 5.465 | 6.344 | 6.728 Mbytes
Step PotEng KinEng TotEng v_fx v_fy v_fz 
    4707   -1152448.8            0   -1152448.8 -0.032220651 -0.072999356 0.0081488645 
    4868   -1152448.8            0   -1152448.8 2.9301508e-06 8.1538224e-06 -8.0585574e-07 
Loop time of 3.49559 on 52 procs for 161 steps with 288751 atoms

99.9% CPU use with 52 MPI tasks x 1 OpenMP threads

Minimization stats:
  Stopping criterion = energy tolerance
  Energy initial, next-to-last, final = 
     -1152448.76747551  -1152448.76935969  -1152448.76935969
  Force two-norm initial, final = 0.20922495 0.000130529
  Force max component initial, final = 0.090753824 1.8157437e-05
  Final line search alpha, max atom move = 1.0000000 1.8157437e-05
  Iterations, force evaluations = 161 322

MPI task timing breakdown:
Section |  min time  |  avg time  |  max time  |%varavg| %total
---------------------------------------------------------------
Pair    | 0.90645    | 2.5677     | 3.3543     |  44.6 | 73.45
Neigh   | 0          | 0          | 0          |   0.0 |  0.00
Comm    | 0.044861   | 0.56535    | 1.7966     |  68.3 | 16.17
Output  | 0          | 0          | 0          |   0.0 |  0.00
Modify  | 4.3973e-05 | 0.0053611  | 0.011437   |   3.4 |  0.15
Other   |            | 0.3572     |            |       | 10.22

Nlocal:        5552.90 ave        7906 max           0 min
Histogram: 4 2 2 0 2 6 4 0 15 17
Nghost:        6213.60 ave        8769 max         412 min
Histogram: 4 0 4 0 8 0 4 5 7 20
Neighs:       158427.0 ave      230441 max           0 min
Histogram: 4 2 2 0 5 3 4 4 12 16

Total # of neighbors = 8238188
Ave neighs/atom = 28.530422
Neighbor list builds = 0
Dangerous builds = 0
The dot product: -1.60580028340713e-08
Setting atom values ...
  1 settings made for x
  1 settings made for y
  1 settings made for z
Setting up cg style minimization ...
  Unit style    : metal
  Current step  : 4868
Per MPI rank memory allocation (min/avg/max) = 5.465 | 6.344 | 6.728 Mbytes
Step PotEng KinEng TotEng v_fx v_fy v_fz 
    4868   -1152448.7            0   -1152448.7 -0.035666701 -0.078324132 0.0085759811 
    5000   -1152448.7            0   -1152448.7 8.7181861e-06 4.9822429e-05 -3.3494261e-06 
    5037   -1152448.7            0   -1152448.7 1.1441177e-05 2.9992836e-05 -2.9498623e-06 
Loop time of 3.67627 on 52 procs for 169 steps with 288751 atoms

99.9% CPU use with 52 MPI tasks x 1 OpenMP threads

Minimization stats:
  Stopping criterion = linesearch alpha is zero
  Energy initial, next-to-last, final = 
     -1152448.74540282  -1152448.74726129  -1152448.74726129
  Force two-norm initial, final = 0.21094168 9.6729632e-05
  Force max component initial, final = 0.090028989 3.2837700e-05
  Final line search alpha, max atom move = 0.5 1.6418850e-05
  Iterations, force evaluations = 169 339

MPI task timing breakdown:
Section |  min time  |  avg time  |  max time  |%varavg| %total
---------------------------------------------------------------
Pair    | 0.95729    | 2.6931     | 3.5249     |  45.5 | 73.26
Neigh   | 0          | 0          | 0          |   0.0 |  0.00
Comm    | 0.045234   | 0.59013    | 1.8617     |  69.7 | 16.05
Output  | 0.00020393 | 0.00020951 | 0.00037735 |   0.0 |  0.01
Modify  | 4.911e-05  | 0.0056533  | 0.012039   |   3.5 |  0.15
Other   |            | 0.3872     |            |       | 10.53

Nlocal:        5552.90 ave        7906 max           0 min
Histogram: 4 2 2 0 2 6 4 0 15 17
Nghost:        6213.60 ave        8768 max         412 min
Histogram: 4 0 4 0 8 0 4 5 7 20
Neighs:       158427.0 ave      230441 max           0 min
Histogram: 4 2 2 0 5 3 4 4 12 16

Total # of neighbors = 8238188
Ave neighs/atom = 28.530422
Neighbor list builds = 0
Dangerous builds = 0
The dot product: -1.28125093039018e-07
Setting atom values ...
  1 settings made for x
  1 settings made for y
  1 settings made for z
Setting up cg style minimization ...
  Unit style    : metal
  Current step  : 5037
Per MPI rank memory allocation (min/avg/max) = 5.465 | 6.344 | 6.728 Mbytes
Step PotEng KinEng TotEng v_fx v_fy v_fz 
    5037   -1152448.7            0   -1152448.7  -0.03753939 -0.081620064 0.0082971278 
    5200   -1152448.7            0   -1152448.7 -1.8123265e-05 -4.7317988e-05  4.28801e-06 
Loop time of 3.54061 on 52 procs for 163 steps with 288751 atoms

99.9% CPU use with 52 MPI tasks x 1 OpenMP threads

Minimization stats:
  Stopping criterion = linesearch alpha is zero
  Energy initial, next-to-last, final = 
     -1152448.72180935  -1152448.72364472  -1152448.72364472
  Force two-norm initial, final = 0.21130408 0.00012420185
  Force max component initial, final = 0.088525853 4.7317988e-05
  Final line search alpha, max atom move = 0.5 2.3658994e-05
  Iterations, force evaluations = 163 327

MPI task timing breakdown:
Section |  min time  |  avg time  |  max time  |%varavg| %total
---------------------------------------------------------------
Pair    | 0.92512    | 2.6082     | 3.3954     |  44.8 | 73.66
Neigh   | 0          | 0          | 0          |   0.0 |  0.00
Comm    | 0.043072   | 0.57719    | 1.8563     |  68.9 | 16.30
Output  | 0          | 0          | 0          |   0.0 |  0.00
Modify  | 4.511e-05  | 0.0054603  | 0.011591   |   3.4 |  0.15
Other   |            | 0.3498     |            |       |  9.88

Nlocal:        5552.90 ave        7906 max           0 min
Histogram: 4 2 2 0 2 6 4 0 15 17
Nghost:        6213.60 ave        8768 max         412 min
Histogram: 4 0 4 0 8 0 4 5 7 20
Neighs:       158427.0 ave      230411 max           0 min
Histogram: 4 2 2 0 5 3 4 4 12 16

Total # of neighbors = 8238185
Ave neighs/atom = 28.530412
Neighbor list builds = 0
Dangerous builds = 0
The dot product: 2.68480802572965e-07
Setting atom values ...
  1 settings made for x
  1 settings made for y
  1 settings made for z
Setting up cg style minimization ...
  Unit style    : metal
  Current step  : 5200
Per MPI rank memory allocation (min/avg/max) = 5.465 | 6.344 | 6.728 Mbytes
Step PotEng KinEng TotEng v_fx v_fy v_fz 
    5200   -1152448.7            0   -1152448.7 -0.037891548 -0.083750371 0.0075233706 
    5371   -1152448.7            0   -1152448.7 -5.0056354e-06 -1.3256063e-05 1.0567439e-06 
Loop time of 3.70685 on 52 procs for 171 steps with 288751 atoms

99.9% CPU use with 52 MPI tasks x 1 OpenMP threads

Minimization stats:
  Stopping criterion = energy tolerance
  Energy initial, next-to-last, final = 
     -1152448.69672006  -1152448.69852647  -1152448.69852647
  Force two-norm initial, final = 0.21081433 8.6526495e-05
  Force max component initial, final = 0.086611312 1.3256063e-05
  Final line search alpha, max atom move = 1.0000000 1.3256063e-05
  Iterations, force evaluations = 171 342

MPI task timing breakdown:
Section |  min time  |  avg time  |  max time  |%varavg| %total
---------------------------------------------------------------
Pair    | 0.96448    | 2.7203     | 3.5571     |  45.7 | 73.38
Neigh   | 0          | 0          | 0          |   0.0 |  0.00
Comm    | 0.047996   | 0.59624    | 1.8965     |  70.5 | 16.08
Output  | 0          | 0          | 0          |   0.0 |  0.00
Modify  | 4.3371e-05 | 0.0056914  | 0.012083   |   3.5 |  0.15
Other   |            | 0.3847     |            |       | 10.38

Nlocal:        5552.90 ave        7905 max           0 min
Histogram: 4 2 2 0 2 6 4 0 15 17
Nghost:        6213.62 ave        8768 max         412 min
Histogram: 4 0 4 0 8 0 4 5 7 20
Neighs:       158427.0 ave      230387 max           0 min
Histogram: 4 2 2 0 5 3 4 4 12 16

Total # of neighbors = 8238188
Ave neighs/atom = 28.530422
Neighbor list builds = 0
Dangerous builds = 0
The dot product: 8.71344776136e-08
Setting atom values ...
  1 settings made for x
  1 settings made for y
  1 settings made for z
Setting up cg style minimization ...
  Unit style    : metal
  Current step  : 5371
Per MPI rank memory allocation (min/avg/max) = 5.465 | 6.344 | 6.728 Mbytes
Step PotEng KinEng TotEng v_fx v_fy v_fz 
    5371   -1152448.7            0   -1152448.7 -0.036728031 -0.085041074  0.006396604 
    5536   -1152448.7            0   -1152448.7 -9.245085e-06 -2.0610026e-05 1.5937471e-06 
Loop time of 3.58397 on 52 procs for 165 steps with 288751 atoms

99.9% CPU use with 52 MPI tasks x 1 OpenMP threads

Minimization stats:
  Stopping criterion = linesearch alpha is zero
  Energy initial, next-to-last, final = 
     -1152448.67015967  -1152448.67192933  -1152448.67192933
  Force two-norm initial, final = 0.209572 0.00011460684
  Force max component initial, final = 0.085041074 2.0610026e-05
  Final line search alpha, max atom move = 0.5 1.0305013e-05
  Iterations, force evaluations = 165 331

MPI task timing breakdown:
Section |  min time  |  avg time  |  max time  |%varavg| %total
---------------------------------------------------------------
Pair    | 0.93612    | 2.6363     | 3.445      |  45.0 | 73.56
Neigh   | 0          | 0          | 0          |   0.0 |  0.00
Comm    | 0.046034   | 0.57497    | 1.8213     |  69.4 | 16.04
Output  | 0          | 0          | 0          |   0.0 |  0.00
Modify  | 4.7373e-05 | 0.0055171  | 0.011777   |   3.5 |  0.15
Other   |            | 0.3672     |            |       | 10.24

Nlocal:        5552.90 ave        7905 max           0 min
Histogram: 4 2 2 0 2 6 4 0 15 17
Nghost:        6213.63 ave        8768 max         412 min
Histogram: 4 0 4 0 8 0 4 5 7 20
Neighs:       158427.0 ave      230387 max           0 min
Histogram: 4 2 2 0 5 3 4 4 12 16

Total # of neighbors = 8238186
Ave neighs/atom = 28.530415
Neighbor list builds = 0
Dangerous builds = 0
The dot product: 1.56348432206208e-07
Setting atom values ...
  1 settings made for x
  1 settings made for y
  1 settings made for z
Setting up cg style minimization ...
  Unit style    : metal
  Current step  : 5536
Per MPI rank memory allocation (min/avg/max) = 5.465 | 6.344 | 6.728 Mbytes
Step PotEng KinEng TotEng v_fx v_fy v_fz 
    5536   -1152448.6            0   -1152448.6 -0.034040982  -0.08587977 0.0050243337 
    5686   -1152448.6            0   -1152448.6 -9.0637614e-06 -1.9617105e-05 1.2996401e-06 
Loop time of 3.23692 on 52 procs for 150 steps with 288751 atoms

99.9% CPU use with 52 MPI tasks x 1 OpenMP threads

Minimization stats:
  Stopping criterion = energy tolerance
  Energy initial, next-to-last, final = 
     -1152448.64215464  -1152448.64388216  -1152448.64388216
  Force two-norm initial, final = 0.20794827 0.00020835466
  Force max component initial, final = 0.08587977 4.8941882e-05
  Final line search alpha, max atom move = 1.0000000 4.8941882e-05
  Iterations, force evaluations = 150 300

MPI task timing breakdown:
Section |  min time  |  avg time  |  max time  |%varavg| %total
---------------------------------------------------------------
Pair    | 0.84575    | 2.3805     | 3.1103     |  42.8 | 73.54
Neigh   | 0          | 0          | 0          |   0.0 |  0.00
Comm    | 0.040592   | 0.52094    | 1.6669     |  66.1 | 16.09
Output  | 0          | 0          | 0          |   0.0 |  0.00
Modify  | 3.7312e-05 | 0.0050075  | 0.010628   |   3.3 |  0.15
Other   |            | 0.3305     |            |       | 10.21

Nlocal:        5552.90 ave        7905 max           0 min
Histogram: 4 2 2 0 2 6 4 1 14 17
Nghost:        6213.67 ave        8768 max         412 min
Histogram: 4 0 4 0 8 0 4 5 7 20
Neighs:       158427.0 ave      230389 max           0 min
Histogram: 4 2 2 0 5 3 4 4 12 16

Total # of neighbors = 8238188
Ave neighs/atom = 28.530422
Neighbor list builds = 0
Dangerous builds = 0
The dot product: 1.59733574103019e-07
Setting atom values ...
  1 settings made for x
  1 settings made for y
  1 settings made for z
Setting up cg style minimization ...
  Unit style    : metal
  Current step  : 5686
Per MPI rank memory allocation (min/avg/max) = 5.465 | 6.344 | 6.728 Mbytes
Step PotEng KinEng TotEng v_fx v_fy v_fz 
    5686   -1152448.6            0   -1152448.6 -0.029578871 -0.086401045 0.0034499582 
    5873   -1152448.6            0   -1152448.6 5.0810122e-06 1.1903092e-05 -5.8602796e-07 
Loop time of 4.0671 on 52 procs for 187 steps with 288751 atoms

99.9% CPU use with 52 MPI tasks x 1 OpenMP threads

Minimization stats:
  Stopping criterion = linesearch alpha is zero
  Energy initial, next-to-last, final = 
     -1152448.61273908  -1152448.61442247  -1152448.61442247
  Force two-norm initial, final = 0.20606956 5.6383915e-05
  Force max component initial, final = 0.086401045 1.1903092e-05
  Final line search alpha, max atom move = 0.5 5.9515460e-06
  Iterations, force evaluations = 187 375

MPI task timing breakdown:
Section |  min time  |  avg time  |  max time  |%varavg| %total
---------------------------------------------------------------
Pair    | 1.0581     | 2.9837     | 3.9048     |  47.9 | 73.36
Neigh   | 0          | 0          | 0          |   0.0 |  0.00
Comm    | 0.052238   | 0.65464    | 2.07       |  73.5 | 16.10
Output  | 0          | 0          | 0          |   0.0 |  0.00
Modify  | 5.0526e-05 | 0.0062374  | 0.013333   |   3.7 |  0.15
Other   |            | 0.4225     |            |       | 10.39

Nlocal:        5552.90 ave        7904 max           0 min
Histogram: 4 2 2 0 2 6 4 1 14 17
Nghost:        6213.63 ave        8768 max         412 min
Histogram: 4 0 4 0 8 0 4 5 7 20
Neighs:       158427.0 ave      230351 max           0 min
Histogram: 4 2 2 0 5 3 4 4 12 16

Total # of neighbors = 8238187
Ave neighs/atom = 28.530419
Neighbor list builds = 0
Dangerous builds = 0
The dot product: -9.99480238877096e-08
Setting atom values ...
  1 settings made for x
  1 settings made for y
  1 settings made for z
Setting up cg style minimization ...
  Unit style    : metal
  Current step  : 5873
Per MPI rank memory allocation (min/avg/max) = 5.465 | 6.344 | 6.728 Mbytes
Step PotEng KinEng TotEng v_fx v_fy v_fz 
    5873   -1152448.6            0   -1152448.6 -0.023701795 -0.086465045 0.0017569431 
    6000   -1152448.6            0   -1152448.6 0.00012915772 0.00028660112 -1.1053415e-05 
    6047   -1152448.6            0   -1152448.6 1.4216016e-05 2.9786266e-05 -1.2307165e-06 
Loop time of 3.75505 on 52 procs for 174 steps with 288751 atoms

99.9% CPU use with 52 MPI tasks x 1 OpenMP threads

Minimization stats:
  Stopping criterion = energy tolerance
  Energy initial, next-to-last, final = 
     -1152448.58196329  -1152448.58360404  -1152448.58360404
  Force two-norm initial, final = 0.20407756 9.8637348e-05
  Force max component initial, final = 0.086465045 2.9786266e-05
  Final line search alpha, max atom move = 1.0000000 2.9786266e-05
  Iterations, force evaluations = 174 348

MPI task timing breakdown:
Section |  min time  |  avg time  |  max time  |%varavg| %total
---------------------------------------------------------------
Pair    | 0.98268    | 2.7587     | 3.6085     |  46.0 | 73.47
Neigh   | 0          | 0          | 0          |   0.0 |  0.00
Comm    | 0.047864   | 0.6028     | 1.9145     |  70.9 | 16.05
Output  | 0.00011779 | 0.00012169 | 0.0002769  |   0.0 |  0.00
Modify  | 4.2029e-05 | 0.0058078  | 0.012323   |   3.6 |  0.15
Other   |            | 0.3876     |            |       | 10.32

Nlocal:        5552.90 ave        7904 max           0 min
Histogram: 4 2 2 0 2 6 4 1 14 17
Nghost:        6213.63 ave        8768 max         412 min
Histogram: 4 0 4 0 8 0 4 5 7 20
Neighs:       158427.0 ave      230369 max           0 min
Histogram: 4 2 2 0 5 3 4 4 12 16

Total # of neighbors = 8238187
Ave neighs/atom = 28.530419
Neighbor list builds = 0
Dangerous builds = 0
The dot product: -2.6934745912349e-07
Setting atom values ...
  1 settings made for x
  1 settings made for y
  1 settings made for z
Setting up cg style minimization ...
  Unit style    : metal
  Current step  : 6047
Per MPI rank memory allocation (min/avg/max) = 5.465 | 6.344 | 6.728 Mbytes
Step PotEng KinEng TotEng v_fx v_fy v_fz 
    6047   -1152448.5            0   -1152448.5  -0.01552123 -0.086661914 -0.00015817329 
    6251   -1152448.6            0   -1152448.6 2.3614058e-06 4.5534022e-06 -1.443276e-07 
Loop time of 4.44712 on 52 procs for 204 steps with 288751 atoms

99.9% CPU use with 52 MPI tasks x 1 OpenMP threads

Minimization stats:
  Stopping criterion = linesearch alpha is zero
  Energy initial, next-to-last, final = 
     -1152448.54995241  -1152448.55157918  -1152448.55157918
  Force two-norm initial, final = 0.20211687 5.2735924e-05
  Force max component initial, final = 0.088064635 4.5534022e-06
  Final line search alpha, max atom move = 0.5 2.2767011e-06
  Iterations, force evaluations = 204 409

MPI task timing breakdown:
Section |  min time  |  avg time  |  max time  |%varavg| %total
---------------------------------------------------------------
Pair    | 1.1543     | 3.2637     | 4.2626     |  50.2 | 73.39
Neigh   | 0          | 0          | 0          |   0.0 |  0.00
Comm    | 0.057976   | 0.71743    | 2.294      |  77.3 | 16.13
Output  | 0          | 0          | 0          |   0.0 |  0.00
Modify  | 5.7257e-05 | 0.0067968  | 0.014449   |   3.8 |  0.15
Other   |            | 0.4592     |            |       | 10.33

Nlocal:        5552.90 ave        7903 max           0 min
Histogram: 4 2 2 0 2 6 4 1 14 17
Nghost:        6213.50 ave        8768 max         412 min
Histogram: 4 0 4 0 8 0 4 5 7 20
Neighs:       158427.0 ave      230334 max           0 min
Histogram: 4 2 2 0 5 3 4 4 12 16

Total # of neighbors = 8238193
Ave neighs/atom = 28.530440
Neighbor list builds = 0
Dangerous builds = 0
The dot product: -4.90568709108062e-08
Setting atom values ...
  1 settings made for x
  1 settings made for y
  1 settings made for z
Setting up cg style minimization ...
  Unit style    : metal
  Current step  : 6251
Per MPI rank memory allocation (min/avg/max) = 5.465 | 6.344 | 6.728 Mbytes
Step PotEng KinEng TotEng v_fx v_fy v_fz 
    6251   -1152448.5            0   -1152448.5  0.012759341 -0.098760063 -0.0049573144 
    6525   -1152448.6            0   -1152448.6 -1.2480517e-05 -3.4303995e-05 2.0730115e-09 
Loop time of 5.94973 on 52 procs for 274 steps with 288751 atoms

99.9% CPU use with 52 MPI tasks x 1 OpenMP threads

Minimization stats:
  Stopping criterion = linesearch alpha is zero
  Energy initial, next-to-last, final = 
     -1152448.51718987  -1152448.61332133  -1152448.61332133
  Force two-norm initial, final = 0.20749962 0.00013297981
  Force max component initial, final = 0.098760063 3.4303995e-05
  Final line search alpha, max atom move = 0.5 1.7151997e-05
  Iterations, force evaluations = 274 549

MPI task timing breakdown:
Section |  min time  |  avg time  |  max time  |%varavg| %total
---------------------------------------------------------------
Pair    | 1.5713     | 4.3593     | 5.6915     |  57.5 | 73.27
Neigh   | 5.4558e-05 | 0.017169   | 0.025184   |   5.5 |  0.29
Comm    | 0.076762   | 0.9537     | 3.0142     |  88.7 | 16.03
Output  | 0          | 0          | 0          |   0.0 |  0.00
Modify  | 6.6352e-05 | 0.0091312  | 0.01938    |   4.5 |  0.15
Other   |            | 0.6104     |            |       | 10.26

Nlocal:        5552.90 ave        7906 max           0 min
Histogram: 4 2 2 0 2 6 4 1 14 17
Nghost:        6213.50 ave        8768 max         412 min
Histogram: 4 0 4 0 8 0 4 5 7 20
Neighs:       158427.0 ave      230394 max           0 min
Histogram: 4 2 2 0 5 3 4 4 12 16

Total # of neighbors = 8238190
Ave neighs/atom = 28.530429
Neighbor list builds = 3
Dangerous builds = 0
The dot product: 3.46151377708093e-06
Setting atom values ...
  1 settings made for x
  1 settings made for y
  1 settings made for z
Setting up cg style minimization ...
  Unit style    : metal
  Current step  : 6525
Per MPI rank memory allocation (min/avg/max) = 5.465 | 6.344 | 6.728 Mbytes
Step PotEng KinEng TotEng v_fx v_fy v_fz 
    6525   -1152448.6            0   -1152448.6  0.070016338  -0.14020627 -0.080152859 
    6813     -1152449            0     -1152449 2.5207411e-05 -1.0103268e-05 -1.5592733e-05 
Loop time of 6.33381 on 52 procs for 288 steps with 288751 atoms

99.9% CPU use with 52 MPI tasks x 1 OpenMP threads

Minimization stats:
  Stopping criterion = linesearch alpha is zero
  Energy initial, next-to-last, final = 
     -1152448.60700287   -1152449.0000203   -1152449.0000203
  Force two-norm initial, final = 0.22735396 0.00012990325
  Force max component initial, final = 0.14020627 3.5038307e-05
  Final line search alpha, max atom move = 0.5 1.7519154e-05
  Iterations, force evaluations = 288 576

MPI task timing breakdown:
Section |  min time  |  avg time  |  max time  |%varavg| %total
---------------------------------------------------------------
Pair    | 1.6779     | 4.6047     | 5.9956     |  58.5 | 72.70
Neigh   | 0.00010881 | 0.034381   | 0.050761   |   7.8 |  0.54
Comm    | 0.084348   | 1.0134     | 3.1992     |  90.8 | 16.00
Output  | 0          | 0          | 0          |   0.0 |  0.00
Modify  | 7.2948e-05 | 0.0095883  | 0.020345   |   4.6 |  0.15
Other   |            | 0.6717     |            |       | 10.61

Nlocal:        5552.90 ave        7918 max           0 min
Histogram: 4 2 2 0 2 6 4 1 14 17
Nghost:        6213.62 ave        8769 max         412 min
Histogram: 4 0 4 0 8 0 4 5 7 20
Neighs:       158427.0 ave      230820 max           0 min
Histogram: 4 2 2 0 5 3 4 4 12 16

Total # of neighbors = 8238211
Ave neighs/atom = 28.530502
Neighbor list builds = 6
Dangerous builds = 0
The dot product: 1.02700978912158e-05
Setting atom values ...
  1 settings made for x
  1 settings made for y
  1 settings made for z
Setting up cg style minimization ...
  Unit style    : metal
  Current step  : 6813
Per MPI rank memory allocation (min/avg/max) = 5.465 | 6.344 | 6.728 Mbytes
Step PotEng KinEng TotEng v_fx v_fy v_fz 
    6813     -1152449            0     -1152449   0.19218944    0.5582908    0.8052362 
    7000   -1152449.2            0   -1152449.2 0.00038320878 3.9206106e-05 -0.00023751085 
    7073   -1152449.2            0   -1152449.2 -3.4671036e-05 -5.9192361e-06 1.7418206e-05 
Loop time of 5.66527 on 52 procs for 260 steps with 288751 atoms

99.9% CPU use with 52 MPI tasks x 1 OpenMP threads

Minimization stats:
  Stopping criterion = linesearch alpha is zero
  Energy initial, next-to-last, final = 
      -1152449.0236698  -1152449.18112119  -1152449.18112119
  Force two-norm initial, final = 1.0102671 0.0001362006
  Force max component initial, final = 0.8052362 3.4671036e-05
  Final line search alpha, max atom move = 0.5 1.7335518e-05
  Iterations, force evaluations = 260 521

MPI task timing breakdown:
Section |  min time  |  avg time  |  max time  |%varavg| %total
---------------------------------------------------------------
Pair    | 1.4851     | 4.1389     | 5.4274     |  56.1 | 73.06
Neigh   | 3.6399e-05 | 0.011454   | 0.016888   |   4.5 |  0.20
Comm    | 0.074182   | 0.90681    | 2.8761     |  86.6 | 16.01
Output  | 0.00012084 | 0.00012517 | 0.00030202 |   0.0 |  0.00
Modify  | 6.4749e-05 | 0.0086707  | 0.018443   |   4.4 |  0.15
Other   |            | 0.5993     |            |       | 10.58

Nlocal:        5552.90 ave        7921 max           0 min
Histogram: 4 2 2 0 3 5 4 2 13 17
Nghost:        6213.50 ave        8770 max         412 min
Histogram: 4 0 4 0 8 0 4 5 7 20
Neighs:       158427.0 ave      230943 max           0 min
Histogram: 4 2 2 0 5 3 4 4 12 16

Total # of neighbors = 8238205
Ave neighs/atom = 28.530481
Neighbor list builds = 2
Dangerous builds = 0
The dot product: -1.0179984196907e-06
Setting atom values ...
  1 settings made for x
  1 settings made for y
  1 settings made for z
Setting up cg style minimization ...
  Unit style    : metal
  Current step  : 7073
Per MPI rank memory allocation (min/avg/max) = 5.465 | 6.344 | 6.728 Mbytes
Step PotEng KinEng TotEng v_fx v_fy v_fz 
    7073   -1152449.2            0   -1152449.2  -0.10212035   -0.3555073  -0.24575545 
    7329   -1152449.2            0   -1152449.2 1.6445033e-06 -5.2753656e-06 -5.844964e-06 
Loop time of 5.57427 on 52 procs for 256 steps with 288751 atoms

99.9% CPU use with 52 MPI tasks x 1 OpenMP threads

Minimization stats:
  Stopping criterion = energy tolerance
  Energy initial, next-to-last, final = 
     -1152449.20513789  -1152449.23076056  -1152449.23076056
  Force two-norm initial, final = 0.47495678 4.1193380e-05
  Force max component initial, final = 0.3555073 7.5847575e-06
  Final line search alpha, max atom move = 1.0000000 7.5847575e-06
  Iterations, force evaluations = 256 512

MPI task timing breakdown:
Section |  min time  |  avg time  |  max time  |%varavg| %total
---------------------------------------------------------------
Pair    | 1.4551     | 4.078      | 5.343      |  55.8 | 73.16
Neigh   | 1.8158e-05 | 0.0057465  | 0.0084454  |   3.2 |  0.10
Comm    | 0.06884    | 0.89713    | 2.8422     |  85.6 | 16.09
Output  | 0          | 0          | 0          |   0.0 |  0.00
Modify  | 6.9579e-05 | 0.0085493  | 0.018176   |   4.3 |  0.15
Other   |            | 0.5848     |            |       | 10.49

Nlocal:        5552.90 ave        7921 max           0 min
Histogram: 4 2 2 0 3 5 4 2 13 17
Nghost:        6213.58 ave        8771 max         412 min
Histogram: 4 0 4 0 8 0 4 5 7 20
Neighs:       158427.0 ave      230887 max           0 min
Histogram: 4 2 2 0 5 3 4 4 12 16

Total # of neighbors = 8238197
Ave neighs/atom = 28.530454
Neighbor list builds = 1
Dangerous builds = 0
The dot product: 7.89237463586386e-07
Setting atom values ...
  1 settings made for x
  1 settings made for y
  1 settings made for z
Setting up cg style minimization ...
  Unit style    : metal
  Current step  : 7329
Per MPI rank memory allocation (min/avg/max) = 5.465 | 6.344 | 6.728 Mbytes
Step PotEng KinEng TotEng v_fx v_fy v_fz 
    7329   -1152449.3            0   -1152449.3  0.038967676  0.072049537  0.052996189 
    7544   -1152449.3            0   -1152449.3 -1.3014487e-05 -4.4609945e-06 4.1351608e-06 
Loop time of 4.67527 on 52 procs for 215 steps with 288751 atoms

99.9% CPU use with 52 MPI tasks x 1 OpenMP threads

Minimization stats:
  Stopping criterion = linesearch alpha is zero
  Energy initial, next-to-last, final = 
     -1152449.25226394  -1152449.25669316  -1152449.25669316
  Force two-norm initial, final = 0.18623909 0.0001096949
  Force max component initial, final = 0.088012113 1.5097547e-05
  Final line search alpha, max atom move = 0.5 7.5487736e-06
  Iterations, force evaluations = 215 431

MPI task timing breakdown:
Section |  min time  |  avg time  |  max time  |%varavg| %total
---------------------------------------------------------------
Pair    | 1.2164     | 3.4233     | 4.4886     |  51.3 | 73.22
Neigh   | 0          | 0          | 0          |   0.0 |  0.00
Comm    | 0.060007   | 0.74908    | 2.3766     |  78.9 | 16.02
Output  | 0          | 0          | 0          |   0.0 |  0.00
Modify  | 5.3413e-05 | 0.0071821  | 0.015249   |   4.0 |  0.15
Other   |            | 0.4957     |            |       | 10.60

Nlocal:        5552.90 ave        7921 max           0 min
Histogram: 4 2 2 0 3 5 4 2 13 17
Nghost:        6213.58 ave        8770 max         412 min
Histogram: 4 0 4 0 8 0 4 5 7 20
Neighs:       158427.0 ave      230918 max           0 min
Histogram: 4 2 2 0 5 3 4 4 12 16

Total # of neighbors = 8238205
Ave neighs/atom = 28.530481
Neighbor list builds = 0
Dangerous builds = 0
The dot product: -2.85139867362487e-07
Setting atom values ...
  1 settings made for x
  1 settings made for y
  1 settings made for z
Setting up cg style minimization ...
  Unit style    : metal
  Current step  : 7544
Per MPI rank memory allocation (min/avg/max) = 5.465 | 6.344 | 6.728 Mbytes
Step PotEng KinEng TotEng v_fx v_fy v_fz 
    7544   -1152449.3            0   -1152449.3 -0.025863097 -0.059153773 -0.042974993 
    7705   -1152449.3            0   -1152449.3 -3.4892529e-05 -2.4039738e-05 -3.1527692e-07 
Loop time of 3.49468 on 52 procs for 161 steps with 288751 atoms

99.9% CPU use with 52 MPI tasks x 1 OpenMP threads

Minimization stats:
  Stopping criterion = energy tolerance
  Energy initial, next-to-last, final = 
      -1152449.2772689  -1152449.27887098  -1152449.27887098
  Force two-norm initial, final = 0.17881779 0.00023586079
  Force max component initial, final = 0.08920169 3.4992937e-05
  Final line search alpha, max atom move = 1.0000000 3.4992937e-05
  Iterations, force evaluations = 161 322

MPI task timing breakdown:
Section |  min time  |  avg time  |  max time  |%varavg| %total
---------------------------------------------------------------
Pair    | 0.90872    | 2.5661     | 3.3585     |  44.4 | 73.43
Neigh   | 0          | 0          | 0          |   0.0 |  0.00
Comm    | 0.044219   | 0.55987    | 1.7728     |  68.5 | 16.02
Output  | 0          | 0          | 0          |   0.0 |  0.00
Modify  | 4.7456e-05 | 0.0053636  | 0.011472   |   3.4 |  0.15
Other   |            | 0.3634     |            |       | 10.40

Nlocal:        5552.90 ave        7921 max           0 min
Histogram: 4 2 2 0 3 5 4 2 13 17
Nghost:        6213.58 ave        8770 max         412 min
Histogram: 4 0 4 0 8 0 4 5 7 20
Neighs:       158427.0 ave      230918 max           0 min
Histogram: 4 2 2 0 5 3 4 4 12 16

Total # of neighbors = 8238202
Ave neighs/atom = 28.530471
Neighbor list builds = 0
Dangerous builds = 0
The dot product: 3.5679508856045e-07
Setting atom values ...
  1 settings made for x
  1 settings made for y
  1 settings made for z
Setting up cg style minimization ...
  Unit style    : metal
  Current step  : 7705
Per MPI rank memory allocation (min/avg/max) = 5.465 | 6.344 | 6.728 Mbytes
Step PotEng KinEng TotEng v_fx v_fy v_fz 
    7705   -1152449.3            0   -1152449.3 -0.0029393329 -0.019635555 -0.018589725 
    7875   -1152449.3            0   -1152449.3 -3.8976444e-06 -3.2470341e-05 -3.1416095e-05 
Loop time of 3.72344 on 52 procs for 170 steps with 288751 atoms

99.9% CPU use with 52 MPI tasks x 1 OpenMP threads

Minimization stats:
  Stopping criterion = linesearch alpha is zero
[...]
Nghost:        6213.62 ave        8769 max         412 min
Histogram: 4 0 4 0 8 0 4 5 7 20
Neighs:       158427.0 ave      230773 max           0 min
Histogram: 4 2 2 0 5 3 4 4 12 16

Total # of neighbors = 8238190
Ave neighs/atom = 28.530429
Neighbor list builds = 0
Dangerous builds = 0
The dot product: -1.64982966398596e-08
Setting atom values ...
  1 settings made for x
  1 settings made for y
  1 settings made for z
Setting up cg style minimization ...
  Unit style    : metal
  Current step  : 16320
Per MPI rank memory allocation (min/avg/max) = 5.465 | 6.344 | 6.728 Mbytes
Step PotEng KinEng TotEng v_fx v_fy v_fz 
   16320   -1152449.3            0   -1152449.3  0.043096268  0.024137226 0.0019313726 
   16511   -1152449.3            0   -1152449.3 -6.6677815e-06 2.7098073e-06 9.3229239e-06 
Loop time of 4.17417 on 52 procs for 191 steps with 288751 atoms

99.9% CPU use with 52 MPI tasks x 1 OpenMP threads

Minimization stats:
  Stopping criterion = energy tolerance
  Energy initial, next-to-last, final = 
     -1152449.33240522  -1152449.33343439  -1152449.33343439
  Force two-norm initial, final = 0.14056117 9.4313945e-05
  Force max component initial, final = 0.058503725 9.6244562e-06
  Final line search alpha, max atom move = 1.0000000 9.6244562e-06
  Iterations, force evaluations = 191 382

MPI task timing breakdown:
Section |  min time  |  avg time  |  max time  |%varavg| %total
---------------------------------------------------------------
Pair    | 1.0823     | 3.0381     | 4.0069     |  48.3 | 72.78
Neigh   | 0          | 0          | 0          |   0.0 |  0.00
Comm    | 0.051779   | 0.67383    | 2.1227     |  73.3 | 16.14
Output  | 0          | 0          | 0          |   0.0 |  0.00
Modify  | 7.1198e-05 | 0.0063856  | 0.013556   |   3.7 |  0.15
Other   |            | 0.4558     |            |       | 10.92

Nlocal:        5552.90 ave        7916 max           0 min
Histogram: 4 2 2 0 2 6 4 2 13 17
Nghost:        6213.62 ave        8769 max         412 min
Histogram: 4 0 4 0 8 0 4 5 7 20
Neighs:       158427.0 ave      230731 max           0 min
Histogram: 4 2 2 0 5 3 4 4 12 16

Total # of neighbors = 8238191
Ave neighs/atom = 28.530433
Neighbor list builds = 0
Dangerous builds = 0
The dot product: -1.01239219711935e-08
Setting atom values ...
  1 settings made for x
  1 settings made for y
  1 settings made for z
Setting up cg style minimization ...
  Unit style    : metal
  Current step  : 16511
Per MPI rank memory allocation (min/avg/max) = 5.465 | 6.344 | 6.728 Mbytes
Step PotEng KinEng TotEng v_fx v_fy v_fz 
   16511   -1152449.3            0   -1152449.3  0.044069792  0.024377738 0.0013917587 
   16710   -1152449.3            0   -1152449.3 -6.3597406e-06 -8.4406343e-06 -7.5426858e-06 
Loop time of 4.36975 on 52 procs for 199 steps with 288751 atoms

99.9% CPU use with 52 MPI tasks x 1 OpenMP threads

Minimization stats:
  Stopping criterion = energy tolerance
  Energy initial, next-to-last, final = 
     -1152449.33896946  -1152449.34001336  -1152449.34001336
  Force two-norm initial, final = 0.14147073 7.5826277e-05
  Force max component initial, final = 0.060206527 9.8683230e-06
  Final line search alpha, max atom move = 1.0000000 9.8683230e-06
  Iterations, force evaluations = 199 398

MPI task timing breakdown:
Section |  min time  |  avg time  |  max time  |%varavg| %total
---------------------------------------------------------------
Pair    | 1.1259     | 3.167      | 4.2037     |  49.5 | 72.48
Neigh   | 0          | 0          | 0          |   0.0 |  0.00
Comm    | 0.052786   | 0.70344    | 2.1921     |  74.4 | 16.10
Output  | 0          | 0          | 0          |   0.0 |  0.00
Modify  | 6.6523e-05 | 0.0066459  | 0.014159   |   3.8 |  0.15
Other   |            | 0.4926     |            |       | 11.27

Nlocal:        5552.90 ave        7916 max           0 min
Histogram: 4 2 2 0 2 6 4 1 14 17
Nghost:        6213.62 ave        8769 max         412 min
Histogram: 4 0 4 0 8 0 4 5 7 20
Neighs:       158427.0 ave      230740 max           0 min
Histogram: 4 2 2 0 5 3 4 4 12 16

Total # of neighbors = 8238192
Ave neighs/atom = 28.530436
Neighbor list builds = 0
Dangerous builds = 0
The dot product: -3.16880304013293e-08
Setting atom values ...
  1 settings made for x
  1 settings made for y
  1 settings made for z
Setting up cg style minimization ...
  Unit style    : metal
  Current step  : 16710
Per MPI rank memory allocation (min/avg/max) = 5.465 | 6.344 | 6.728 Mbytes
Step PotEng KinEng TotEng v_fx v_fy v_fz 
   16710   -1152449.3            0   -1152449.3  0.044439817  0.023944547 0.00031872316 
   16851   -1152449.3            0   -1152449.3 -2.9990334e-05 -6.7130518e-05 -7.6147244e-05 
Loop time of 3.11743 on 52 procs for 141 steps with 288751 atoms

99.9% CPU use with 52 MPI tasks x 1 OpenMP threads

Minimization stats:
  Stopping criterion = energy tolerance
  Energy initial, next-to-last, final = 
     -1152449.34405437  -1152449.34511024  -1152449.34511024
  Force two-norm initial, final = 0.14200014 0.00035199543
  Force max component initial, final = 0.061854368 7.6147244e-05
  Final line search alpha, max atom move = 1.0000000 7.6147244e-05
  Iterations, force evaluations = 141 282

MPI task timing breakdown:
Section |  min time  |  avg time  |  max time  |%varavg| %total
---------------------------------------------------------------
Pair    | 0.79806    | 2.2476     | 2.9948     |  41.8 | 72.10
Neigh   | 0          | 0          | 0          |   0.0 |  0.00
Comm    | 0.038832   | 0.50264    | 1.5602     |  62.4 | 16.12
Output  | 0          | 0          | 0          |   0.0 |  0.00
Modify  | 5.0219e-05 | 0.0047372  | 0.010273   |   3.2 |  0.15
Other   |            | 0.3624     |            |       | 11.63

Nlocal:        5552.90 ave        7915 max           0 min
Histogram: 4 2 2 0 2 6 4 1 14 17
Nghost:        6213.62 ave        8769 max         412 min
Histogram: 4 0 4 0 8 0 4 5 7 20
Neighs:       158427.0 ave      230714 max           0 min
Histogram: 4 2 2 0 5 3 4 4 12 16

Total # of neighbors = 8238191
Ave neighs/atom = 28.530433
Neighbor list builds = 0
Dangerous builds = 0
The dot product: -2.03931034768973e-07
Setting atom values ...
  1 settings made for x
  1 settings made for y
  1 settings made for z
Setting up cg style minimization ...
  Unit style    : metal
  Current step  : 16851
Per MPI rank memory allocation (min/avg/max) = 5.465 | 6.344 | 6.728 Mbytes
Step PotEng KinEng TotEng v_fx v_fy v_fz 
   16851   -1152449.3            0   -1152449.3  0.044266164  0.022920743 -0.0012015412 
   17000   -1152449.3            0   -1152449.3 5.6496706e-06 -3.0573777e-05 -5.0000528e-05 
   17025   -1152449.3            0   -1152449.3 2.1514301e-05 4.9767885e-06 -9.7548734e-06 
Loop time of 3.81842 on 52 procs for 174 steps with 288751 atoms

99.9% CPU use with 52 MPI tasks x 1 OpenMP threads

Minimization stats:
  Stopping criterion = linesearch alpha is zero
  Energy initial, next-to-last, final = 
     -1152449.34766428   -1152449.3487318   -1152449.3487318
  Force two-norm initial, final = 0.14225566 0.00016027297
  Force max component initial, final = 0.06346326 2.5513538e-05
  Final line search alpha, max atom move = 0.25 6.3783846e-06
  Iterations, force evaluations = 174 351

MPI task timing breakdown:
Section |  min time  |  avg time  |  max time  |%varavg| %total
---------------------------------------------------------------
Pair    | 0.99662    | 2.7907     | 3.6718     |  46.2 | 73.08
Neigh   | 0          | 0          | 0          |   0.0 |  0.00
Comm    | 0.046217   | 0.61556    | 1.9424     |  70.6 | 16.12
Output  | 0.00011867 | 0.00012405 | 0.00035945 |   0.0 |  0.00
Modify  | 5.9866e-05 | 0.005875   | 0.012328   |   3.6 |  0.15
Other   |            | 0.4062     |            |       | 10.64

Nlocal:        5552.90 ave        7915 max           0 min
Histogram: 4 2 2 0 2 6 4 1 14 17
Nghost:        6213.54 ave        8769 max         412 min
Histogram: 4 0 4 0 8 0 4 5 7 20
Neighs:       158427.0 ave      230717 max           0 min
Histogram: 4 2 2 0 5 3 4 4 12 16

Total # of neighbors = 8238188
Ave neighs/atom = 28.530422
Neighbor list builds = 0
Dangerous builds = 0
The dot product: 6.22891996831394e-08
Setting atom values ...
  1 settings made for x
  1 settings made for y
  1 settings made for z
Setting up cg style minimization ...
  Unit style    : metal
  Current step  : 17025
Per MPI rank memory allocation (min/avg/max) = 5.465 | 6.344 | 6.728 Mbytes
Step PotEng KinEng TotEng v_fx v_fy v_fz 
   17025   -1152449.3            0   -1152449.3  0.043840796  0.021684459 -0.002830887 
   17213   -1152449.4            0   -1152449.4 1.3521558e-05 1.7812138e-05 1.5660758e-05 
Loop time of 4.13425 on 52 procs for 188 steps with 288751 atoms

99.9% CPU use with 52 MPI tasks x 1 OpenMP threads

Minimization stats:
  Stopping criterion = linesearch alpha is zero
  Energy initial, next-to-last, final = 
     -1152449.34980612  -1152449.35088257  -1152449.35088257
  Force two-norm initial, final = 0.1424315 0.00010097463
  Force max component initial, final = 0.065024203 1.7812138e-05
  Final line search alpha, max atom move = 0.5 8.9060688e-06
  Iterations, force evaluations = 188 377

MPI task timing breakdown:
Section |  min time  |  avg time  |  max time  |%varavg| %total
---------------------------------------------------------------
Pair    | 1.0634     | 2.9982     | 3.9754     |  48.2 | 72.52
Neigh   | 0          | 0          | 0          |   0.0 |  0.00
Comm    | 0.049432   | 0.67142    | 2.0956     |  72.2 | 16.24
Output  | 0          | 0          | 0          |   0.0 |  0.00
Modify  | 6.4153e-05 | 0.0062898  | 0.013505   |   3.7 |  0.15
Other   |            | 0.4584     |            |       | 11.09

Nlocal:        5552.90 ave        7914 max           0 min
Histogram: 4 2 2 0 2 6 4 1 14 17
Nghost:        6213.54 ave        8769 max         412 min
Histogram: 4 0 4 0 8 0 4 5 7 20
Neighs:       158427.0 ave      230694 max           0 min
Histogram: 4 2 2 0 5 3 4 4 12 16

Total # of neighbors = 8238188
Ave neighs/atom = 28.530422
Neighbor list builds = 0
Dangerous builds = 0
The dot product: 6.55362054766707e-08
Setting atom values ...
  1 settings made for x
  1 settings made for y
  1 settings made for z
Setting up cg style minimization ...
  Unit style    : metal
  Current step  : 17213
Per MPI rank memory allocation (min/avg/max) = 5.465 | 6.344 | 6.728 Mbytes
Step PotEng KinEng TotEng v_fx v_fy v_fz 
   17213   -1152449.4            0   -1152449.4   0.04330701    0.0204046 -0.0044290643 
   17403   -1152449.4            0   -1152449.4 3.7078823e-06 4.058922e-06 3.0534411e-06 
Loop time of 4.1919 on 52 procs for 190 steps with 288751 atoms

99.9% CPU use with 52 MPI tasks x 1 OpenMP threads

Minimization stats:
  Stopping criterion = linesearch alpha is zero
  Energy initial, next-to-last, final = 
     -1152449.35049014  -1152449.35157276  -1152449.35157276
  Force two-norm initial, final = 0.14246883 9.3676244e-05
  Force max component initial, final = 0.066498766 6.3268667e-06
  Final line search alpha, max atom move = 0.5 3.1634333e-06
  Iterations, force evaluations = 190 381

MPI task timing breakdown:
Section |  min time  |  avg time  |  max time  |%varavg| %total
---------------------------------------------------------------
Pair    | 1.0777     | 3.03       | 4.0099     |  48.3 | 72.28
Neigh   | 0          | 0          | 0          |   0.0 |  0.00
Comm    | 0.050509   | 0.66994    | 2.0963     |  73.1 | 15.98
Output  | 0          | 0          | 0          |   0.0 |  0.00
Modify  | 6.4695e-05 | 0.0063652  | 0.013471   |   3.7 |  0.15
Other   |            | 0.4856     |            |       | 11.59

Nlocal:        5552.90 ave        7914 max           0 min
Histogram: 4 2 2 0 2 6 4 1 14 17
Nghost:        6213.54 ave        8769 max         412 min
Histogram: 4 0 4 0 8 0 4 5 7 20
Neighs:       158427.0 ave      230695 max           0 min
Histogram: 4 2 2 0 5 3 4 4 12 16

Total # of neighbors = 8238190
Ave neighs/atom = 28.530429
Neighbor list builds = 0
Dangerous builds = 0
The dot product: 1.58807999242218e-08
Setting atom values ...
  1 settings made for x
  1 settings made for y
  1 settings made for z
Setting up cg style minimization ...
  Unit style    : metal
  Current step  : 17403
Per MPI rank memory allocation (min/avg/max) = 5.465 | 6.344 | 6.728 Mbytes
Step PotEng KinEng TotEng v_fx v_fy v_fz 
   17403   -1152449.3            0   -1152449.3  0.043172778  0.019613475 -0.0056142953 
   17565   -1152449.4            0   -1152449.4 -3.3817266e-05 -1.311893e-05 7.7268685e-06 
Loop time of 3.56673 on 52 procs for 162 steps with 288751 atoms

99.9% CPU use with 52 MPI tasks x 1 OpenMP threads

Minimization stats:
  Stopping criterion = energy tolerance
  Energy initial, next-to-last, final = 
     -1152449.34974723  -1152449.35083353  -1152449.35083353
  Force two-norm initial, final = 0.14251099 0.00024060843
  Force max component initial, final = 0.06794723 3.3817266e-05
  Final line search alpha, max atom move = 1.0000000 3.3817266e-05
  Iterations, force evaluations = 162 324

MPI task timing breakdown:
Section |  min time  |  avg time  |  max time  |%varavg| %total
---------------------------------------------------------------
Pair    | 0.91656    | 2.5833     | 3.4099     |  44.6 | 72.43
Neigh   | 0          | 0          | 0          |   0.0 |  0.00
Comm    | 0.041802   | 0.57926    | 1.8103     |  67.6 | 16.24
Output  | 0          | 0          | 0          |   0.0 |  0.00
Modify  | 5.4403e-05 | 0.0054057  | 0.011513   |   3.4 |  0.15
Other   |            | 0.3987     |            |       | 11.18

Nlocal:        5552.90 ave        7912 max           0 min
Histogram: 4 2 2 0 2 6 4 0 15 17
Nghost:        6213.58 ave        8769 max         412 min
Histogram: 4 0 4 0 8 0 4 5 7 20
Neighs:       158427.0 ave      230634 max           0 min
Histogram: 4 2 2 0 5 3 4 4 12 16

Total # of neighbors = 8238196
Ave neighs/atom = 28.530450
Neighbor list builds = 0
Dangerous builds = 0
The dot product: -1.07608139126021e-07
Setting atom values ...
  1 settings made for x
  1 settings made for y
  1 settings made for z
Setting up cg style minimization ...
  Unit style    : metal
  Current step  : 17565
Per MPI rank memory allocation (min/avg/max) = 5.465 | 6.344 | 6.728 Mbytes
Step PotEng KinEng TotEng v_fx v_fy v_fz 
   17565   -1152449.3            0   -1152449.3  0.043926646  0.019960077 -0.0058272596 
   17740   -1152449.3            0   -1152449.3 7.6071673e-06 -6.2973802e-06 -1.5465559e-05 
Loop time of 3.8377 on 52 procs for 175 steps with 288751 atoms

99.9% CPU use with 52 MPI tasks x 1 OpenMP threads

Minimization stats:
  Stopping criterion = linesearch alpha is zero
  Energy initial, next-to-last, final = 
     -1152449.34765677  -1152449.34874913  -1152449.34874913
  Force two-norm initial, final = 0.14274686 0.00015203899
  Force max component initial, final = 0.069347773 2.4051644e-05
  Final line search alpha, max atom move = 0.5 1.2025822e-05
  Iterations, force evaluations = 175 351

MPI task timing breakdown:
Section |  min time  |  avg time  |  max time  |%varavg| %total
---------------------------------------------------------------
Pair    | 0.99402    | 2.7913     | 3.6849     |  46.3 | 72.73
Neigh   | 0          | 0          | 0          |   0.0 |  0.00
Comm    | 0.047364   | 0.61369    | 1.9384     |  70.5 | 15.99
Output  | 0          | 0          | 0          |   0.0 |  0.00
Modify  | 6.0225e-05 | 0.0058678  | 0.01254    |   3.6 |  0.15
Other   |            | 0.4269     |            |       | 11.12

Nlocal:        5552.90 ave        7909 max           0 min
Histogram: 4 2 2 0 2 6 4 0 15 17
Nghost:        6213.58 ave        8769 max         412 min
Histogram: 4 0 4 0 8 0 4 5 7 20
Neighs:       158427.0 ave      230547 max           0 min
Histogram: 4 2 2 0 5 3 4 4 12 16

Total # of neighbors = 8238193
Ave neighs/atom = 28.530440
Neighbor list builds = 0
Dangerous builds = 0
The dot product: 9.66679769947624e-09
Setting atom values ...
  1 settings made for x
  1 settings made for y
  1 settings made for z
Setting up cg style minimization ...
  Unit style    : metal
  Current step  : 17740
Per MPI rank memory allocation (min/avg/max) = 5.465 | 6.344 | 6.728 Mbytes
Step PotEng KinEng TotEng v_fx v_fy v_fz 
   17740   -1152449.3            0   -1152449.3   0.04632277  0.022268869 -0.0044775867 
   17913   -1152449.3            0   -1152449.3 7.668994e-06 2.2506416e-06 -2.8675434e-06 
Loop time of 3.80758 on 52 procs for 173 steps with 288751 atoms

99.9% CPU use with 52 MPI tasks x 1 OpenMP threads

Minimization stats:
  Stopping criterion = energy tolerance
  Energy initial, next-to-last, final = 
     -1152449.34440139  -1152449.34553336  -1152449.34553336
  Force two-norm initial, final = 0.14411393 0.00012754645
  Force max component initial, final = 0.070679218 1.8960682e-05
  Final line search alpha, max atom move = 1.0000000 1.8960682e-05
  Iterations, force evaluations = 173 346

MPI task timing breakdown:
Section |  min time  |  avg time  |  max time  |%varavg| %total
---------------------------------------------------------------
Pair    | 0.97785    | 2.7532     | 3.6418     |  46.1 | 72.31
Neigh   | 0          | 0          | 0          |   0.0 |  0.00
Comm    | 0.045384   | 0.61584    | 1.92       |  69.2 | 16.17
Output  | 0          | 0          | 0          |   0.0 |  0.00
Modify  | 5.8404e-05 | 0.0057746  | 0.012247   |   3.5 |  0.15
Other   |            | 0.4327     |            |       | 11.37

Nlocal:        5552.90 ave        7908 max           0 min
Histogram: 4 2 2 0 2 6 4 0 15 17
Nghost:        6213.58 ave        8769 max         412 min
Histogram: 4 0 4 0 8 0 4 5 7 20
Neighs:       158427.0 ave      230523 max           0 min
Histogram: 4 2 2 0 5 3 4 4 12 16

Total # of neighbors = 8238193
Ave neighs/atom = 28.530440
Neighbor list builds = 0
Dangerous builds = 0
The dot product: 3.28748841426519e-08
Setting atom values ...
  1 settings made for x
  1 settings made for y
  1 settings made for z
Setting up cg style minimization ...
  Unit style    : metal
  Current step  : 17913
Per MPI rank memory allocation (min/avg/max) = 5.465 | 6.344 | 6.728 Mbytes
Step PotEng KinEng TotEng v_fx v_fy v_fz 
   17913   -1152449.3            0   -1152449.3  0.051328279  0.027870658 -0.00044381598 
   18000   -1152449.3            0   -1152449.3 0.00033708019 0.0015231742 0.0019779119 
   18168   -1152449.3            0   -1152449.3 1.2370659e-05 8.6757718e-06 2.7880547e-06 
Loop time of 5.57958 on 52 procs for 255 steps with 288751 atoms

99.9% CPU use with 52 MPI tasks x 1 OpenMP threads

Minimization stats:
  Stopping criterion = energy tolerance
  Energy initial, next-to-last, final = 
     -1152449.34044733  -1152449.34921582  -1152449.34921582
  Force two-norm initial, final = 0.14972585 0.0001409138
  Force max component initial, final = 0.071940829 2.1618312e-05
  Final line search alpha, max atom move = 1.0000000 2.1618312e-05
  Iterations, force evaluations = 255 510

MPI task timing breakdown:
Section |  min time  |  avg time  |  max time  |%varavg| %total
---------------------------------------------------------------
Pair    | 1.4491     | 4.0554     | 5.3495     |  55.7 | 72.68
Neigh   | 1.9046e-05 | 0.0057212  | 0.0084406  |   3.2 |  0.10
Comm    | 0.068838   | 0.89513    | 2.808      |  84.8 | 16.04
Output  | 0.00011905 | 0.00012377 | 0.00031146 |   0.0 |  0.00
Modify  | 8.3538e-05 | 0.0084981  | 0.018062   |   4.3 |  0.15
Other   |            | 0.6147     |            |       | 11.02

Nlocal:        5552.90 ave        7905 max           0 min
Histogram: 4 2 2 0 2 6 4 0 15 17
Nghost:        6213.58 ave        8769 max         412 min
Histogram: 4 0 4 0 8 0 4 5 7 20
Neighs:       158427.0 ave      230404 max           0 min
Histogram: 4 2 2 0 5 3 4 4 12 16

Total # of neighbors = 8238209
Ave neighs/atom = 28.530495
Neighbor list builds = 1
Dangerous builds = 0
The dot product: 1.23407841767952e-06
