LAMMPS (29 Oct 2020)
OMP_NUM_THREADS environment is not set. Defaulting to 1 thread. (../comm.cpp:94)
  using 1 OpenMP thread(s) per MPI task
OMP_NUM_THREADS environment is not set. Defaulting to 1 thread. (../comm.cpp:94)
  using 1 OpenMP thread(s) per MPI task
Reading data file ...
  orthogonal box = (-122.39241 -121.13707 -37.090501) to (122.39241 121.13707 37.090501)
  13 by 4 by 2 MPI processor grid
  reading atoms ...
  288751 atoms
  read_data CPU = 0.369 seconds
199981 atoms in group inner
88770 atoms in group outer
1 atoms in group carbon
Neighbor list info ...
  update every 1 steps, delay 0 steps, check yes
  max neighbors/atom: 2000, page size: 100000
  master list distance cutoff = 5.6
  ghost atom cutoff = 5.6
  binsize = 2.8, bins = 88 87 27
  1 neighbor lists, perpetual/occasional/extra = 1 0 0
  (1) pair eam/alloy, perpetual
      attributes: half, newton on
      pair build: half/bin/atomonly/newton
      stencil: half/bin/3d/newton
      bin: standard
Setting up cg style minimization ...
  Unit style    : metal
  Current step  : 0
Per MPI rank memory allocation (min/avg/max) = 5.441 | 5.816 | 6.074 Mbytes
Step v_fx v_fy v_fz PotEng KinEng TotEng 
       0    1.4758208   -1.1120033    2.4871044   -1152447.8            0   -1152447.8 
     205 1.5701323e-06 -2.5965578e-06 4.2397552e-06   -1152449.5            0   -1152449.5 
Loop time of 2.44587 on 104 procs for 205 steps with 288751 atoms

99.8% CPU use with 104 MPI tasks x 1 OpenMP threads

Minimization stats:
  Stopping criterion = energy tolerance
  Energy initial, next-to-last, final = 
     -1152447.78930168  -1152449.45035272  -1152449.45035272
  Force two-norm initial, final = 10.123863 1.5613796e-05
  Force max component initial, final = 4.5268643 4.5576978e-06
  Final line search alpha, max atom move = 1.0000000 4.5576978e-06
  Iterations, force evaluations = 205 409

MPI task timing breakdown:
Section |  min time  |  avg time  |  max time  |%varavg| %total
---------------------------------------------------------------
Pair    | 0.6402     | 1.7281     | 2.2409     |  35.1 | 70.65
Neigh   | 3.342e-05  | 0.0087607  | 0.012972   |   3.9 |  0.36
Comm    | 0.04214    | 0.39497    | 1.1633     |  50.8 | 16.15
Output  | 0          | 0          | 0          |   0.0 |  0.00
Modify  | 2.4618e-05 | 0.0022116  | 0.0056334  |   2.9 |  0.09
Other   |            | 0.3118     |            |       | 12.75

Nlocal:        2776.45 ave        3961 max           0 min
Histogram: 8 4 4 0 6 10 8 2 28 34
Nghost:        3879.01 ave        5424 max         232 min
Histogram: 8 0 8 0 16 0 8 8 16 40
Neighs:        79213.5 ave      115455 max           0 min
Histogram: 8 4 4 0 10 6 8 8 24 32

Total # of neighbors = 8238207
Ave neighs/atom = 28.530488
Neighbor list builds = 3
Dangerous builds = 1
Setting atom values ...
  1 settings made for x
  1 settings made for y
  1 settings made for z
Setting up cg style minimization ...
  Unit style    : metal
  Current step  : 205
Per MPI rank memory allocation (min/avg/max) = 5.441 | 5.816 | 6.074 Mbytes
Step PotEng KinEng TotEng v_fx v_fy v_fz 
     205   -1152449.4            0   -1152449.4  -0.01740427 0.0075710534 -0.019221902 
     322   -1152449.5            0   -1152449.5 2.5577061e-05 -8.8068138e-06 3.565381e-05 
Loop time of 1.41578 on 104 procs for 117 steps with 288751 atoms

99.8% CPU use with 104 MPI tasks x 1 OpenMP threads

Minimization stats:
  Stopping criterion = energy tolerance
  Energy initial, next-to-last, final = 
     -1152449.44953742  -1152449.45002977  -1152449.45002977
  Force two-norm initial, final = 0.10019598 0.00019045494
  Force max component initial, final = 0.050908709 4.7718212e-05
  Final line search alpha, max atom move = 1.0000000 4.7718212e-05
  Iterations, force evaluations = 117 234

MPI task timing breakdown:
Section |  min time  |  avg time  |  max time  |%varavg| %total
---------------------------------------------------------------
Pair    | 0.3595     | 0.99546    | 1.3024     |  26.9 | 70.31
Neigh   | 0          | 0          | 0          |   0.0 |  0.00
Comm    | 0.026217   | 0.22876    | 0.67151    |  38.4 | 16.16
Output  | 0          | 0          | 0          |   0.0 |  0.00
Modify  | 1.5331e-05 | 0.0019361  | 0.0041336  |   2.1 |  0.14
Other   |            | 0.1896     |            |       | 13.39

Nlocal:        2776.45 ave        3961 max           0 min
Histogram: 8 4 4 0 6 10 8 2 28 34
Nghost:        3879.01 ave        5424 max         232 min
Histogram: 8 0 8 0 16 0 8 8 16 40
Neighs:        79213.4 ave      115457 max           0 min
Histogram: 8 4 4 0 10 6 8 8 24 32

Total # of neighbors = 8238197
Ave neighs/atom = 28.530454
Neighbor list builds = 0
Dangerous builds = 0
Setting atom values ...
  1 settings made for x
  1 settings made for y
  1 settings made for z
Setting up cg style minimization ...
  Unit style    : metal
  Current step  : 322
Per MPI rank memory allocation (min/avg/max) = 5.441 | 5.816 | 6.074 Mbytes
Step PotEng KinEng TotEng v_fx v_fy v_fz 
     322   -1152449.4            0   -1152449.4 -0.025073777  0.016340853 -0.024508286 
     538   -1152449.4            0   -1152449.4 -4.8194196e-06 4.6205757e-06 2.0097332e-06 
Loop time of 2.54049 on 104 procs for 216 steps with 288751 atoms

99.9% CPU use with 104 MPI tasks x 1 OpenMP threads

Minimization stats:
  Stopping criterion = energy tolerance
  Energy initial, next-to-last, final = 
     -1152449.44684088   -1152449.4481267   -1152449.4481267
  Force two-norm initial, final = 0.16020353 2.7019103e-05
  Force max component initial, final = 0.090298201 4.8194196e-06
  Final line search alpha, max atom move = 1.0000000 4.8194196e-06
  Iterations, force evaluations = 216 432

MPI task timing breakdown:
Section |  min time  |  avg time  |  max time  |%varavg| %total
---------------------------------------------------------------
Pair    | 0.6555     | 1.8198     | 2.3659     |  36.4 | 71.63
Neigh   | 0          | 0          | 0          |   0.0 |  0.00
Comm    | 0.039773   | 0.41138    | 1.2287     |  53.0 | 16.19
Output  | 0          | 0          | 0          |   0.0 |  0.00
Modify  | 2.695e-05  | 0.0035808  | 0.0075973  |   2.8 |  0.14
Other   |            | 0.3057     |            |       | 12.03

Nlocal:        2776.45 ave        3961 max           0 min
Histogram: 8 4 4 0 6 10 8 2 28 34
Nghost:        3879.01 ave        5424 max         232 min
Histogram: 8 0 8 0 16 0 8 8 16 40
Neighs:        79213.4 ave      115457 max           0 min
Histogram: 8 4 4 0 10 6 8 8 24 32

Total # of neighbors = 8238196
Ave neighs/atom = 28.530450
Neighbor list builds = 0
Dangerous builds = 0
The dot product: 6.57939048097778e-09
Setting atom values ...
  1 settings made for x
  1 settings made for y
  1 settings made for z
Setting up cg style minimization ...
  Unit style    : metal
  Current step  : 538
Per MPI rank memory allocation (min/avg/max) = 5.441 | 5.816 | 6.074 Mbytes
Step PotEng KinEng TotEng v_fx v_fy v_fz 
     538   -1152449.4            0   -1152449.4 -0.021937084  0.018269498 -0.015701753 
     683   -1152449.4            0   -1152449.4 7.7925963e-06 -6.8435053e-06 3.4098016e-06 
Loop time of 1.74083 on 104 procs for 145 steps with 288751 atoms

99.9% CPU use with 104 MPI tasks x 1 OpenMP threads

Minimization stats:
  Stopping criterion = energy tolerance
  Energy initial, next-to-last, final = 
     -1152449.44335722   -1152449.4446054   -1152449.4446054
  Force two-norm initial, final = 0.15619351 4.2901888e-05
  Force max component initial, final = 0.094808589 1.0564140e-05
  Final line search alpha, max atom move = 1.0000000 1.0564140e-05
  Iterations, force evaluations = 145 290

MPI task timing breakdown:
Section |  min time  |  avg time  |  max time  |%varavg| %total
---------------------------------------------------------------
Pair    | 0.44618    | 1.2283     | 1.6063     |  29.8 | 70.56
Neigh   | 0          | 0          | 0          |   0.0 |  0.00
Comm    | 0.036699   | 0.28165    | 0.83529    |  43.1 | 16.18
Output  | 0          | 0          | 0          |   0.0 |  0.00
Modify  | 1.7736e-05 | 0.002401   | 0.0051383  |   2.3 |  0.14
Other   |            | 0.2285     |            |       | 13.13

Nlocal:        2776.45 ave        3961 max           0 min
Histogram: 8 4 4 0 6 10 8 2 28 34
Nghost:        3879.01 ave        5424 max         232 min
Histogram: 8 0 8 0 16 0 8 8 16 40
Neighs:        79213.4 ave      115457 max           0 min
Histogram: 8 4 4 0 10 6 8 8 24 32

Total # of neighbors = 8238195
Ave neighs/atom = 28.530447
Neighbor list builds = 0
Dangerous builds = 0
The dot product: -2.27841861302708e-08
Setting atom values ...
  1 settings made for x
  1 settings made for y
  1 settings made for z
Setting up cg style minimization ...
  Unit style    : metal
  Current step  : 683
Per MPI rank memory allocation (min/avg/max) = 5.441 | 5.816 | 6.074 Mbytes
Step PotEng KinEng TotEng v_fx v_fy v_fz 
     683   -1152449.4            0   -1152449.4 -0.019164857  0.018405608 -0.0081566511 
     797   -1152449.4            0   -1152449.4 -1.6893193e-06 -1.1587369e-06 -1.9983393e-05 
Loop time of 1.34018 on 104 procs for 114 steps with 288751 atoms

99.9% CPU use with 104 MPI tasks x 1 OpenMP threads

Minimization stats:
  Stopping criterion = energy tolerance
  Energy initial, next-to-last, final = 
     -1152449.43830561  -1152449.43953302  -1152449.43953302
  Force two-norm initial, final = 0.15368034 0.00018107487
  Force max component initial, final = 0.098445703 1.9983393e-05
  Final line search alpha, max atom move = 1.0000000 1.9983393e-05
  Iterations, force evaluations = 114 228

MPI task timing breakdown:
Section |  min time  |  avg time  |  max time  |%varavg| %total
---------------------------------------------------------------
Pair    | 0.34638    | 0.95986    | 1.2464     |  26.3 | 71.62
Neigh   | 0          | 0          | 0          |   0.0 |  0.00
Comm    | 0.022233   | 0.2166     | 0.65118    |  38.7 | 16.16
Output  | 0          | 0          | 0          |   0.0 |  0.00
Modify  | 1.4187e-05 | 0.0018866  | 0.0040398  |   2.0 |  0.14
Other   |            | 0.1618     |            |       | 12.08

Nlocal:        2776.45 ave        3961 max           0 min
Histogram: 8 4 4 0 6 10 8 2 28 34
Nghost:        3879.01 ave        5424 max         232 min
Histogram: 8 0 8 0 16 0 8 8 16 40
Neighs:        79213.4 ave      115457 max           0 min
Histogram: 8 4 4 0 10 6 8 8 24 32

Total # of neighbors = 8238194
Ave neighs/atom = 28.530443
Neighbor list builds = 0
Dangerous builds = 0
The dot product: 7.03339396140331e-10
Setting atom values ...
  1 settings made for x
  1 settings made for y
  1 settings made for z
Setting up cg style minimization ...
  Unit style    : metal
  Current step  : 797
Per MPI rank memory allocation (min/avg/max) = 5.441 | 5.816 | 6.074 Mbytes
Step PotEng KinEng TotEng v_fx v_fy v_fz 
     797   -1152449.4            0   -1152449.4 -0.018997638  0.020154811 -0.002545876 
     919   -1152449.4            0   -1152449.4 -4.7580893e-07 -4.7166043e-06 -3.5193147e-05 
Loop time of 1.44499 on 104 procs for 122 steps with 288751 atoms

99.9% CPU use with 104 MPI tasks x 1 OpenMP threads

Minimization stats:
  Stopping criterion = energy tolerance
  Energy initial, next-to-last, final = 
     -1152449.43172361  -1152449.43293569  -1152449.43293569
  Force two-norm initial, final = 0.15255146 0.00015593806
  Force max component initial, final = 0.10151797 3.5193147e-05
  Final line search alpha, max atom move = 1.0000000 3.5193147e-05
  Iterations, force evaluations = 122 244

MPI task timing breakdown:
Section |  min time  |  avg time  |  max time  |%varavg| %total
---------------------------------------------------------------
Pair    | 0.37034    | 1.0315     | 1.3504     |  27.4 | 71.39
Neigh   | 0          | 0          | 0          |   0.0 |  0.00
Comm    | 0.025546   | 0.23215    | 0.68701    |  39.9 | 16.07
Output  | 0          | 0          | 0          |   0.0 |  0.00
Modify  | 1.4992e-05 | 0.0020184  | 0.0043     |   2.1 |  0.14
Other   |            | 0.1793     |            |       | 12.41

Nlocal:        2776.45 ave        3961 max           0 min
Histogram: 8 4 4 0 6 10 8 2 28 34
Nghost:        3879.01 ave        5424 max         232 min
Histogram: 8 0 8 0 16 0 8 8 16 40
Neighs:        79213.4 ave      115457 max           0 min
Histogram: 8 4 4 0 10 6 8 8 24 32

Total # of neighbors = 8238192
Ave neighs/atom = 28.530436
Neighbor list builds = 0
Dangerous builds = 0
The dot product: -3.41761519660047e-08
Setting atom values ...
  1 settings made for x
  1 settings made for y
  1 settings made for z
Setting up cg style minimization ...
  Unit style    : metal
  Current step  : 919
Per MPI rank memory allocation (min/avg/max) = 5.441 | 5.816 | 6.074 Mbytes
Step PotEng KinEng TotEng v_fx v_fy v_fz 
     919   -1152449.4            0   -1152449.4 -0.020658283  0.023928686 0.0018842474 
    1000   -1152449.4            0   -1152449.4 0.00011478108 -0.0001250876 3.7034832e-05 
    1041   -1152449.4            0   -1152449.4 -2.0342182e-05 1.8751434e-05 -2.7205461e-05 
Loop time of 1.4479 on 104 procs for 122 steps with 288751 atoms

99.9% CPU use with 104 MPI tasks x 1 OpenMP threads

Minimization stats:
  Stopping criterion = energy tolerance
  Energy initial, next-to-last, final = 
     -1152449.42366306  -1152449.42487594  -1152449.42487594
  Force two-norm initial, final = 0.15255707 0.00019359079
  Force max component initial, final = 0.10436095 3.2065320e-05
  Final line search alpha, max atom move = 1.0000000 3.2065320e-05
  Iterations, force evaluations = 122 244

MPI task timing breakdown:
Section |  min time  |  avg time  |  max time  |%varavg| %total
---------------------------------------------------------------
Pair    | 0.37355    | 1.026      | 1.3303     |  27.2 | 70.86
Neigh   | 0          | 0          | 0          |   0.0 |  0.00
Comm    | 0.025623   | 0.23263    | 0.708      |  40.1 | 16.07
Output  | 0.0002415  | 0.0002459  | 0.00035464 |   0.0 |  0.02
Modify  | 1.5059e-05 | 0.0020208  | 0.0042861  |   2.1 |  0.14
Other   |            | 0.187      |            |       | 12.91

Nlocal:        2776.45 ave        3960 max           0 min
Histogram: 8 4 4 0 4 12 8 2 28 34
Nghost:        3879.01 ave        5424 max         232 min
Histogram: 8 0 8 0 16 0 8 8 16 40
Neighs:        79213.4 ave      115434 max           0 min
Histogram: 8 4 4 0 10 6 8 8 24 32

Total # of neighbors = 8238190
Ave neighs/atom = 28.530429
Neighbor list builds = 0
Dangerous builds = 0
The dot product: 7.45951376584283e-08
Setting atom values ...
  1 settings made for x
  1 settings made for y
  1 settings made for z
Setting up cg style minimization ...
  Unit style    : metal
  Current step  : 1041
Per MPI rank memory allocation (min/avg/max) = 5.441 | 5.816 | 6.074 Mbytes
Step PotEng KinEng TotEng v_fx v_fy v_fz 
    1041   -1152449.4            0   -1152449.4 -0.024391716  0.031087955 0.0055545834 
    1220   -1152449.4            0   -1152449.4 9.169686e-06 -8.8086395e-06 1.2898538e-05 
Loop time of 2.08917 on 104 procs for 179 steps with 288751 atoms

99.9% CPU use with 104 MPI tasks x 1 OpenMP threads

Minimization stats:
  Stopping criterion = energy tolerance
  Energy initial, next-to-last, final = 
     -1152449.41422829  -1152449.41548465  -1152449.41548465
  Force two-norm initial, final = 0.1540578 9.3829022e-05
  Force max component initial, final = 0.10710424 1.4083834e-05
  Final line search alpha, max atom move = 1.0000000 1.4083834e-05
  Iterations, force evaluations = 179 358

MPI task timing breakdown:
Section |  min time  |  avg time  |  max time  |%varavg| %total
---------------------------------------------------------------
Pair    | 0.54169    | 1.5088     | 1.953      |  33.1 | 72.22
Neigh   | 0          | 0          | 0          |   0.0 |  0.00
Comm    | 0.037219   | 0.33667    | 1.0082     |  48.8 | 16.11
Output  | 0          | 0          | 0          |   0.0 |  0.00
Modify  | 2.2128e-05 | 0.0029554  | 0.0063066  |   2.6 |  0.14
Other   |            | 0.2408     |            |       | 11.52

Nlocal:        2776.45 ave        3960 max           0 min
Histogram: 8 4 4 0 4 12 8 2 28 34
Nghost:        3879.01 ave        5424 max         232 min
Histogram: 8 0 8 0 16 0 8 8 16 40
Neighs:        79213.4 ave      115434 max           0 min
Histogram: 8 4 4 0 10 6 8 8 24 32

Total # of neighbors = 8238191
Ave neighs/atom = 28.530433
Neighbor list builds = 0
Dangerous builds = 0
The dot product: -6.41649376988287e-08
Setting atom values ...
  1 settings made for x
  1 settings made for y
  1 settings made for z
Setting up cg style minimization ...
  Unit style    : metal
  Current step  : 1220
Per MPI rank memory allocation (min/avg/max) = 5.441 | 5.816 | 6.074 Mbytes
Step PotEng KinEng TotEng v_fx v_fy v_fz 
    1220   -1152449.4            0   -1152449.4 -0.026515583    0.0382966 0.0080644999 
    1356   -1152449.4            0   -1152449.4 6.3806677e-06 -1.1616935e-05 -1.2389957e-05 
Loop time of 1.58324 on 104 procs for 136 steps with 288751 atoms

99.9% CPU use with 104 MPI tasks x 1 OpenMP threads

Minimization stats:
  Stopping criterion = energy tolerance
  Energy initial, next-to-last, final = 
     -1152449.40356166  -1152449.40487795  -1152449.40487795
  Force two-norm initial, final = 0.15576371 0.00017131969
  Force max component initial, final = 0.10972319 1.6524531e-05
  Final line search alpha, max atom move = 1.0000000 1.6524531e-05
  Iterations, force evaluations = 136 272

MPI task timing breakdown:
Section |  min time  |  avg time  |  max time  |%varavg| %total
---------------------------------------------------------------
Pair    | 0.41117    | 1.142      | 1.4818     |  28.9 | 72.13
Neigh   | 0          | 0          | 0          |   0.0 |  0.00
Comm    | 0.023718   | 0.25667    | 0.77115    |  42.4 | 16.21
Output  | 0          | 0          | 0          |   0.0 |  0.00
Modify  | 1.6665e-05 | 0.0022527  | 0.0047939  |   2.2 |  0.14
Other   |            | 0.1823     |            |       | 11.51

Nlocal:        2776.45 ave        3960 max           0 min
Histogram: 8 4 4 0 4 12 8 2 28 34
Nghost:        3879.01 ave        5424 max         232 min
Histogram: 8 0 8 0 16 0 8 8 16 40
Neighs:        79213.4 ave      115442 max           0 min
Histogram: 8 4 4 0 10 6 8 8 24 32

Total # of neighbors = 8238192
Ave neighs/atom = 28.530436
Neighbor list builds = 0
Dangerous builds = 0
The dot product: -1.46475152898634e-07
Setting atom values ...
  1 settings made for x
  1 settings made for y
  1 settings made for z
Setting up cg style minimization ...
  Unit style    : metal
  Current step  : 1356
Per MPI rank memory allocation (min/avg/max) = 5.441 | 5.816 | 6.074 Mbytes
Step PotEng KinEng TotEng v_fx v_fy v_fz 
    1356   -1152449.4            0   -1152449.4 -0.025298872  0.042062226 0.0086172605 
    1558   -1152449.4            0   -1152449.4 -4.5563877e-06 2.8774986e-06 -1.5526268e-05 
Loop time of 2.36535 on 104 procs for 202 steps with 288751 atoms

99.9% CPU use with 104 MPI tasks x 1 OpenMP threads

Minimization stats:
  Stopping criterion = energy tolerance
  Energy initial, next-to-last, final = 
     -1152449.39171327  -1152449.39306761  -1152449.39306761
  Force two-norm initial, final = 0.15663673 5.0194500e-05
  Force max component initial, final = 0.1118713 1.5526268e-05
  Final line search alpha, max atom move = 1.0000000 1.5526268e-05
  Iterations, force evaluations = 202 404

MPI task timing breakdown:
Section |  min time  |  avg time  |  max time  |%varavg| %total
---------------------------------------------------------------
Pair    | 0.61199    | 1.7065     | 2.2129     |  35.2 | 72.14
Neigh   | 0          | 0          | 0          |   0.0 |  0.00
Comm    | 0.039359   | 0.3854     | 1.1559     |  51.6 | 16.29
Output  | 0          | 0          | 0          |   0.0 |  0.00
Modify  | 2.4681e-05 | 0.0033421  | 0.0071443  |   2.7 |  0.14
Other   |            | 0.2701     |            |       | 11.42

Nlocal:        2776.45 ave        3959 max           0 min
Histogram: 8 4 4 0 4 12 8 2 28 34
Nghost:        3879.01 ave        5424 max         232 min
Histogram: 8 0 8 0 16 0 8 8 16 40
Neighs:        79213.4 ave      115401 max           0 min
Histogram: 8 4 4 0 10 6 8 8 24 32

Total # of neighbors = 8238191
Ave neighs/atom = 28.530433
Neighbor list builds = 0
Dangerous builds = 0
The dot product: 2.38896852566357e-08
Setting atom values ...
  1 settings made for x
  1 settings made for y
  1 settings made for z
Setting up cg style minimization ...
  Unit style    : metal
  Current step  : 1558
Per MPI rank memory allocation (min/avg/max) = 5.441 | 5.816 | 6.074 Mbytes
Step PotEng KinEng TotEng v_fx v_fy v_fz 
    1558   -1152449.4            0   -1152449.4 -0.021762963  0.041951366 0.0082842037 
    1712   -1152449.4            0   -1152449.4 -1.4748096e-05 1.1097678e-05 -4.7638762e-05 
Loop time of 1.8008 on 104 procs for 154 steps with 288751 atoms

99.9% CPU use with 104 MPI tasks x 1 OpenMP threads

Minimization stats:
  Stopping criterion = energy tolerance
  Energy initial, next-to-last, final = 
     -1152449.37865816  -1152449.38000911  -1152449.38000911
  Force two-norm initial, final = 0.15666985 0.00018552405
  Force max component initial, final = 0.11336667 4.7638762e-05
  Final line search alpha, max atom move = 1.0000000 4.7638762e-05
  Iterations, force evaluations = 154 308

MPI task timing breakdown:
Section |  min time  |  avg time  |  max time  |%varavg| %total
---------------------------------------------------------------
Pair    | 0.46819    | 1.2986     | 1.6809     |  30.7 | 72.11
Neigh   | 0          | 0          | 0          |   0.0 |  0.00
Comm    | 0.034242   | 0.29253    | 0.88297    |  45.2 | 16.24
Output  | 0          | 0          | 0          |   0.0 |  0.00
Modify  | 1.9462e-05 | 0.0025501  | 0.0054211  |   2.4 |  0.14
Other   |            | 0.2072     |            |       | 11.50

Nlocal:        2776.45 ave        3959 max           0 min
Histogram: 8 4 4 0 4 12 8 2 28 34
Nghost:        3879.09 ave        5424 max         232 min
Histogram: 8 0 8 0 16 0 8 8 16 40
Neighs:        79213.4 ave      115401 max           0 min
Histogram: 8 4 4 0 10 6 8 8 24 32

Total # of neighbors = 8238192
Ave neighs/atom = 28.530436
Neighbor list builds = 0
Dangerous builds = 0
The dot product: 1.12816467286066e-07
Setting atom values ...
  1 settings made for x
  1 settings made for y
  1 settings made for z
Setting up cg style minimization ...
  Unit style    : metal
  Current step  : 1712
Per MPI rank memory allocation (min/avg/max) = 5.441 | 5.816 | 6.074 Mbytes
Step PotEng KinEng TotEng v_fx v_fy v_fz 
    1712   -1152449.4            0   -1152449.4 -0.017383461  0.038774098  0.007509861 
    1820   -1152449.4            0   -1152449.4 -2.6944531e-05 3.7229021e-05 -4.8790069e-05 
Loop time of 1.26318 on 104 procs for 108 steps with 288751 atoms

99.9% CPU use with 104 MPI tasks x 1 OpenMP threads

Minimization stats:
  Stopping criterion = energy tolerance
  Energy initial, next-to-last, final = 
     -1152449.36431838  -1152449.36563989  -1152449.36563989
  Force two-norm initial, final = 0.15629275 0.00032416453
  Force max component initial, final = 0.11432284 5.9078700e-05
  Final line search alpha, max atom move = 1.0000000 5.9078700e-05
  Iterations, force evaluations = 108 216

MPI task timing breakdown:
Section |  min time  |  avg time  |  max time  |%varavg| %total
---------------------------------------------------------------
Pair    | 0.32874    | 0.91239    | 1.1872     |  25.7 | 72.23
Neigh   | 0          | 0          | 0          |   0.0 |  0.00
Comm    | 0.025653   | 0.2059     | 0.61846    |  37.8 | 16.30
Output  | 0          | 0          | 0          |   0.0 |  0.00
Modify  | 1.3413e-05 | 0.001792   | 0.0038294  |   2.0 |  0.14
Other   |            | 0.1431     |            |       | 11.33

Nlocal:        2776.45 ave        3960 max           0 min
Histogram: 8 4 4 0 4 12 8 2 28 34
Nghost:        3879.09 ave        5424 max         232 min
Histogram: 8 0 8 0 16 0 8 8 16 40
Neighs:        79213.4 ave      115442 max           0 min
Histogram: 8 4 4 0 10 6 8 8 24 32

Total # of neighbors = 8238193
Ave neighs/atom = 28.530440
Neighbor list builds = 0
Dangerous builds = 0
The dot product: 4.01638040645437e-07
Setting atom values ...
  1 settings made for x
  1 settings made for y
  1 settings made for z
Setting up cg style minimization ...
  Unit style    : metal
  Current step  : 1820
Per MPI rank memory allocation (min/avg/max) = 5.441 | 5.816 | 6.074 Mbytes
Step PotEng KinEng TotEng v_fx v_fy v_fz 
    1820   -1152449.3            0   -1152449.3  -0.01307354  0.033573408 0.0067821015 
    2000   -1152449.3            0   -1152449.3 -5.0488876e-06 6.6001745e-06 -1.2119987e-05 
    2005   -1152449.3            0   -1152449.3 8.2844093e-06 -9.5975803e-06 2.2740129e-05 
Loop time of 2.153 on 104 procs for 185 steps with 288751 atoms

99.9% CPU use with 104 MPI tasks x 1 OpenMP threads

Minimization stats:
  Stopping criterion = energy tolerance
  Energy initial, next-to-last, final = 
     -1152449.34862602  -1152449.34990454  -1152449.34990454
  Force two-norm initial, final = 0.15592089 7.5676283e-05
  Force max component initial, final = 0.11492577 2.2740129e-05
  Final line search alpha, max atom move = 1.0000000 2.2740129e-05
  Iterations, force evaluations = 185 370

MPI task timing breakdown:
Section |  min time  |  avg time  |  max time  |%varavg| %total
---------------------------------------------------------------
Pair    | 0.55974    | 1.5532     | 2.0165     |  33.5 | 72.14
Neigh   | 0          | 0          | 0          |   0.0 |  0.00
Comm    | 0.034872   | 0.34914    | 1.0491     |  49.3 | 16.22
Output  | 0.00033275 | 0.00033639 | 0.00046895 |   0.0 |  0.02
Modify  | 2.2494e-05 | 0.0030537  | 0.0064953  |   2.6 |  0.14
Other   |            | 0.2473     |            |       | 11.48

Nlocal:        2776.45 ave        3960 max           0 min
Histogram: 8 4 4 0 4 12 8 2 28 34
Nghost:        3879.09 ave        5424 max         232 min
Histogram: 8 0 8 0 16 0 8 8 16 40
Neighs:        79213.4 ave      115442 max           0 min
Histogram: 8 4 4 0 10 6 8 8 24 32

Total # of neighbors = 8238192
Ave neighs/atom = 28.530436
Neighbor list builds = 0
Dangerous builds = 0
The dot product: -8.93253409010246e-08
Setting atom values ...
  1 settings made for x
  1 settings made for y
  1 settings made for z
Setting up cg style minimization ...
  Unit style    : metal
  Current step  : 2005
Per MPI rank memory allocation (min/avg/max) = 5.441 | 5.816 | 6.074 Mbytes
Step PotEng KinEng TotEng v_fx v_fy v_fz 
    2005   -1152449.3            0   -1152449.3 -0.0092129487  0.027239753   0.00644141 
    2186   -1152449.3            0   -1152449.3 8.0541067e-06 -1.8016745e-05 6.3446522e-06 
Loop time of 2.12224 on 104 procs for 181 steps with 288751 atoms

99.9% CPU use with 104 MPI tasks x 1 OpenMP threads

Minimization stats:
  Stopping criterion = energy tolerance
  Energy initial, next-to-last, final = 
     -1152449.33152686  -1152449.33275998  -1152449.33275998
  Force two-norm initial, final = 0.15581547 8.9347343e-05
  Force max component initial, final = 0.11532871 1.8888967e-05
  Final line search alpha, max atom move = 1.0000000 1.8888967e-05
  Iterations, force evaluations = 181 362

MPI task timing breakdown:
Section |  min time  |  avg time  |  max time  |%varavg| %total
---------------------------------------------------------------
Pair    | 0.54842    | 1.5249     | 1.9923     |  33.3 | 71.85
Neigh   | 0          | 0          | 0          |   0.0 |  0.00
Comm    | 0.035642   | 0.3424     | 1.0169     |  48.7 | 16.13
Output  | 0          | 0          | 0          |   0.0 |  0.00
Modify  | 2.2083e-05 | 0.002987   | 0.0063882  |   2.6 |  0.14
Other   |            | 0.252      |            |       | 11.87

Nlocal:        2776.45 ave        3960 max           0 min
Histogram: 8 4 4 0 4 12 8 2 28 34
Nghost:        3879.11 ave        5424 max         232 min
Histogram: 8 0 8 0 16 0 8 8 16 40
Neighs:        79213.4 ave      115442 max           0 min
Histogram: 8 4 4 0 10 6 8 8 24 32

Total # of neighbors = 8238189
Ave neighs/atom = 28.530426
Neighbor list builds = 0
Dangerous builds = 0
The dot product: -1.43657200568857e-07
Setting atom values ...
  1 settings made for x
  1 settings made for y
  1 settings made for z
Setting up cg style minimization ...
  Unit style    : metal
  Current step  : 2186
Per MPI rank memory allocation (min/avg/max) = 5.441 | 5.816 | 6.074 Mbytes
Step PotEng KinEng TotEng v_fx v_fy v_fz 
    2186   -1152449.3            0   -1152449.3 -0.006040528   0.02049184 0.0059065485 
    2308   -1152449.3            0   -1152449.3 -7.0433534e-06 -1.8649528e-06 -4.1566933e-05 
Loop time of 1.41022 on 104 procs for 122 steps with 288751 atoms

99.9% CPU use with 104 MPI tasks x 1 OpenMP threads

Minimization stats:
  Stopping criterion = energy tolerance
  Energy initial, next-to-last, final = 
     -1152449.31298352  -1152449.31417934  -1152449.31417934
  Force two-norm initial, final = 0.15615019 0.00020344885
  Force max component initial, final = 0.1157666 4.4547010e-05
  Final line search alpha, max atom move = 1.0000000 4.4547010e-05
  Iterations, force evaluations = 122 244

MPI task timing breakdown:
Section |  min time  |  avg time  |  max time  |%varavg| %total
---------------------------------------------------------------
Pair    | 0.37151    | 1.024      | 1.3293     |  27.2 | 72.62
Neigh   | 0          | 0          | 0          |   0.0 |  0.00
Comm    | 0.022974   | 0.22848    | 0.68812    |  40.3 | 16.20
Output  | 0          | 0          | 0          |   0.0 |  0.00
Modify  | 1.5027e-05 | 0.0020157  | 0.0042977  |   2.1 |  0.14
Other   |            | 0.1557     |            |       | 11.04

Nlocal:        2776.45 ave        3960 max           0 min
Histogram: 8 4 4 0 4 12 8 2 28 34
Nghost:        3879.12 ave        5424 max         232 min
Histogram: 8 0 8 0 16 0 8 8 16 40
Neighs:        79213.3 ave      115442 max           0 min
Histogram: 8 4 4 0 10 6 8 8 24 32

Total # of neighbors = 8238188
Ave neighs/atom = 28.530422
Neighbor list builds = 0
Dangerous builds = 0
The dot product: -1.05999318552917e-08
Setting atom values ...
  1 settings made for x
  1 settings made for y
  1 settings made for z
Setting up cg style minimization ...
  Unit style    : metal
  Current step  : 2308
Per MPI rank memory allocation (min/avg/max) = 5.441 | 5.816 | 6.074 Mbytes
Step PotEng KinEng TotEng v_fx v_fy v_fz 
    2308   -1152449.3            0   -1152449.3 -0.0034418517  0.013650084 0.0052669781 
    2524   -1152449.3            0   -1152449.3 -9.3426849e-07 7.7803731e-07 -3.6904444e-06 
Loop time of 2.5188 on 104 procs for 216 steps with 288751 atoms

99.9% CPU use with 104 MPI tasks x 1 OpenMP threads

Minimization stats:
  Stopping criterion = energy tolerance
  Energy initial, next-to-last, final = 
     -1152449.29297655  -1152449.29414745  -1152449.29414745
  Force two-norm initial, final = 0.15700124 2.6940468e-05
  Force max component initial, final = 0.11638703 4.3379956e-06
  Final line search alpha, max atom move = 1.0000000 4.3379956e-06
  Iterations, force evaluations = 216 432

MPI task timing breakdown:
Section |  min time  |  avg time  |  max time  |%varavg| %total
---------------------------------------------------------------
Pair    | 0.65588    | 1.8174     | 2.3609     |  36.3 | 72.15
Neigh   | 0          | 0          | 0          |   0.0 |  0.00
Comm    | 0.042529   | 0.40703    | 1.215      |  53.5 | 16.16
Output  | 0          | 0          | 0          |   0.0 |  0.00
Modify  | 2.6615e-05 | 0.0035663  | 0.0075831  |   2.8 |  0.14
Other   |            | 0.2908     |            |       | 11.54

Nlocal:        2776.45 ave        3960 max           0 min
Histogram: 8 4 4 0 4 12 8 2 28 34
Nghost:        3879.12 ave        5424 max         232 min
Histogram: 8 0 8 0 16 0 8 8 16 40
Neighs:        79213.3 ave      115442 max           0 min
Histogram: 8 4 4 0 10 6 8 8 24 32

Total # of neighbors = 8238186
Ave neighs/atom = 28.530415
Neighbor list builds = 0
Dangerous builds = 0
The dot product: 3.71948260863109e-09
Setting atom values ...
  1 settings made for x
  1 settings made for y
  1 settings made for z
Setting up cg style minimization ...
  Unit style    : metal
  Current step  : 2524
Per MPI rank memory allocation (min/avg/max) = 5.441 | 5.816 | 6.074 Mbytes
Step PotEng KinEng TotEng v_fx v_fy v_fz 
    2524   -1152449.3            0   -1152449.3 -0.001166955 0.0067060172 0.0048120579 
    2641   -1152449.3            0   -1152449.3 6.5941827e-06 -5.5535651e-06 2.6457509e-05 
Loop time of 1.35222 on 104 procs for 117 steps with 288751 atoms

99.9% CPU use with 104 MPI tasks x 1 OpenMP threads

Minimization stats:
  Stopping criterion = energy tolerance
  Energy initial, next-to-last, final = 
     -1152449.27149901  -1152449.27265666  -1152449.27265666
  Force two-norm initial, final = 0.15835196 0.0002082366
  Force max component initial, final = 0.11716996 3.1040117e-05
  Final line search alpha, max atom move = 1.0000000 3.1040117e-05
  Iterations, force evaluations = 117 234

MPI task timing breakdown:
Section |  min time  |  avg time  |  max time  |%varavg| %total
---------------------------------------------------------------
Pair    | 0.35658    | 0.98165    | 1.2745     |  26.7 | 72.60
Neigh   | 0          | 0          | 0          |   0.0 |  0.00
Comm    | 0.021161   | 0.21932    | 0.65943    |  39.3 | 16.22
Output  | 0          | 0          | 0          |   0.0 |  0.00
Modify  | 1.4363e-05 | 0.0019325  | 0.0041105  |   2.1 |  0.14
Other   |            | 0.1493     |            |       | 11.04

Nlocal:        2776.45 ave        3960 max           0 min
Histogram: 8 4 4 0 4 12 8 2 28 34
Nghost:        3879.12 ave        5424 max         232 min
Histogram: 8 0 8 0 16 0 8 8 16 40
Neighs:        79213.3 ave      115442 max           0 min
Histogram: 8 4 4 0 10 6 8 8 24 32

Total # of neighbors = 8238185
Ave neighs/atom = 28.530412
Neighbor list builds = 0
Dangerous builds = 0
The dot product: -1.93652514855199e-08
Setting atom values ...
  1 settings made for x
  1 settings made for y
  1 settings made for z
Setting up cg style minimization ...
  Unit style    : metal
  Current step  : 2641
Per MPI rank memory allocation (min/avg/max) = 5.441 | 5.816 | 6.074 Mbytes
Step PotEng KinEng TotEng v_fx v_fy v_fz 
    2641   -1152449.2            0   -1152449.2 0.00087584487 -0.00052012366 0.0039106686 
    2761   -1152449.2            0   -1152449.2 2.2963895e-06 -1.3471053e-05 -9.2043501e-06 
Loop time of 1.41146 on 104 procs for 120 steps with 288751 atoms

99.9% CPU use with 104 MPI tasks x 1 OpenMP threads

Minimization stats:
  Stopping criterion = energy tolerance
  Energy initial, next-to-last, final = 
     -1152449.24854869  -1152449.24970815  -1152449.24970815
  Force two-norm initial, final = 0.16029044 0.00023488224
  Force max component initial, final = 0.11821837 2.7475829e-05
  Final line search alpha, max atom move = 1.0000000 2.7475829e-05
  Iterations, force evaluations = 120 240

MPI task timing breakdown:
Section |  min time  |  avg time  |  max time  |%varavg| %total
---------------------------------------------------------------
Pair    | 0.36405    | 1.0153     | 1.3155     |  27.2 | 71.93
Neigh   | 0          | 0          | 0          |   0.0 |  0.00
Comm    | 0.022522   | 0.22945    | 0.68526    |  39.7 | 16.26
Output  | 0          | 0          | 0          |   0.0 |  0.00
Modify  | 1.4747e-05 | 0.0019894  | 0.0042425  |   2.1 |  0.14
Other   |            | 0.1647     |            |       | 11.67

Nlocal:        2776.45 ave        3960 max           0 min
Histogram: 8 4 4 0 4 12 8 2 28 34
Nghost:        3879.12 ave        5424 max         232 min
Histogram: 8 0 8 0 16 0 8 8 16 40
Neighs:        79213.3 ave      115442 max           0 min
Histogram: 8 4 4 0 10 6 8 8 24 32

Total # of neighbors = 8238184
Ave neighs/atom = 28.530409
Neighbor list builds = 0
Dangerous builds = 0
The dot product: -1.47496747840094e-08
Setting atom values ...
  1 settings made for x
  1 settings made for y
  1 settings made for z
Setting up cg style minimization ...
  Unit style    : metal
  Current step  : 2761
Per MPI rank memory allocation (min/avg/max) = 5.441 | 5.816 | 6.074 Mbytes
Step PotEng KinEng TotEng v_fx v_fy v_fz 
    2761   -1152449.2            0   -1152449.2  0.002937351 -0.0083081779 0.0027501189 
    2945   -1152449.2            0   -1152449.2 -2.2912737e-06 1.4972027e-06 -1.007544e-05 
Loop time of 2.14324 on 104 procs for 184 steps with 288751 atoms

99.9% CPU use with 104 MPI tasks x 1 OpenMP threads

Minimization stats:
  Stopping criterion = energy tolerance
  Energy initial, next-to-last, final = 
     -1152449.22413552  -1152449.22531542  -1152449.22531542
  Force two-norm initial, final = 0.16299627 6.8497577e-05
  Force max component initial, final = 0.11966944 1.0075440e-05
  Final line search alpha, max atom move = 1.0000000 1.0075440e-05
  Iterations, force evaluations = 184 368

MPI task timing breakdown:
Section |  min time  |  avg time  |  max time  |%varavg| %total
---------------------------------------------------------------
Pair    | 0.55605    | 1.5458     | 2.0065     |  33.6 | 72.13
Neigh   | 0          | 0          | 0          |   0.0 |  0.00
Comm    | 0.032715   | 0.34821    | 1.0455     |  49.4 | 16.25
Output  | 0          | 0          | 0          |   0.0 |  0.00
Modify  | 2.2243e-05 | 0.0030383  | 0.0064814  |   2.6 |  0.14
Other   |            | 0.2462     |            |       | 11.49

Nlocal:        2776.45 ave        3959 max           0 min
Histogram: 8 4 4 0 4 12 8 2 28 34
Nghost:        3879.12 ave        5424 max         232 min
Histogram: 8 0 8 0 16 0 8 8 16 40
Neighs:        79213.3 ave      115398 max           0 min
Histogram: 8 4 4 0 10 6 8 8 24 32

Total # of neighbors = 8238185
Ave neighs/atom = 28.530412
Neighbor list builds = 0
Dangerous builds = 0
The dot product: 1.96847562150877e-09
Setting atom values ...
  1 settings made for x
  1 settings made for y
  1 settings made for z
Setting up cg style minimization ...
  Unit style    : metal
  Current step  : 2945
Per MPI rank memory allocation (min/avg/max) = 5.441 | 5.816 | 6.074 Mbytes
Step PotEng KinEng TotEng v_fx v_fy v_fz 
    2945   -1152449.2            0   -1152449.2 0.0053203644 -0.017219224 0.0012992435 
    3000   -1152449.2            0   -1152449.2 -2.9913693e-06 0.00017807188 0.00027092912 
    3171   -1152449.2            0   -1152449.2 1.2001308e-06 -3.2018914e-06 1.3938125e-06 
Loop time of 2.66769 on 104 procs for 226 steps with 288751 atoms

99.9% CPU use with 104 MPI tasks x 1 OpenMP threads

Minimization stats:
  Stopping criterion = energy tolerance
  Energy initial, next-to-last, final = 
     -1152449.19828947  -1152449.19951769  -1152449.19951769
  Force two-norm initial, final = 0.16656512 1.8613189e-05
  Force max component initial, final = 0.12150636 3.2500650e-06
  Final line search alpha, max atom move = 1.0000000 3.2500650e-06
  Iterations, force evaluations = 226 452

MPI task timing breakdown:
Section |  min time  |  avg time  |  max time  |%varavg| %total
---------------------------------------------------------------
Pair    | 0.68245    | 1.9114     | 2.4754     |  37.1 | 71.65
Neigh   | 0          | 0          | 0          |   0.0 |  0.00
Comm    | 0.048844   | 0.43622    | 1.3146     |  54.7 | 16.35
Output  | 0.00027582 | 0.0002799  | 0.00038062 |   0.0 |  0.01
Modify  | 2.8352e-05 | 0.0037325  | 0.0079667  |   2.9 |  0.14
Other   |            | 0.316      |            |       | 11.85

Nlocal:        2776.45 ave        3959 max           0 min
Histogram: 8 4 4 0 4 12 8 2 28 34
Nghost:        3879.11 ave        5424 max         232 min
Histogram: 8 0 8 0 16 0 8 8 16 40
Neighs:        79213.3 ave      115398 max           0 min
Histogram: 8 4 4 0 10 6 8 8 24 32

Total # of neighbors = 8238184
Ave neighs/atom = 28.530409
Neighbor list builds = 0
Dangerous builds = 0
The dot product: 1.05359411884556e-08
Setting atom values ...
  1 settings made for x
  1 settings made for y
  1 settings made for z
Setting up cg style minimization ...
  Unit style    : metal
  Current step  : 3171
Per MPI rank memory allocation (min/avg/max) = 5.441 | 5.816 | 6.074 Mbytes
Step PotEng KinEng TotEng v_fx v_fy v_fz 
    3171   -1152449.2            0   -1152449.2 0.0085398674 -0.028716902 -0.0012628943 
    3284   -1152449.2            0   -1152449.2 -1.3016404e-06 3.1727668e-06 -1.8385722e-06 
Loop time of 1.31075 on 104 procs for 113 steps with 288751 atoms

99.9% CPU use with 104 MPI tasks x 1 OpenMP threads

Minimization stats:
  Stopping criterion = energy tolerance
  Energy initial, next-to-last, final = 
     -1152449.17108178  -1152449.17242335  -1152449.17242335
  Force two-norm initial, final = 0.17151481 0.00018290626
  Force max component initial, final = 0.12397109 6.8367056e-06
  Final line search alpha, max atom move = 1.0000000 6.8367056e-06
  Iterations, force evaluations = 113 226

MPI task timing breakdown:
Section |  min time  |  avg time  |  max time  |%varavg| %total
---------------------------------------------------------------
Pair    | 0.34276    | 0.95296    | 1.2329     |  26.4 | 72.70
Neigh   | 0          | 0          | 0          |   0.0 |  0.00
Comm    | 0.023404   | 0.21336    | 0.6441     |  39.0 | 16.28
Output  | 0          | 0          | 0          |   0.0 |  0.00
Modify  | 1.4044e-05 | 0.0018696  | 0.0039644  |   2.0 |  0.14
Other   |            | 0.1426     |            |       | 10.88

Nlocal:        2776.45 ave        3958 max           0 min
Histogram: 8 4 4 0 4 12 8 2 28 34
Nghost:        3879.08 ave        5424 max         232 min
Histogram: 8 0 8 0 16 0 8 8 16 40
Neighs:        79213.3 ave      115358 max           0 min
Histogram: 8 4 4 0 10 6 8 8 24 32

Total # of neighbors = 8238185
Ave neighs/atom = 28.530412
Neighbor list builds = 0
Dangerous builds = 0
The dot product: -2.27186013785939e-08
Setting atom values ...
  1 settings made for x
  1 settings made for y
  1 settings made for z
Setting up cg style minimization ...
  Unit style    : metal
  Current step  : 3284
Per MPI rank memory allocation (min/avg/max) = 5.441 | 5.816 | 6.074 Mbytes
Step PotEng KinEng TotEng v_fx v_fy v_fz 
    3284   -1152449.1            0   -1152449.1  0.012000444 -0.042357748 -0.010470023 
    3407   -1152449.1            0   -1152449.1 5.8105454e-06 -1.9047424e-05 -2.368141e-06 
Loop time of 1.43032 on 104 procs for 123 steps with 288751 atoms

99.9% CPU use with 104 MPI tasks x 1 OpenMP threads

Minimization stats:
  Stopping criterion = energy tolerance
  Energy initial, next-to-last, final = 
     -1152449.14260179  -1152449.14414341  -1152449.14414341
  Force two-norm initial, final = 0.17789813 0.00014790514
  Force max component initial, final = 0.12745768 3.5508875e-05
  Final line search alpha, max atom move = 1.0000000 3.5508875e-05
  Iterations, force evaluations = 123 246

MPI task timing breakdown:
Section |  min time  |  avg time  |  max time  |%varavg| %total
---------------------------------------------------------------
Pair    | 0.37103    | 1.035      | 1.3415     |  27.4 | 72.36
Neigh   | 0          | 0          | 0          |   0.0 |  0.00
Comm    | 0.023075   | 0.23059    | 0.69137    |  40.5 | 16.12
Output  | 0          | 0          | 0          |   0.0 |  0.00
Modify  | 1.5217e-05 | 0.0020329  | 0.0043281  |   2.1 |  0.14
Other   |            | 0.1627     |            |       | 11.38

Nlocal:        2776.45 ave        3957 max           0 min
Histogram: 8 4 4 0 4 12 8 2 28 34
Nghost:        3879.08 ave        5424 max         232 min
Histogram: 8 0 8 0 16 0 8 8 16 40
Neighs:        79213.3 ave      115334 max           0 min
Histogram: 8 4 4 0 10 6 8 8 24 32

Total # of neighbors = 8238183
Ave neighs/atom = 28.530405
Neighbor list builds = 0
Dangerous builds = 0
The dot product: 2.40707037207073e-07
Setting atom values ...
  1 settings made for x
  1 settings made for y
  1 settings made for z
Setting up cg style minimization ...
  Unit style    : metal
  Current step  : 3407
Per MPI rank memory allocation (min/avg/max) = 5.441 | 5.816 | 6.074 Mbytes
Step PotEng KinEng TotEng v_fx v_fy v_fz 
    3407   -1152449.1            0   -1152449.1  0.015146829 -0.053053692 -0.023036393 
    3526   -1152449.1            0   -1152449.1 1.1519708e-05 -1.4489652e-05 3.7399095e-05 
Loop time of 1.38162 on 104 procs for 119 steps with 288751 atoms

99.9% CPU use with 104 MPI tasks x 1 OpenMP threads

Minimization stats:
  Stopping criterion = energy tolerance
  Energy initial, next-to-last, final = 
     -1152449.11278987  -1152449.11458182  -1152449.11458182
  Force two-norm initial, final = 0.18585372 0.00016981355
  Force max component initial, final = 0.13180955 3.7399095e-05
  Final line search alpha, max atom move = 1.0000000 3.7399095e-05
  Iterations, force evaluations = 119 238

MPI task timing breakdown:
Section |  min time  |  avg time  |  max time  |%varavg| %total
---------------------------------------------------------------
Pair    | 0.36097    | 1.0003     | 1.2978     |  27.0 | 72.40
Neigh   | 0          | 0          | 0          |   0.0 |  0.00
Comm    | 0.022449   | 0.22365    | 0.67059    |  39.6 | 16.19
Output  | 0          | 0          | 0          |   0.0 |  0.00
Modify  | 1.4531e-05 | 0.0019673  | 0.0041794  |   2.1 |  0.14
Other   |            | 0.1557     |            |       | 11.27

Nlocal:        2776.45 ave        3955 max           0 min
Histogram: 8 4 4 0 4 12 8 2 28 34
Nghost:        3879.08 ave        5424 max         232 min
Histogram: 8 0 8 0 16 0 8 8 16 40
Neighs:        79213.3 ave      115270 max           0 min
Histogram: 8 4 4 0 10 6 8 8 24 32

Total # of neighbors = 8238181
Ave neighs/atom = 28.530398
Neighbor list builds = 0
Dangerous builds = 0
The dot product: 3.70696989414826e-08
Setting atom values ...
  1 settings made for x
  1 settings made for y
  1 settings made for z
Setting up cg style minimization ...
  Unit style    : metal
  Current step  : 3526
Per MPI rank memory allocation (min/avg/max) = 5.441 | 5.816 | 6.074 Mbytes
Step PotEng KinEng TotEng v_fx v_fy v_fz 
    3526   -1152449.1            0   -1152449.1  0.019126966 -0.060463812 -0.031142563 
    3687   -1152449.1            0   -1152449.1 3.4953217e-06 -1.4541943e-05 -1.4541741e-05 
Loop time of 1.88161 on 104 procs for 161 steps with 288751 atoms

99.9% CPU use with 104 MPI tasks x 1 OpenMP threads

Minimization stats:
  Stopping criterion = energy tolerance
  Energy initial, next-to-last, final = 
     -1152449.08164665   -1152449.0836463   -1152449.0836463
  Force two-norm initial, final = 0.19336574 8.5136674e-05
  Force max component initial, final = 0.1367729 1.5515503e-05
  Final line search alpha, max atom move = 1.0000000 1.5515503e-05
  Iterations, force evaluations = 161 322

MPI task timing breakdown:
Section |  min time  |  avg time  |  max time  |%varavg| %total
---------------------------------------------------------------
Pair    | 0.48847    | 1.3582     | 1.764      |  31.3 | 72.18
Neigh   | 0          | 0          | 0          |   0.0 |  0.00
Comm    | 0.033128   | 0.30378    | 0.91372    |  46.4 | 16.14
Output  | 0          | 0          | 0          |   0.0 |  0.00
Modify  | 2.0039e-05 | 0.0026613  | 0.0056769  |   2.4 |  0.14
Other   |            | 0.217      |            |       | 11.53

Nlocal:        2776.45 ave        3952 max           0 min
Histogram: 8 4 4 0 4 12 8 2 28 34
Nghost:        3879.08 ave        5424 max         232 min
Histogram: 8 0 8 0 16 0 8 8 16 40
Neighs:        79213.3 ave      115188 max           0 min
Histogram: 8 4 4 0 10 6 8 8 24 32

Total # of neighbors = 8238183
Ave neighs/atom = 28.530405
Neighbor list builds = 0
Dangerous builds = 0
The dot product: 3.4093985142952e-07
Setting atom values ...
  1 settings made for x
  1 settings made for y
  1 settings made for z
Setting up cg style minimization ...
  Unit style    : metal
  Current step  : 3687
Per MPI rank memory allocation (min/avg/max) = 5.441 | 5.816 | 6.074 Mbytes
Step PotEng KinEng TotEng v_fx v_fy v_fz 
    3687     -1152449            0     -1152449   0.02273362 -0.064604159 -0.039562058 
    3829   -1152449.1            0   -1152449.1 -1.6148885e-05 3.6758358e-05 -2.2424284e-07 
Loop time of 1.65175 on 104 procs for 142 steps with 288751 atoms

99.9% CPU use with 104 MPI tasks x 1 OpenMP threads

Minimization stats:
  Stopping criterion = energy tolerance
  Energy initial, next-to-last, final = 
     -1152449.04918083   -1152449.0513404   -1152449.0513404
  Force two-norm initial, final = 0.19988587 0.0002021313
  Force max component initial, final = 0.14189241 4.2145851e-05
  Final line search alpha, max atom move = 1.0000000 4.2145851e-05
  Iterations, force evaluations = 142 284

MPI task timing breakdown:
Section |  min time  |  avg time  |  max time  |%varavg| %total
---------------------------------------------------------------
Pair    | 0.43187    | 1.1916     | 1.545      |  29.4 | 72.14
Neigh   | 0          | 0          | 0          |   0.0 |  0.00
Comm    | 0.024248   | 0.26737    | 0.79959    |  43.0 | 16.19
Output  | 0          | 0          | 0          |   0.0 |  0.00
Modify  | 1.741e-05  | 0.0023415  | 0.0049929  |   2.3 |  0.14
Other   |            | 0.1904     |            |       | 11.53

Nlocal:        2776.45 ave        3944 max           0 min
Histogram: 8 4 4 0 4 12 8 2 26 36
Nghost:        3879.08 ave        5424 max         232 min
Histogram: 8 0 8 0 16 0 8 8 16 40
Neighs:        79213.3 ave      114927 max           0 min
Histogram: 8 4 4 0 10 6 8 8 22 34

Total # of neighbors = 8238179
Ave neighs/atom = 28.530391
Neighbor list builds = 0
Dangerous builds = 0
The dot product: -6.60195063263522e-07
Setting atom values ...
  1 settings made for x
  1 settings made for y
  1 settings made for z
Setting up cg style minimization ...
  Unit style    : metal
  Current step  : 3829
Per MPI rank memory allocation (min/avg/max) = 5.441 | 5.816 | 6.074 Mbytes
Step PotEng KinEng TotEng v_fx v_fy v_fz 
    3829     -1152449            0     -1152449  0.025110975 -0.065576132 -0.052709294 
    4000     -1152449            0     -1152449 2.9311992e-05 -4.4618361e-05 6.4593613e-05 
    4047     -1152449            0     -1152449 2.5548376e-06 -6.7331972e-06 -5.6051161e-06 
Loop time of 2.6266 on 104 procs for 218 steps with 288751 atoms

99.8% CPU use with 104 MPI tasks x 1 OpenMP threads

Minimization stats:
  Stopping criterion = energy tolerance
  Energy initial, next-to-last, final = 
     -1152449.01547708  -1152449.01780977  -1152449.01780977
  Force two-norm initial, final = 0.2064746 4.2177779e-05
  Force max component initial, final = 0.14710147 1.0513271e-05
  Final line search alpha, max atom move = 1.0000000 1.0513271e-05
  Iterations, force evaluations = 218 436

MPI task timing breakdown:
Section |  min time  |  avg time  |  max time  |%varavg| %total
---------------------------------------------------------------
Pair    | 0.66564    | 1.8538     | 2.4123     |  36.7 | 70.58
Neigh   | 0          | 0          | 0          |   0.0 |  0.00
Comm    | 0.062733   | 0.42757    | 1.2625     |  52.4 | 16.28
Output  | 0.00021025 | 0.00021906 | 0.00035661 |   0.0 |  0.01
Modify  | 2.6626e-05 | 0.0036005  | 0.0076922  |   2.8 |  0.14
Other   |            | 0.3414     |            |       | 13.00

Nlocal:        2776.45 ave        3934 max           0 min
Histogram: 8 4 4 0 4 12 8 0 28 36
Nghost:        3879.13 ave        5424 max         232 min
Histogram: 8 0 8 0 16 0 8 8 16 40
Neighs:        79213.2 ave      114613 max           0 min
Histogram: 8 4 4 0 8 8 8 8 20 36

Total # of neighbors = 8238177
Ave neighs/atom = 28.530384
Neighbor list builds = 0
Dangerous builds = 0
The dot product: 1.87227146082271e-07
Setting atom values ...
  1 settings made for x
  1 settings made for y
  1 settings made for z
Setting up cg style minimization ...
  Unit style    : metal
  Current step  : 4047
Per MPI rank memory allocation (min/avg/max) = 5.441 | 5.816 | 6.074 Mbytes
Step PotEng KinEng TotEng v_fx v_fy v_fz 
    4047     -1152449            0     -1152449  0.026306006 -0.062674272 -0.067566911 
    4218     -1152449            0     -1152449 -6.8304135e-06 1.5703777e-05 1.4396655e-05 
Loop time of 1.98996 on 104 procs for 171 steps with 288751 atoms

99.9% CPU use with 104 MPI tasks x 1 OpenMP threads

Minimization stats:
  Stopping criterion = energy tolerance
  Energy initial, next-to-last, final = 
     -1152448.98078082  -1152448.98319625  -1152448.98319625
  Force two-norm initial, final = 0.21267993 0.00027326867
  Force max component initial, final = 0.15225647 5.7468750e-05
  Final line search alpha, max atom move = 1.0000000 5.7468750e-05
  Iterations, force evaluations = 171 342

MPI task timing breakdown:
Section |  min time  |  avg time  |  max time  |%varavg| %total
---------------------------------------------------------------
Pair    | 0.51707    | 1.4355     | 1.8622     |  32.3 | 72.14
Neigh   | 0          | 0          | 0          |   0.0 |  0.00
Comm    | 0.030647   | 0.32248    | 0.97354    |  47.6 | 16.21
Output  | 0          | 0          | 0          |   0.0 |  0.00
Modify  | 2.0626e-05 | 0.0028218  | 0.0060136  |   2.5 |  0.14
Other   |            | 0.2291     |            |       | 11.51

Nlocal:        2776.45 ave        3932 max           0 min
Histogram: 8 4 4 0 4 12 8 0 26 38
Nghost:        3879.13 ave        5424 max         232 min
Histogram: 8 0 8 0 16 0 8 8 16 40
Neighs:        79213.2 ave      114554 max           0 min
Histogram: 8 4 4 0 8 8 8 8 20 36

Total # of neighbors = 8238176
Ave neighs/atom = 28.530381
Neighbor list builds = 0
Dangerous builds = 0
The dot product: -4.63062610974835e-07
Setting atom values ...
  1 settings made for x
  1 settings made for y
  1 settings made for z
Setting up cg style minimization ...
  Unit style    : metal
  Current step  : 4218
Per MPI rank memory allocation (min/avg/max) = 5.441 | 5.816 | 6.074 Mbytes
Step PotEng KinEng TotEng v_fx v_fy v_fz 
    4218   -1152448.9            0   -1152448.9  0.026006805  -0.05532937 -0.077584558 
    4461     -1152449            0     -1152449 -5.0389945e-07 9.6284819e-07 5.311798e-07 
Loop time of 2.8407 on 104 procs for 243 steps with 288751 atoms

99.9% CPU use with 104 MPI tasks x 1 OpenMP threads

Minimization stats:
  Stopping criterion = energy tolerance
  Energy initial, next-to-last, final = 
       -1152448.945256  -1152448.98068021  -1152448.98068021
  Force two-norm initial, final = 0.21749521 0.00017185148
  Force max component initial, final = 0.15709192 1.6485638e-05
  Final line search alpha, max atom move = 1.0000000 1.6485638e-05
  Iterations, force evaluations = 243 485

MPI task timing breakdown:
Section |  min time  |  avg time  |  max time  |%varavg| %total
---------------------------------------------------------------
Pair    | 0.73583    | 2.048      | 2.6549     |  38.4 | 72.10
Neigh   | 1.0572e-05 | 0.0029363  | 0.0042655  |   2.2 |  0.10
Comm    | 0.043702   | 0.46329    | 1.3818     |  56.6 | 16.31
Output  | 0          | 0          | 0          |   0.0 |  0.00
Modify  | 2.9549e-05 | 0.0040035  | 0.0085709  |   3.0 |  0.14
Other   |            | 0.3224     |            |       | 11.35

Nlocal:        2776.45 ave        3931 max           0 min
Histogram: 8 4 4 0 4 12 8 0 26 38
Nghost:        3879.13 ave        5424 max         232 min
Histogram: 8 0 8 0 16 0 8 8 16 40
Neighs:        79213.3 ave      114518 max           0 min
Histogram: 8 4 4 0 8 8 8 8 20 36

Total # of neighbors = 8238183
Ave neighs/atom = 28.530405
Neighbor list builds = 1
Dangerous builds = 0
The dot product: -4.63011730258723e-08
Setting atom values ...
  1 settings made for x
  1 settings made for y
  1 settings made for z
Setting up cg style minimization ...
  Unit style    : metal
  Current step  : 4461
Per MPI rank memory allocation (min/avg/max) = 5.441 | 5.816 | 6.074 Mbytes
Step PotEng KinEng TotEng v_fx v_fy v_fz 
    4461     -1152449            0     -1152449  0.023412881 -0.024690658  -0.13266525 
    4633     -1152449            0     -1152449 -6.9776596e-06 1.4942823e-05 -2.7636288e-05 
Loop time of 1.99681 on 104 procs for 172 steps with 288751 atoms

99.9% CPU use with 104 MPI tasks x 1 OpenMP threads

Minimization stats:
  Stopping criterion = energy tolerance
  Energy initial, next-to-last, final = 
     -1152448.95838403  -1152448.96190026  -1152448.96190026
  Force two-norm initial, final = 0.24793068 0.00018198704
  Force max component initial, final = 0.16639706 5.6629559e-05
  Final line search alpha, max atom move = 1.0000000 5.6629559e-05
  Iterations, force evaluations = 172 344

MPI task timing breakdown:
Section |  min time  |  avg time  |  max time  |%varavg| %total
---------------------------------------------------------------
Pair    | 0.51705    | 1.4464     | 1.8762     |  32.6 | 72.44
Neigh   | 0          | 0          | 0          |   0.0 |  0.00
Comm    | 0.030984   | 0.32517    | 0.97453    |  47.9 | 16.28
Output  | 0          | 0          | 0          |   0.0 |  0.00
Modify  | 2.1076e-05 | 0.0028408  | 0.006058   |   2.5 |  0.14
Other   |            | 0.2224     |            |       | 11.14

Nlocal:        2776.45 ave        3953 max           0 min
Histogram: 8 4 4 0 4 12 8 2 28 34
Nghost:        3879.12 ave        5424 max         232 min
Histogram: 8 0 8 0 16 0 8 8 16 40
Neighs:        79213.3 ave      115222 max           0 min
Histogram: 8 4 4 0 10 6 8 8 24 32

Total # of neighbors = 8238183
Ave neighs/atom = 28.530405
Neighbor list builds = 0
Dangerous builds = 0
The dot product: 6.48560565201853e-07
Setting atom values ...
  1 settings made for x
  1 settings made for y
  1 settings made for z
Setting up cg style minimization ...
  Unit style    : metal
  Current step  : 4633
Per MPI rank memory allocation (min/avg/max) = 5.441 | 5.816 | 6.074 Mbytes
Step PotEng KinEng TotEng v_fx v_fy v_fz 
    4633   -1152448.9            0   -1152448.9  0.013671961 -0.0093033747 -0.065895746 
    4805   -1152448.9            0   -1152448.9 -6.9630215e-06 9.221774e-06 1.1495391e-05 
Loop time of 2.01789 on 104 procs for 172 steps with 288751 atoms

99.9% CPU use with 104 MPI tasks x 1 OpenMP threads

Minimization stats:
  Stopping criterion = energy tolerance
  Energy initial, next-to-last, final = 
     -1152448.93946489  -1152448.94177561  -1152448.94177561
  Force two-norm initial, final = 0.22215317 6.7967886e-05
  Force max component initial, final = 0.16907259 1.1495391e-05
  Final line search alpha, max atom move = 1.0000000 1.1495391e-05
  Iterations, force evaluations = 172 344

MPI task timing breakdown:
Section |  min time  |  avg time  |  max time  |%varavg| %total
---------------------------------------------------------------
Pair    | 0.52118    | 1.4512     | 1.8931     |  32.5 | 71.92
Neigh   | 0          | 0          | 0          |   0.0 |  0.00
Comm    | 0.040375   | 0.32777    | 0.97698    |  47.5 | 16.24
Output  | 0          | 0          | 0          |   0.0 |  0.00
Modify  | 2.1265e-05 | 0.0028384  | 0.0060329  |   2.5 |  0.14
Other   |            | 0.2361     |            |       | 11.70

Nlocal:        2776.45 ave        3950 max           0 min
Histogram: 8 4 4 0 4 12 8 2 26 36
Nghost:        3879.09 ave        5424 max         232 min
Histogram: 8 0 8 0 16 0 8 8 16 40
Neighs:        79213.3 ave      115113 max           0 min
Histogram: 8 4 4 0 10 6 8 8 24 32

Total # of neighbors = 8238186
Ave neighs/atom = 28.530415
Neighbor list builds = 0
Dangerous builds = 0
The dot product: -1.72917780936467e-07
Setting atom values ...
  1 settings made for x
  1 settings made for y
  1 settings made for z
Setting up cg style minimization ...
  Unit style    : metal
  Current step  : 4805
Per MPI rank memory allocation (min/avg/max) = 5.441 | 5.816 | 6.074 Mbytes
Step PotEng KinEng TotEng v_fx v_fy v_fz 
    4805   -1152448.9            0   -1152448.9 0.0084647715 -0.0039596779 -0.040622005 
    5000   -1152448.9            0   -1152448.9 4.5449391e-06 -5.1454646e-06 -9.5227072e-06 
    5113   -1152448.9            0   -1152448.9 2.6452503e-08 -7.1599829e-08 1.1408889e-07 
Loop time of 3.56359 on 104 procs for 308 steps with 288751 atoms

99.9% CPU use with 104 MPI tasks x 1 OpenMP threads

Minimization stats:
  Stopping criterion = energy tolerance
  Energy initial, next-to-last, final = 
      -1152448.9193395  -1152448.92162158  -1152448.92162158
  Force two-norm initial, final = 0.22067109 7.4510446e-07
  Force max component initial, final = 0.17129853 1.1408889e-07
  Final line search alpha, max atom move = 1.0000000 1.1408889e-07
  Iterations, force evaluations = 308 616

MPI task timing breakdown:
Section |  min time  |  avg time  |  max time  |%varavg| %total
---------------------------------------------------------------
Pair    | 0.93218    | 2.5859     | 3.3526     |  43.3 | 72.56
Neigh   | 0          | 0          | 0          |   0.0 |  0.00
Comm    | 0.055296   | 0.57667    | 1.7484     |  64.3 | 16.18
Output  | 0.00021971 | 0.00022403 | 0.00035455 |   0.0 |  0.01
Modify  | 3.7768e-05 | 0.0050753  | 0.010803   |   3.3 |  0.14
Other   |            | 0.3958     |            |       | 11.11

Nlocal:        2776.45 ave        3950 max           0 min
Histogram: 8 4 4 0 4 12 8 2 26 36
Nghost:        3879.09 ave        5424 max         232 min
Histogram: 8 0 8 0 16 0 8 8 16 40
Neighs:        79213.3 ave      115113 max           0 min
Histogram: 8 4 4 0 10 6 8 8 24 32

Total # of neighbors = 8238183
Ave neighs/atom = 28.530405
Neighbor list builds = 0
Dangerous builds = 0
The dot product: -8.56454131573455e-10
Setting atom values ...
  1 settings made for x
  1 settings made for y
  1 settings made for z
Setting up cg style minimization ...
  Unit style    : metal
  Current step  : 5113
Per MPI rank memory allocation (min/avg/max) = 5.441 | 5.816 | 6.074 Mbytes
Step PotEng KinEng TotEng v_fx v_fy v_fz 
    5113   -1152448.9            0   -1152448.9 0.0063214305 -0.0022501818 -0.029883931 
    5240   -1152448.9            0   -1152448.9 1.2181188e-05 -1.8734737e-05 -4.570463e-06 
Loop time of 1.47146 on 104 procs for 127 steps with 288751 atoms

99.9% CPU use with 104 MPI tasks x 1 OpenMP threads

Minimization stats:
  Stopping criterion = energy tolerance
  Energy initial, next-to-last, final = 
     -1152448.89935761  -1152448.90132763  -1152448.90132763
  Force two-norm initial, final = 0.22062953 0.00024341151
  Force max component initial, final = 0.17366439 4.9255837e-05
  Final line search alpha, max atom move = 1.0000000 4.9255837e-05
  Iterations, force evaluations = 127 254

MPI task timing breakdown:
Section |  min time  |  avg time  |  max time  |%varavg| %total
---------------------------------------------------------------
Pair    | 0.38352    | 1.0702     | 1.3869     |  27.9 | 72.73
Neigh   | 0          | 0          | 0          |   0.0 |  0.00
Comm    | 0.025745   | 0.23836    | 0.71572    |  41.3 | 16.20
Output  | 0          | 0          | 0          |   0.0 |  0.00
Modify  | 1.5732e-05 | 0.0020974  | 0.0044569  |   2.2 |  0.14
Other   |            | 0.1608     |            |       | 10.93

Nlocal:        2776.45 ave        3950 max           0 min
Histogram: 8 4 4 0 4 12 8 2 26 36
Nghost:        3879.09 ave        5424 max         232 min
Histogram: 8 0 8 0 16 0 8 8 16 40
Neighs:        79213.3 ave      115113 max           0 min
Histogram: 8 4 4 0 10 6 8 8 24 32

Total # of neighbors = 8238182
Ave neighs/atom = 28.530402
Neighbor list builds = 0
Dangerous builds = 0
The dot product: 3.28157356038318e-08
Setting atom values ...
  1 settings made for x
  1 settings made for y
  1 settings made for z
Setting up cg style minimization ...
  Unit style    : metal
  Current step  : 5240
Per MPI rank memory allocation (min/avg/max) = 5.441 | 5.816 | 6.074 Mbytes
Step PotEng KinEng TotEng v_fx v_fy v_fz 
    5240   -1152448.9            0   -1152448.9 0.0046759635 -0.0019453377 -0.019955921 
    5443   -1152448.9            0   -1152448.9 1.3273337e-06 1.8187281e-06 -1.3952614e-05 
Loop time of 2.35503 on 104 procs for 203 steps with 288751 atoms

99.9% CPU use with 104 MPI tasks x 1 OpenMP threads

Minimization stats:
  Stopping criterion = energy tolerance
  Energy initial, next-to-last, final = 
     -1152448.87794439  -1152448.87975432  -1152448.87975432
  Force two-norm initial, final = 0.21934319 6.5197577e-05
  Force max component initial, final = 0.17592038 1.7738327e-05
  Final line search alpha, max atom move = 1.0000000 1.7738327e-05
  Iterations, force evaluations = 203 406

MPI task timing breakdown:
Section |  min time  |  avg time  |  max time  |%varavg| %total
---------------------------------------------------------------
Pair    | 0.61864    | 1.7028     | 2.2078     |  35.0 | 72.30
Neigh   | 0          | 0          | 0          |   0.0 |  0.00
Comm    | 0.03654    | 0.3808     | 1.1451     |  51.7 | 16.17
Output  | 0          | 0          | 0          |   0.0 |  0.00
Modify  | 2.4488e-05 | 0.0033533  | 0.007143   |   2.7 |  0.14
Other   |            | 0.2681     |            |       | 11.39

Nlocal:        2776.45 ave        3949 max           0 min
Histogram: 8 4 4 0 4 12 8 2 26 36
Nghost:        3879.09 ave        5424 max         232 min
Histogram: 8 0 8 0 16 0 8 8 16 40
Neighs:        79213.3 ave      115080 max           0 min
Histogram: 8 4 4 0 10 6 8 8 24 32

Total # of neighbors = 8238180
Ave neighs/atom = 28.530395
Neighbor list builds = 0
Dangerous builds = 0
The dot product: 3.00359840256107e-08
Setting atom values ...
  1 settings made for x
  1 settings made for y
  1 settings made for z
Setting up cg style minimization ...
  Unit style    : metal
  Current step  : 5443
Per MPI rank memory allocation (min/avg/max) = 5.441 | 5.816 | 6.074 Mbytes
Step PotEng KinEng TotEng v_fx v_fy v_fz 
    5443   -1152448.9            0   -1152448.9 0.0033284418 -0.0015507384 -0.013329072 
    5575   -1152448.9            0   -1152448.9 4.4830629e-06 -1.3678093e-05 2.1641043e-05 
Loop time of 1.53896 on 104 procs for 132 steps with 288751 atoms

99.9% CPU use with 104 MPI tasks x 1 OpenMP threads

Minimization stats:
  Stopping criterion = energy tolerance
  Energy initial, next-to-last, final = 
     -1152448.85435594  -1152448.85627953  -1152448.85627953
  Force two-norm initial, final = 0.22332556 0.00024385003
  Force max component initial, final = 0.17820275 8.0481619e-05
  Final line search alpha, max atom move = 1.0000000 8.0481619e-05
  Iterations, force evaluations = 132 264

MPI task timing breakdown:
Section |  min time  |  avg time  |  max time  |%varavg| %total
---------------------------------------------------------------
Pair    | 0.40028    | 1.1155     | 1.4515     |  28.5 | 72.48
Neigh   | 0          | 0          | 0          |   0.0 |  0.00
Comm    | 0.027896   | 0.25009    | 0.75223    |  42.1 | 16.25
Output  | 0          | 0          | 0          |   0.0 |  0.00
Modify  | 1.7203e-05 | 0.0021812  | 0.0046384  |   2.2 |  0.14
Other   |            | 0.1712     |            |       | 11.12

Nlocal:        2776.45 ave        3945 max           0 min
Histogram: 8 4 4 0 4 12 8 2 26 36
Nghost:        3879.12 ave        5424 max         232 min
Histogram: 8 0 8 0 16 0 8 8 16 40
Neighs:        79213.3 ave      114941 max           0 min
Histogram: 8 4 4 0 10 6 8 8 22 34

Total # of neighbors = 8238179
Ave neighs/atom = 28.530391
Neighbor list builds = 0
Dangerous builds = 0
The dot product: -2.37752434278073e-08
Setting atom values ...
  1 settings made for x
  1 settings made for y
  1 settings made for z
Setting up cg style minimization ...
  Unit style    : metal
  Current step  : 5575
Per MPI rank memory allocation (min/avg/max) = 5.441 | 5.816 | 6.074 Mbytes
Step PotEng KinEng TotEng v_fx v_fy v_fz 
    5575   -1152448.8            0   -1152448.8 0.0025483192 -0.0013316468 -0.0096593646 
    5772   -1152448.8            0   -1152448.8 7.5742016e-06 -1.2359385e-05 -2.5143002e-07 
Loop time of 2.27469 on 104 procs for 197 steps with 288751 atoms

99.9% CPU use with 104 MPI tasks x 1 OpenMP threads

Minimization stats:
  Stopping criterion = energy tolerance
  Energy initial, next-to-last, final = 
     -1152448.82864345  -1152448.83067994  -1152448.83067994
  Force two-norm initial, final = 0.22805222 8.4932647e-05
  Force max component initial, final = 0.18056142 2.6392855e-05
  Final line search alpha, max atom move = 1.0000000 2.6392855e-05
  Iterations, force evaluations = 197 394

MPI task timing breakdown:
Section |  min time  |  avg time  |  max time  |%varavg| %total
---------------------------------------------------------------
Pair    | 0.59976    | 1.652      | 2.1415     |  34.6 | 72.63
Neigh   | 0          | 0          | 0          |   0.0 |  0.00
Comm    | 0.036657   | 0.36906    | 1.1135     |  51.2 | 16.22
Output  | 0          | 0          | 0          |   0.0 |  0.00
Modify  | 2.4458e-05 | 0.0032462  | 0.0069332  |   2.7 |  0.14
Other   |            | 0.2503     |            |       | 11.01

Nlocal:        2776.45 ave        3941 max           0 min
Histogram: 8 4 4 0 4 12 8 2 26 36
Nghost:        3879.12 ave        5424 max         232 min
Histogram: 8 0 8 0 16 0 8 8 16 40
Neighs:        79213.2 ave      114803 max           0 min
Histogram: 8 4 4 0 10 6 8 8 22 34

Total # of neighbors = 8238176
Ave neighs/atom = 28.530381
Neighbor list builds = 0
Dangerous builds = 0
The dot product: -1.20640784216538e-08
Setting atom values ...
  1 settings made for x
  1 settings made for y
  1 settings made for z
Setting up cg style minimization ...
  Unit style    : metal
  Current step  : 5772
Per MPI rank memory allocation (min/avg/max) = 5.441 | 5.816 | 6.074 Mbytes
Step PotEng KinEng TotEng v_fx v_fy v_fz 
    5772   -1152448.8            0   -1152448.8 0.0021641346 -0.0012820422 -0.0077025465 
    5930   -1152448.8            0   -1152448.8 1.063921e-06 1.1824378e-05 -4.5853594e-05 
Loop time of 1.8491 on 104 procs for 158 steps with 288751 atoms

99.9% CPU use with 104 MPI tasks x 1 OpenMP threads

Minimization stats:
  Stopping criterion = energy tolerance
  Energy initial, next-to-last, final = 
     -1152448.80069711  -1152448.80283142  -1152448.80283142
  Force two-norm initial, final = 0.23253955 0.00021356636
  Force max component initial, final = 0.18272619 7.2397522e-05
  Final line search alpha, max atom move = 1.0000000 7.2397522e-05
  Iterations, force evaluations = 158 316

MPI task timing breakdown:
Section |  min time  |  avg time  |  max time  |%varavg| %total
---------------------------------------------------------------
Pair    | 0.47803    | 1.3334     | 1.7362     |  31.2 | 72.11
Neigh   | 0          | 0          | 0          |   0.0 |  0.00
Comm    | 0.029584   | 0.29855    | 0.89488    |  45.9 | 16.15
Output  | 0          | 0          | 0          |   0.0 |  0.00
Modify  | 1.9551e-05 | 0.0026112  | 0.0055607  |   2.4 |  0.14
Other   |            | 0.2145     |            |       | 11.60

Nlocal:        2776.45 ave        3932 max           0 min
Histogram: 8 4 4 0 4 12 8 0 26 38
Nghost:        3879.12 ave        5424 max         232 min
Histogram: 8 0 8 0 16 0 8 8 16 40
Neighs:        79213.2 ave      114534 max           0 min
Histogram: 8 4 4 0 8 8 8 8 20 36

Total # of neighbors = 8238176
Ave neighs/atom = 28.530381
Neighbor list builds = 0
Dangerous builds = 0
The dot product: -6.3297966167064e-09
Setting atom values ...
  1 settings made for x
  1 settings made for y
  1 settings made for z
Setting up cg style minimization ...
  Unit style    : metal
  Current step  : 5930
Per MPI rank memory allocation (min/avg/max) = 5.441 | 5.816 | 6.074 Mbytes
Step PotEng KinEng TotEng v_fx v_fy v_fz 
    5930   -1152448.8            0   -1152448.8 0.0020661647 -0.0015083637 -0.0064331824 
    6000   -1152448.8            0   -1152448.8 -5.1322974e-05 0.00011403374 -9.905056e-05 
    6154   -1152448.8            0   -1152448.8 -1.4819065e-08 -6.0725772e-07 2.135679e-06 
Loop time of 2.61172 on 104 procs for 224 steps with 288751 atoms

99.9% CPU use with 104 MPI tasks x 1 OpenMP threads

Minimization stats:
  Stopping criterion = energy tolerance
  Energy initial, next-to-last, final = 
     -1152448.77043866  -1152448.77264922  -1152448.77264922
  Force two-norm initial, final = 0.23656793 4.3317237e-05
  Force max component initial, final = 0.18512445 1.1397397e-05
  Final line search alpha, max atom move = 1.0000000 1.1397397e-05
  Iterations, force evaluations = 224 448

MPI task timing breakdown:
Section |  min time  |  avg time  |  max time  |%varavg| %total
---------------------------------------------------------------
Pair    | 0.68604    | 1.8825     | 2.4339     |  36.9 | 72.08
Neigh   | 0          | 0          | 0          |   0.0 |  0.00
Comm    | 0.054829   | 0.42301    | 1.2681     |  54.5 | 16.20
Output  | 0.00015393 | 0.00016157 | 0.00026497 |   0.0 |  0.01
Modify  | 2.711e-05  | 0.003691   | 0.0078848  |   2.9 |  0.14
Other   |            | 0.3024     |            |       | 11.58

Nlocal:        2776.45 ave        3931 max           0 min
Histogram: 8 4 4 0 4 12 8 0 26 38
Nghost:        3879.12 ave        5424 max         232 min
Histogram: 8 0 8 0 16 0 8 8 16 40
Neighs:        79213.2 ave      114492 max           0 min
Histogram: 8 4 4 0 8 8 8 8 20 36

Total # of neighbors = 8238169
Ave neighs/atom = 28.530357
Neighbor list builds = 0
Dangerous builds = 0
The dot product: 6.11198291729246e-10
Setting atom values ...
  1 settings made for x
  1 settings made for y
  1 settings made for z
Setting up cg style minimization ...
  Unit style    : metal
  Current step  : 6154
Per MPI rank memory allocation (min/avg/max) = 5.441 | 5.816 | 6.074 Mbytes
Step PotEng KinEng TotEng v_fx v_fy v_fz 
    6154   -1152448.7            0   -1152448.7 0.0022062246 -0.0019225849 -0.0058642886 
    6315   -1152448.7            0   -1152448.7 -6.7708587e-06 6.3510573e-06 1.6469908e-05 
Loop time of 1.87808 on 104 procs for 161 steps with 288751 atoms

99.9% CPU use with 104 MPI tasks x 1 OpenMP threads

Minimization stats:
  Stopping criterion = energy tolerance
  Energy initial, next-to-last, final = 
     -1152448.73781603  -1152448.74007775  -1152448.74007775
  Force two-norm initial, final = 0.23971788 0.00020534939
  Force max component initial, final = 0.18738835 8.1448189e-05
  Final line search alpha, max atom move = 1.0000000 8.1448189e-05
  Iterations, force evaluations = 161 322

MPI task timing breakdown:
Section |  min time  |  avg time  |  max time  |%varavg| %total
---------------------------------------------------------------
Pair    | 0.48913    | 1.3575     | 1.7556     |  31.4 | 72.28
Neigh   | 0          | 0          | 0          |   0.0 |  0.00
Comm    | 0.029548   | 0.30377    | 0.91294    |  46.2 | 16.17
Output  | 0          | 0          | 0          |   0.0 |  0.00
Modify  | 1.9522e-05 | 0.0026592  | 0.0056545  |   2.4 |  0.14
Other   |            | 0.2141     |            |       | 11.40

Nlocal:        2776.45 ave        3930 max           0 min
Histogram: 8 4 4 0 4 12 8 0 26 38
Nghost:        3879.11 ave        5424 max         232 min
Histogram: 8 0 8 0 16 0 8 8 16 40
Neighs:        79213.1 ave      114457 max           0 min
Histogram: 8 4 4 0 8 8 8 8 20 36

Total # of neighbors = 8238166
Ave neighs/atom = 28.530346
Neighbor list builds = 0
Dangerous builds = 0
The dot product: 1.85907277937921e-08
Setting atom values ...
  1 settings made for x
  1 settings made for y
  1 settings made for z
Setting up cg style minimization ...
  Unit style    : metal
  Current step  : 6315
Per MPI rank memory allocation (min/avg/max) = 5.441 | 5.816 | 6.074 Mbytes
Step PotEng KinEng TotEng v_fx v_fy v_fz 
    6315   -1152448.7            0   -1152448.7 0.0024600122 -0.0024275967 -0.0056359696 
    6492   -1152448.7            0   -1152448.7 -4.78374e-06 7.2781812e-06 2.2556904e-06 
Loop time of 2.0444 on 104 procs for 177 steps with 288751 atoms

99.9% CPU use with 104 MPI tasks x 1 OpenMP threads

Minimization stats:
  Stopping criterion = energy tolerance
  Energy initial, next-to-last, final = 
     -1152448.70279719   -1152448.7050894   -1152448.7050894
  Force two-norm initial, final = 0.24213094 0.00024480656
  Force max component initial, final = 0.18965361 7.6210401e-05
  Final line search alpha, max atom move = 1.0000000 7.6210401e-05
  Iterations, force evaluations = 177 354

MPI task timing breakdown:
Section |  min time  |  avg time  |  max time  |%varavg| %total
---------------------------------------------------------------
Pair    | 0.53678    | 1.4867     | 1.9253     |  32.9 | 72.72
Neigh   | 0          | 0          | 0          |   0.0 |  0.00
Comm    | 0.031276   | 0.33116    | 1.0028     |  48.7 | 16.20
Output  | 0          | 0          | 0          |   0.0 |  0.00
Modify  | 2.1392e-05 | 0.00292    | 0.0062108  |   2.5 |  0.14
Other   |            | 0.2236     |            |       | 10.94

Nlocal:        2776.45 ave        3930 max           0 min
Histogram: 8 4 4 0 4 12 8 0 26 38
Nghost:        3879.09 ave        5424 max         232 min
Histogram: 8 0 8 0 16 0 8 8 16 40
Neighs:        79213.1 ave      114458 max           0 min
Histogram: 8 4 4 0 8 8 8 8 20 36

Total # of neighbors = 8238166
Ave neighs/atom = 28.530346
Neighbor list builds = 0
Dangerous builds = 0
The dot product: 8.20939107512198e-09
Setting atom values ...
  1 settings made for x
  1 settings made for y
  1 settings made for z
Setting up cg style minimization ...
  Unit style    : metal
  Current step  : 6492
Per MPI rank memory allocation (min/avg/max) = 5.441 | 5.816 | 6.074 Mbytes
Step PotEng KinEng TotEng v_fx v_fy v_fz 
    6492   -1152448.7            0   -1152448.7 0.0028738021 -0.0030292488 -0.0059916125 
    6680   -1152448.7            0   -1152448.7 1.0306353e-06 8.5239446e-07 -8.7789421e-06 
Loop time of 2.18257 on 104 procs for 188 steps with 288751 atoms

99.9% CPU use with 104 MPI tasks x 1 OpenMP threads

Minimization stats:
  Stopping criterion = energy tolerance
  Energy initial, next-to-last, final = 
     -1152448.66537439  -1152448.66767972  -1152448.66767972
  Force two-norm initial, final = 0.24408392 0.00015387571
  Force max component initial, final = 0.19205724 5.4980014e-05
  Final line search alpha, max atom move = 1.0000000 5.4980014e-05
  Iterations, force evaluations = 188 376

MPI task timing breakdown:
Section |  min time  |  avg time  |  max time  |%varavg| %total
---------------------------------------------------------------
Pair    | 0.56771    | 1.5851     | 2.0558     |  34.0 | 72.63
Neigh   | 0          | 0          | 0          |   0.0 |  0.00
Comm    | 0.041954   | 0.3552     | 1.0685     |  50.2 | 16.27
Output  | 0          | 0          | 0          |   0.0 |  0.00
Modify  | 2.3096e-05 | 0.0031151  | 0.0065968  |   2.6 |  0.14
Other   |            | 0.2391     |            |       | 10.96

Nlocal:        2776.45 ave        3930 max           0 min
Histogram: 8 4 4 0 4 12 8 0 26 38
Nghost:        3879.07 ave        5424 max         232 min
Histogram: 8 0 8 0 16 0 8 8 16 40
Neighs:        79213.1 ave      114457 max           0 min
Histogram: 8 4 4 0 8 8 8 8 20 36

Total # of neighbors = 8238163
Ave neighs/atom = 28.530336
Neighbor list builds = 0
Dangerous builds = 0
The dot product: -6.8120415007621e-09
Setting atom values ...
  1 settings made for x
  1 settings made for y
  1 settings made for z
Setting up cg style minimization ...
  Unit style    : metal
  Current step  : 6680
Per MPI rank memory allocation (min/avg/max) = 5.441 | 5.816 | 6.074 Mbytes
Step PotEng KinEng TotEng v_fx v_fy v_fz 
    6680   -1152448.6            0   -1152448.6 0.0034121361 -0.0037515315 -0.0066575649 
    6832   -1152448.6            0   -1152448.6 1.2411319e-06 2.0145835e-06 -1.404039e-05 
Loop time of 1.75602 on 104 procs for 152 steps with 288751 atoms

99.9% CPU use with 104 MPI tasks x 1 OpenMP threads

[...]
Nghost:        3879.16 ave        5425 max         232 min
Histogram: 8 0 8 0 16 0 8 8 16 40
Neighs:        79213.4 ave      115361 max           0 min
Histogram: 8 4 4 0 10 6 8 8 24 32

Total # of neighbors = 8238189
Ave neighs/atom = 28.530426
Neighbor list builds = 0
Dangerous builds = 0
The dot product: -3.11348708401458e-08
Setting atom values ...
  1 settings made for x
  1 settings made for y
  1 settings made for z
Setting up cg style minimization ...
  Unit style    : metal
  Current step  : 19858
Per MPI rank memory allocation (min/avg/max) = 5.441 | 5.816 | 6.074 Mbytes
Step PotEng KinEng TotEng v_fx v_fy v_fz 
   19858   -1152449.3            0   -1152449.3 -0.018668851  0.026764879 -0.023841465 
   20000   -1152449.3            0   -1152449.3 -6.9868536e-05 3.784796e-05 -8.1505218e-05 
   20036   -1152449.3            0   -1152449.3 -1.0094458e-05 -5.3862042e-07 -1.1031412e-05 
Loop time of 2.08237 on 104 procs for 178 steps with 288751 atoms

99.9% CPU use with 104 MPI tasks x 1 OpenMP threads

Minimization stats:
  Stopping criterion = energy tolerance
  Energy initial, next-to-last, final = 
     -1152449.26891642  -1152449.26986367  -1152449.26986367
  Force two-norm initial, final = 0.13379731 0.00014860206
  Force max component initial, final = 0.049774039 1.7962422e-05
  Final line search alpha, max atom move = 1.0000000 1.7962422e-05
  Iterations, force evaluations = 178 356

MPI task timing breakdown:
Section |  min time  |  avg time  |  max time  |%varavg| %total
---------------------------------------------------------------
Pair    | 0.53604    | 1.495      | 1.9627     |  33.2 | 71.79
Neigh   | 0          | 0          | 0          |   0.0 |  0.00
Comm    | 0.032416   | 0.34116    | 1.0071     |  47.8 | 16.38
Output  | 0.00015875 | 0.00016697 | 0.00032801 |   0.0 |  0.01
Modify  | 2.1754e-05 | 0.0029381  | 0.0062909  |   2.6 |  0.14
Other   |            | 0.2431     |            |       | 11.67

Nlocal:        2776.45 ave        3960 max           0 min
Histogram: 8 4 4 0 4 12 8 4 26 34
Nghost:        3879.16 ave        5424 max         232 min
Histogram: 8 0 8 0 16 0 8 8 16 40
Neighs:        79213.4 ave      115361 max           0 min
Histogram: 8 4 4 0 10 6 8 8 24 32

Total # of neighbors = 8238190
Ave neighs/atom = 28.530429
Neighbor list builds = 0
Dangerous builds = 0
The dot product: 2.10234028453442e-08
Setting atom values ...
  1 settings made for x
  1 settings made for y
  1 settings made for z
Setting up cg style minimization ...
  Unit style    : metal
  Current step  : 20036
Per MPI rank memory allocation (min/avg/max) = 5.441 | 5.816 | 6.074 Mbytes
Step PotEng KinEng TotEng v_fx v_fy v_fz 
   20036   -1152449.3            0   -1152449.3  -0.02032976  0.023738604 -0.025349266 
   20259   -1152449.3            0   -1152449.3 5.1399128e-06 -2.1689166e-06 5.9297106e-06 
Loop time of 2.6646 on 104 procs for 223 steps with 288751 atoms

99.9% CPU use with 104 MPI tasks x 1 OpenMP threads

Minimization stats:
  Stopping criterion = energy tolerance
  Energy initial, next-to-last, final = 
     -1152449.25336329  -1152449.25428971  -1152449.25428971
  Force two-norm initial, final = 0.13318986 2.5427932e-05
  Force max component initial, final = 0.04892366 5.9297106e-06
  Final line search alpha, max atom move = 1.0000000 5.9297106e-06
  Iterations, force evaluations = 223 446

MPI task timing breakdown:
Section |  min time  |  avg time  |  max time  |%varavg| %total
---------------------------------------------------------------
Pair    | 0.66938    | 1.8775     | 2.4834     |  37.3 | 70.46
Neigh   | 0          | 0          | 0          |   0.0 |  0.00
Comm    | 0.040461   | 0.4371     | 1.2749     |  52.7 | 16.40
Output  | 0          | 0          | 0          |   0.0 |  0.00
Modify  | 2.738e-05  | 0.0036848  | 0.0079124  |   2.9 |  0.14
Other   |            | 0.3463     |            |       | 13.00

Nlocal:        2776.45 ave        3960 max           0 min
Histogram: 8 4 4 0 4 12 8 4 26 34
Nghost:        3879.11 ave        5424 max         232 min
Histogram: 8 0 8 0 16 0 8 8 16 40
Neighs:        79213.4 ave      115352 max           0 min
Histogram: 8 4 4 0 10 6 8 8 24 32

Total # of neighbors = 8238190
Ave neighs/atom = 28.530429
Neighbor list builds = 0
Dangerous builds = 0
The dot product: -1.57063464085524e-08
Setting atom values ...
  1 settings made for x
  1 settings made for y
  1 settings made for z
Setting up cg style minimization ...
  Unit style    : metal
  Current step  : 20259
Per MPI rank memory allocation (min/avg/max) = 5.441 | 5.816 | 6.074 Mbytes
Step PotEng KinEng TotEng v_fx v_fy v_fz 
   20259   -1152449.2            0   -1152449.2 -0.022765633  0.020799577 -0.027721499 
   20432   -1152449.2            0   -1152449.2 2.0417641e-05 -2.0147431e-05 2.5050612e-05 
Loop time of 2.02608 on 104 procs for 173 steps with 288751 atoms

99.9% CPU use with 104 MPI tasks x 1 OpenMP threads

Minimization stats:
  Stopping criterion = energy tolerance
  Energy initial, next-to-last, final = 
     -1152449.23627097  -1152449.23717314  -1152449.23717314
  Force two-norm initial, final = 0.13294924 0.00018365873
  Force max component initial, final = 0.048871276 3.3880049e-05
  Final line search alpha, max atom move = 1.0000000 3.3880049e-05
  Iterations, force evaluations = 173 346

MPI task timing breakdown:
Section |  min time  |  avg time  |  max time  |%varavg| %total
---------------------------------------------------------------
Pair    | 0.51875    | 1.453      | 1.9106     |  32.7 | 71.71
Neigh   | 0          | 0          | 0          |   0.0 |  0.00
Comm    | 0.030077   | 0.33188    | 0.98073    |  47.2 | 16.38
Output  | 0          | 0          | 0          |   0.0 |  0.00
Modify  | 2.1648e-05 | 0.0028571  | 0.0061104  |   2.5 |  0.14
Other   |            | 0.2384     |            |       | 11.77

Nlocal:        2776.45 ave        3960 max           0 min
Histogram: 8 4 4 0 4 12 8 4 26 34
Nghost:        3879.11 ave        5424 max         232 min
Histogram: 8 0 8 0 16 0 8 8 16 40
Neighs:        79213.4 ave      115367 max           0 min
Histogram: 8 4 4 0 10 6 8 8 24 32

Total # of neighbors = 8238189
Ave neighs/atom = 28.530426
Neighbor list builds = 0
Dangerous builds = 0
The dot product: -8.81576337921581e-08
Setting atom values ...
  1 settings made for x
  1 settings made for y
  1 settings made for z
Setting up cg style minimization ...
  Unit style    : metal
  Current step  : 20432
Per MPI rank memory allocation (min/avg/max) = 5.441 | 5.816 | 6.074 Mbytes
Step PotEng KinEng TotEng v_fx v_fy v_fz 
   20432   -1152449.2            0   -1152449.2 -0.026241737  0.018240368 -0.031299192 
   20693   -1152449.2            0   -1152449.2 -9.9744583e-08 -6.3619871e-07 -2.9350051e-08 
Loop time of 3.10428 on 104 procs for 261 steps with 288751 atoms

99.9% CPU use with 104 MPI tasks x 1 OpenMP threads

Minimization stats:
  Stopping criterion = energy tolerance
  Energy initial, next-to-last, final = 
     -1152449.21767866  -1152449.21855599  -1152449.21855599
  Force two-norm initial, final = 0.13342387 4.1580257e-06
  Force max component initial, final = 0.048759882 6.3619871e-07
  Final line search alpha, max atom move = 1.0000000 6.3619871e-07
  Iterations, force evaluations = 261 522

MPI task timing breakdown:
Section |  min time  |  avg time  |  max time  |%varavg| %total
---------------------------------------------------------------
Pair    | 0.78472    | 2.1959     | 2.9149     |  40.3 | 70.74
Neigh   | 0          | 0          | 0          |   0.0 |  0.00
Comm    | 0.047807   | 0.5116     | 1.4924     |  57.1 | 16.48
Output  | 0          | 0          | 0          |   0.0 |  0.00
Modify  | 3.1965e-05 | 0.0043129  | 0.0091982  |   3.1 |  0.14
Other   |            | 0.3925     |            |       | 12.64

Nlocal:        2776.45 ave        3960 max           0 min
Histogram: 8 4 4 0 4 12 8 4 26 34
Nghost:        3879.11 ave        5424 max         232 min
Histogram: 8 0 8 0 16 0 8 8 16 40
Neighs:        79213.4 ave      115374 max           0 min
Histogram: 8 4 4 0 10 6 8 8 24 32

Total # of neighbors = 8238189
Ave neighs/atom = 28.530426
Neighbor list builds = 0
Dangerous builds = 0
The dot product: -4.85177373092451e-10
Setting atom values ...
  1 settings made for x
  1 settings made for y
  1 settings made for z
Setting up cg style minimization ...
  Unit style    : metal
  Current step  : 20693
Per MPI rank memory allocation (min/avg/max) = 5.441 | 5.816 | 6.074 Mbytes
Step PotEng KinEng TotEng v_fx v_fy v_fz 
   20693   -1152449.2            0   -1152449.2 -0.031749147  0.015883065 -0.037175683 
   20882   -1152449.2            0   -1152449.2 2.1742917e-05 9.6115308e-06 2.2838369e-05 
Loop time of 2.21001 on 104 procs for 189 steps with 288751 atoms

99.9% CPU use with 104 MPI tasks x 1 OpenMP threads

Minimization stats:
  Stopping criterion = energy tolerance
  Energy initial, next-to-last, final = 
     -1152449.19768427  -1152449.19854884  -1152449.19854884
  Force two-norm initial, final = 0.13547016 0.0001071581
  Force max component initial, final = 0.050939971 2.4817036e-05
  Final line search alpha, max atom move = 1.0000000 2.4817036e-05
  Iterations, force evaluations = 189 378

MPI task timing breakdown:
Section |  min time  |  avg time  |  max time  |%varavg| %total
---------------------------------------------------------------
Pair    | 0.56758    | 1.5856     | 2.0836     |  34.2 | 71.75
Neigh   | 0          | 0          | 0          |   0.0 |  0.00
Comm    | 0.034225   | 0.36113    | 1.0652     |  49.3 | 16.34
Output  | 0          | 0          | 0          |   0.0 |  0.00
Modify  | 2.3297e-05 | 0.0031226  | 0.0066926  |   2.6 |  0.14
Other   |            | 0.2601     |            |       | 11.77

Nlocal:        2776.45 ave        3960 max           0 min
Histogram: 8 4 4 0 4 12 8 4 26 34
Nghost:        3879.15 ave        5424 max         232 min
Histogram: 8 0 8 0 16 0 8 8 16 40
Neighs:        79213.3 ave      115374 max           0 min
Histogram: 8 4 4 0 10 6 8 8 24 32

Total # of neighbors = 8238188
Ave neighs/atom = 28.530422
Neighbor list builds = 0
Dangerous builds = 0
The dot product: -1.1493600311063e-07
Setting atom values ...
  1 settings made for x
  1 settings made for y
  1 settings made for z
Setting up cg style minimization ...
  Unit style    : metal
  Current step  : 20882
Per MPI rank memory allocation (min/avg/max) = 5.441 | 5.816 | 6.074 Mbytes
Step PotEng KinEng TotEng v_fx v_fy v_fz 
   20882   -1152449.2            0   -1152449.2 -0.041372139   0.01310685 -0.047645421 
   21000   -1152449.2            0   -1152449.2 0.0024521528 0.00015465563 0.0027039341 
   21153   -1152449.2            0   -1152449.2 -1.32293e-05 -4.2936309e-06 -1.4141869e-05 
Loop time of 3.20093 on 104 procs for 271 steps with 288751 atoms

99.9% CPU use with 104 MPI tasks x 1 OpenMP threads

Minimization stats:
  Stopping criterion = energy tolerance
  Energy initial, next-to-last, final = 
     -1152449.17655937  -1152449.24747644  -1152449.24747644
  Force two-norm initial, final = 0.14183626 8.5448094e-05
  Force max component initial, final = 0.053977611 1.9298649e-05
  Final line search alpha, max atom move = 1.0000000 1.9298649e-05
  Iterations, force evaluations = 271 542

MPI task timing breakdown:
Section |  min time  |  avg time  |  max time  |%varavg| %total
---------------------------------------------------------------
Pair    | 0.81875    | 2.2829     | 3.0093     |  41.1 | 71.32
Neigh   | 1.0337e-05 | 0.0029342  | 0.0042767  |   2.2 |  0.09
Comm    | 0.051248   | 0.52857    | 1.5453     |  58.5 | 16.51
Output  | 0.0001623  | 0.00016505 | 0.00032435 |   0.0 |  0.01
Modify  | 3.3799e-05 | 0.0044751  | 0.0095516  |   3.2 |  0.14
Other   |            | 0.3819     |            |       | 11.93

Nlocal:        2776.45 ave        3960 max           0 min
Histogram: 8 4 4 0 4 12 8 4 26 34
Nghost:        3879.16 ave        5424 max         232 min
Histogram: 8 0 8 0 16 0 8 8 16 40
Neighs:        79213.3 ave      115374 max           0 min
Histogram: 8 4 4 0 10 6 8 8 24 32

Total # of neighbors = 8238184
Ave neighs/atom = 28.530409
Neighbor list builds = 1
Dangerous builds = 0
The dot product: 3.38699765853528e-06
Setting atom values ...
  1 settings made for x
  1 settings made for y
  1 settings made for z
Setting up cg style minimization ...
  Unit style    : metal
  Current step  : 21153
Per MPI rank memory allocation (min/avg/max) = 5.441 | 5.816 | 6.074 Mbytes
Step PotEng KinEng TotEng v_fx v_fy v_fz 
   21153   -1152449.2            0   -1152449.2 -0.017073195 -0.048999153 -0.013851114 
   21407   -1152449.3            0   -1152449.3 1.1841101e-05 -1.8845741e-06 1.5810071e-05 
Loop time of 2.99122 on 104 procs for 254 steps with 288751 atoms

99.9% CPU use with 104 MPI tasks x 1 OpenMP threads

Minimization stats:
  Stopping criterion = energy tolerance
  Energy initial, next-to-last, final = 
     -1152449.24882715  -1152449.28881984  -1152449.28881984
  Force two-norm initial, final = 0.14400612 6.1627596e-05
  Force max component initial, final = 0.061740363 1.5810071e-05
  Final line search alpha, max atom move = 1.0000000 1.5810071e-05
  Iterations, force evaluations = 254 507

MPI task timing breakdown:
Section |  min time  |  avg time  |  max time  |%varavg| %total
---------------------------------------------------------------
Pair    | 0.76287    | 2.1276     | 2.7943     |  39.5 | 71.13
Neigh   | 1.0307e-05 | 0.0029376  | 0.0042732  |   2.2 |  0.10
Comm    | 0.04728    | 0.48524    | 1.4326     |  57.2 | 16.22
Output  | 0          | 0          | 0          |   0.0 |  0.00
Modify  | 3.0849e-05 | 0.0041842  | 0.0089109  |   3.1 |  0.14
Other   |            | 0.3712     |            |       | 12.41

Nlocal:        2776.45 ave        3960 max           0 min
Histogram: 8 4 4 0 4 12 8 2 28 34
Nghost:        3879.11 ave        5423 max         232 min
Histogram: 8 0 8 0 16 0 8 8 16 40
Neighs:        79213.4 ave      115363 max           0 min
Histogram: 8 4 4 0 10 6 8 8 24 32

Total # of neighbors = 8238189
Ave neighs/atom = 28.530426
Neighbor list builds = 1
Dangerous builds = 0
The dot product: -1.35725420782836e-06
Setting atom values ...
  1 settings made for x
  1 settings made for y
  1 settings made for z
Setting up cg style minimization ...
  Unit style    : metal
  Current step  : 21407
Per MPI rank memory allocation (min/avg/max) = 5.441 | 5.816 | 6.074 Mbytes
Step PotEng KinEng TotEng v_fx v_fy v_fz 
   21407   -1152449.3            0   -1152449.3 0.0047093139 -0.020586158 0.0089773626 
   21576   -1152449.3            0   -1152449.3 -6.4010337e-06 -3.2952021e-05 -5.1608186e-06 
Loop time of 1.99026 on 104 procs for 169 steps with 288751 atoms

99.9% CPU use with 104 MPI tasks x 1 OpenMP threads

Minimization stats:
  Stopping criterion = energy tolerance
  Energy initial, next-to-last, final = 
     -1152449.29986133  -1152449.30089658  -1152449.30089658
  Force two-norm initial, final = 0.13283727 0.00021782763
  Force max component initial, final = 0.055717459 4.4998887e-05
  Final line search alpha, max atom move = 1.0000000 4.4998887e-05
  Iterations, force evaluations = 169 338

MPI task timing breakdown:
Section |  min time  |  avg time  |  max time  |%varavg| %total
---------------------------------------------------------------
Pair    | 0.50628    | 1.4218     | 1.8777     |  32.5 | 71.44
Neigh   | 0          | 0          | 0          |   0.0 |  0.00
Comm    | 0.029721   | 0.32935    | 0.96181    |  46.2 | 16.55
Output  | 0          | 0          | 0          |   0.0 |  0.00
Modify  | 2.0885e-05 | 0.0027957  | 0.0059767  |   2.5 |  0.14
Other   |            | 0.2363     |            |       | 11.88

Nlocal:        2776.45 ave        3960 max           0 min
Histogram: 8 4 4 0 4 12 8 2 28 34
Nghost:        3879.03 ave        5423 max         232 min
Histogram: 8 0 8 0 16 0 8 8 16 40
Neighs:        79213.4 ave      115346 max           0 min
Histogram: 8 4 4 0 10 6 8 8 24 32

Total # of neighbors = 8238192
Ave neighs/atom = 28.530436
Neighbor list builds = 0
Dangerous builds = 0
The dot product: -1.17279214866938e-07
Setting atom values ...
  1 settings made for x
  1 settings made for y
  1 settings made for z
Setting up cg style minimization ...
  Unit style    : metal
  Current step  : 21576
Per MPI rank memory allocation (min/avg/max) = 5.441 | 5.816 | 6.074 Mbytes
Step PotEng KinEng TotEng v_fx v_fy v_fz 
   21576   -1152449.3            0   -1152449.3 -0.0086620589 -0.047920951 -0.0064775225 
   21896   -1152449.3            0   -1152449.3 5.4062015e-09 1.1793574e-09 7.4138345e-09 
Loop time of 3.76716 on 104 procs for 320 steps with 288751 atoms

99.9% CPU use with 104 MPI tasks x 1 OpenMP threads

Minimization stats:
  Stopping criterion = energy tolerance
  Energy initial, next-to-last, final = 
     -1152449.31030222  -1152449.31133872  -1152449.31133872
  Force two-norm initial, final = 0.14118405 5.1113214e-07
  Force max component initial, final = 0.058327716 2.2551831e-08
  Final line search alpha, max atom move = 1.0000000 2.2551831e-08
  Iterations, force evaluations = 320 640

MPI task timing breakdown:
Section |  min time  |  avg time  |  max time  |%varavg| %total
---------------------------------------------------------------
Pair    | 0.96414    | 2.6889     | 3.531      |  44.3 | 71.38
Neigh   | 0          | 0          | 0          |   0.0 |  0.00
Comm    | 0.05707    | 0.61722    | 1.8072     |  63.7 | 16.38
Output  | 0          | 0          | 0          |   0.0 |  0.00
Modify  | 3.9235e-05 | 0.0052802  | 0.011273   |   3.4 |  0.14
Other   |            | 0.4558     |            |       | 12.10

Nlocal:        2776.45 ave        3960 max           0 min
Histogram: 8 4 4 0 4 12 8 2 28 34
Nghost:        3879.03 ave        5423 max         232 min
Histogram: 8 0 8 0 16 0 8 8 16 40
Neighs:        79213.4 ave      115346 max           0 min
Histogram: 8 4 4 0 10 6 8 8 24 32

Total # of neighbors = 8238192
Ave neighs/atom = 28.530436
Neighbor list builds = 0
Dangerous builds = 0
The dot product: -8.66943564429863e-12
Setting up cg style minimization ...
  Unit style    : metal
  Current step  : 21896
Per MPI rank memory allocation (min/avg/max) = 5.441 | 5.816 | 6.074 Mbytes
Step PotEng KinEng TotEng v_fx v_fy v_fz 
   21896   -1152449.3            0   -1152449.3   -0.3925647   0.03297389   0.28101463 
   22000   -1152449.3            0   -1152449.3 0.0003882007 5.042352e-05 0.00073231903 
   22120   -1152449.3            0   -1152449.3 7.0453403e-06 4.8334956e-07 3.0543898e-05 
Loop time of 2.68665 on 104 procs for 224 steps with 288751 atoms

99.9% CPU use with 104 MPI tasks x 1 OpenMP threads

Minimization stats:
  Stopping criterion = energy tolerance
  Energy initial, next-to-last, final = 
     -1152449.31133872  -1152449.34247308  -1152449.34247308
  Force two-norm initial, final = 0.48390448 0.00018495418
  Force max component initial, final = 0.3925647 4.9790158e-05
  Final line search alpha, max atom move = 1.0000000 4.9790158e-05
  Iterations, force evaluations = 224 448

MPI task timing breakdown:
Section |  min time  |  avg time  |  max time  |%varavg| %total
---------------------------------------------------------------
Pair    | 0.68621    | 1.8918     | 2.4955     |  37.1 | 70.42
Neigh   | 1.0168e-05 | 0.0029377  | 0.0042688  |   2.2 |  0.11
Comm    | 0.047995   | 0.44266    | 1.2763     |  52.3 | 16.48
Output  | 0.00026204 | 0.00026602 | 0.00042697 |   0.0 |  0.01
Modify  | 2.5826e-05 | 0.0024111  | 0.0061752  |   3.1 |  0.09
Other   |            | 0.3466     |            |       | 12.90

Nlocal:        2776.45 ave        3960 max           0 min
Histogram: 8 4 4 0 4 12 8 2 28 34
Nghost:        3879.03 ave        5423 max         232 min
Histogram: 8 0 8 0 16 0 8 8 16 40
Neighs:        79213.4 ave      115354 max           0 min
Histogram: 8 4 4 0 10 6 8 8 24 32

Total # of neighbors = 8238196
Ave neighs/atom = 28.530450
Neighbor list builds = 1
Dangerous builds = 0
