LAMMPS (29 Oct 2020)
OMP_NUM_THREADS environment is not set. Defaulting to 1 thread. (../comm.cpp:94)
  using 1 OpenMP thread(s) per MPI task
OMP_NUM_THREADS environment is not set. Defaulting to 1 thread. (../comm.cpp:94)
  using 1 OpenMP thread(s) per MPI task
Reading data file ...
  orthogonal box = (-122.39241 -121.13707 -37.090501) to (122.39241 121.13707 37.090501)
  13 by 4 by 1 MPI processor grid
  reading atoms ...
  288751 atoms
  read_data CPU = 0.441 seconds
199981 atoms in group inner
88770 atoms in group outer
1 atoms in group carbon
Neighbor list info ...
  update every 1 steps, delay 0 steps, check yes
  max neighbors/atom: 2000, page size: 100000
  master list distance cutoff = 5.6
  ghost atom cutoff = 5.6
  binsize = 2.8, bins = 88 87 27
  1 neighbor lists, perpetual/occasional/extra = 1 0 0
  (1) pair eam/alloy, perpetual
      attributes: half, newton on
      pair build: half/bin/atomonly/newton
      stencil: half/bin/3d/newton
      bin: standard
Setting up cg style minimization ...
  Unit style    : metal
  Current step  : 0
Per MPI rank memory allocation (min/avg/max) = 5.465 | 6.344 | 6.728 Mbytes
Step v_fx v_fy v_fz PotEng KinEng TotEng 
       0   -25.816239  -0.40745034    13.097731   -1152441.8            0   -1152441.8 
     250 -2.3704682e-05 -3.0094215e-06 2.3247188e-05     -1152449            0     -1152449 
Loop time of 5.48618 on 52 procs for 250 steps with 288751 atoms

99.9% CPU use with 52 MPI tasks x 1 OpenMP threads

Minimization stats:
  Stopping criterion = linesearch alpha is zero
  Energy initial, next-to-last, final = 
     -1152441.82201423  -1152448.97218898  -1152448.97218898
  Force two-norm initial, final = 47.220271 9.7784241e-05
  Force max component initial, final = 32.844188 2.3704682e-05
  Final line search alpha, max atom move = 0.5 1.1852341e-05
  Iterations, force evaluations = 250 497

MPI task timing breakdown:
Section |  min time  |  avg time  |  max time  |%varavg| %total
---------------------------------------------------------------
Pair    | 1.4896     | 3.9772     | 5.1832     |  53.8 | 72.49
Neigh   | 0.00018259 | 0.048762   | 0.072931   |   9.3 |  0.89
Comm    | 0.07305    | 0.87773    | 2.797      |  84.0 | 16.00
Output  | 0          | 0          | 0          |   0.0 |  0.00
Modify  | 6.5141e-05 | 0.0054739  | 0.013971   |   4.6 |  0.10
Other   |            | 0.577      |            |       | 10.52

Nlocal:        5552.90 ave        7901 max           0 min
Histogram: 4 2 2 0 2 6 4 0 15 17
Nghost:        6213.65 ave        8768 max         412 min
Histogram: 4 0 4 0 8 0 4 5 7 20
Neighs:       158427.0 ave      230216 max           0 min
Histogram: 4 2 2 0 5 3 4 4 12 16

Total # of neighbors = 8238213
Ave neighs/atom = 28.530509
Neighbor list builds = 8
Dangerous builds = 0
Setting atom values ...
  1 settings made for x
  1 settings made for y
  1 settings made for z
Setting up cg style minimization ...
  Unit style    : metal
  Current step  : 250
Per MPI rank memory allocation (min/avg/max) = 5.465 | 6.344 | 6.728 Mbytes
Step PotEng KinEng TotEng v_fx v_fy v_fz 
     250     -1152449            0     -1152449 -0.0016664055 0.0028129725 0.0050287228 
     434     -1152449            0     -1152449 -1.8962937e-05 -6.0505377e-06 2.4665275e-05 
Loop time of 4.00897 on 52 procs for 184 steps with 288751 atoms

99.9% CPU use with 52 MPI tasks x 1 OpenMP threads

Minimization stats:
  Stopping criterion = linesearch alpha is zero
  Energy initial, next-to-last, final = 
     -1152448.97154953  -1152448.97202167  -1152448.97202167
  Force two-norm initial, final = 0.087726517 9.5258095e-05
  Force max component initial, final = 0.041881705 2.4665275e-05
  Final line search alpha, max atom move = 0.5 1.2332637e-05
  Iterations, force evaluations = 184 369

MPI task timing breakdown:
Section |  min time  |  avg time  |  max time  |%varavg| %total
---------------------------------------------------------------
Pair    | 1.048      | 2.9385     | 3.8434     |  47.4 | 73.30
Neigh   | 0          | 0          | 0          |   0.0 |  0.00
Comm    | 0.051634   | 0.64777    | 2.0633     |  72.9 | 16.16
Output  | 0          | 0          | 0          |   0.0 |  0.00
Modify  | 6.9536e-05 | 0.0061625  | 0.013044   |   3.6 |  0.15
Other   |            | 0.4166     |            |       | 10.39

Nlocal:        5552.90 ave        7900 max           0 min
Histogram: 4 2 2 0 2 6 4 0 14 18
Nghost:        6213.69 ave        8768 max         412 min
Histogram: 4 0 4 0 8 0 4 5 7 20
Neighs:       158427.0 ave      230189 max           0 min
Histogram: 4 2 2 0 5 3 4 4 12 16

Total # of neighbors = 8238206
Ave neighs/atom = 28.530485
Neighbor list builds = 0
Dangerous builds = 0
Setting atom values ...
  1 settings made for x
  1 settings made for y
  1 settings made for z
Setting up cg style minimization ...
  Unit style    : metal
  Current step  : 434
Per MPI rank memory allocation (min/avg/max) = 5.465 | 6.344 | 6.728 Mbytes
Step PotEng KinEng TotEng v_fx v_fy v_fz 
     434     -1152449            0     -1152449 0.0057586155  0.019708985 0.0019624946 
     583     -1152449            0     -1152449 -8.2414352e-05 -1.33796e-05 7.7798439e-05 
Loop time of 3.22762 on 52 procs for 149 steps with 288751 atoms

99.9% CPU use with 52 MPI tasks x 1 OpenMP threads

Minimization stats:
  Stopping criterion = energy tolerance
  Energy initial, next-to-last, final = 
     -1152448.96937482  -1152448.97109476  -1152448.97109476
  Force two-norm initial, final = 0.15683821 0.00038983545
  Force max component initial, final = 0.089783063 8.8530244e-05
  Final line search alpha, max atom move = 1.0000000 8.8530244e-05
  Iterations, force evaluations = 149 298

MPI task timing breakdown:
Section |  min time  |  avg time  |  max time  |%varavg| %total
---------------------------------------------------------------
Pair    | 0.84649    | 2.3693     | 3.1004     |  42.7 | 73.41
Neigh   | 0          | 0          | 0          |   0.0 |  0.00
Comm    | 0.039213   | 0.51844    | 1.6701     |  65.8 | 16.06
Output  | 0          | 0          | 0          |   0.0 |  0.00
Modify  | 4.0311e-05 | 0.0049633  | 0.010598   |   3.3 |  0.15
Other   |            | 0.3349     |            |       | 10.38

Nlocal:        5552.90 ave        7900 max           0 min
Histogram: 4 2 2 0 2 6 4 0 14 18
Nghost:        6213.69 ave        8768 max         412 min
Histogram: 4 0 4 0 8 0 4 5 7 20
Neighs:       158427.0 ave      230191 max           0 min
Histogram: 4 2 2 0 5 3 4 4 12 16

Total # of neighbors = 8238203
Ave neighs/atom = 28.530474
Neighbor list builds = 0
Dangerous builds = 0
The dot product: 9.87181358155608e-07
Setting atom values ...
  1 settings made for x
  1 settings made for y
  1 settings made for z
Setting up cg style minimization ...
  Unit style    : metal
  Current step  : 583
Per MPI rank memory allocation (min/avg/max) = 5.465 | 6.344 | 6.728 Mbytes
Step PotEng KinEng TotEng v_fx v_fy v_fz 
     583     -1152449            0     -1152449  0.015828641  0.033544854 -0.004174827 
     770     -1152449            0     -1152449 4.4320805e-05 9.7947586e-07 -2.4232552e-05 
Loop time of 4.10856 on 52 procs for 187 steps with 288751 atoms

99.9% CPU use with 52 MPI tasks x 1 OpenMP threads

Minimization stats:
  Stopping criterion = linesearch alpha is zero
  Energy initial, next-to-last, final = 
     -1152448.96765371  -1152448.96947493  -1152448.96947493
  Force two-norm initial, final = 0.16316949 0.00020451768
  Force max component initial, final = 0.096671247 6.2927473e-05
  Final line search alpha, max atom move = 0.25 1.5731868e-05
  Iterations, force evaluations = 187 377

MPI task timing breakdown:
Section |  min time  |  avg time  |  max time  |%varavg| %total
---------------------------------------------------------------
Pair    | 1.0744     | 3.0071     | 3.9167     |  47.9 | 73.19
Neigh   | 0          | 0          | 0          |   0.0 |  0.00
Comm    | 0.052113   | 0.6645     | 2.1201     |  74.0 | 16.17
Output  | 0          | 0          | 0          |   0.0 |  0.00
Modify  | 5.8445e-05 | 0.0062813  | 0.013286   |   3.7 |  0.15
Other   |            | 0.4307     |            |       | 10.48

Nlocal:        5552.90 ave        7901 max           0 min
Histogram: 4 2 2 0 2 6 4 0 15 17
Nghost:        6213.65 ave        8768 max         412 min
Histogram: 4 0 4 0 8 0 4 5 7 20
Neighs:       158427.0 ave      230234 max           0 min
Histogram: 4 2 2 0 5 3 4 4 12 16

Total # of neighbors = 8238202
Ave neighs/atom = 28.530471
Neighbor list builds = 0
Dangerous builds = 0
The dot product: -5.04529437409041e-07
Setting atom values ...
  1 settings made for x
  1 settings made for y
  1 settings made for z
Setting up cg style minimization ...
  Unit style    : metal
  Current step  : 770
Per MPI rank memory allocation (min/avg/max) = 5.465 | 6.344 | 6.728 Mbytes
Step PotEng KinEng TotEng v_fx v_fy v_fz 
     770     -1152449            0     -1152449  0.028893568  0.038021566 -0.0087315518 
     923     -1152449            0     -1152449 -8.7341984e-05 -4.9020275e-06 2.8429499e-05 
Loop time of 3.30232 on 52 procs for 153 steps with 288751 atoms

99.9% CPU use with 52 MPI tasks x 1 OpenMP threads

Minimization stats:
  Stopping criterion = energy tolerance
  Energy initial, next-to-last, final = 
     -1152448.96521322  -1152448.96758146  -1152448.96758146
  Force two-norm initial, final = 0.17289204 0.00024813716
  Force max component initial, final = 0.095781175 8.7341984e-05
  Final line search alpha, max atom move = 1.0000000 8.7341984e-05
  Iterations, force evaluations = 153 306

MPI task timing breakdown:
Section |  min time  |  avg time  |  max time  |%varavg| %total
---------------------------------------------------------------
Pair    | 0.86941    | 2.428      | 3.1726     |  43.1 | 73.52
Neigh   | 0          | 0          | 0          |   0.0 |  0.00
Comm    | 0.040528   | 0.53071    | 1.7079     |  66.7 | 16.07
Output  | 0          | 0          | 0          |   0.0 |  0.00
Modify  | 4.2726e-05 | 0.0051173  | 0.011058   |   3.4 |  0.15
Other   |            | 0.3385     |            |       | 10.25

Nlocal:        5552.90 ave        7901 max           0 min
Histogram: 4 2 2 0 2 6 4 0 15 17
Nghost:        6213.73 ave        8768 max         412 min
Histogram: 4 0 4 0 8 0 4 5 7 20
Neighs:       158427.0 ave      230220 max           0 min
Histogram: 4 2 2 0 5 3 4 4 12 16

Total # of neighbors = 8238206
Ave neighs/atom = 28.530485
Neighbor list builds = 0
Dangerous builds = 0
The dot product: 2.14481797758358e-06
Setting atom values ...
  1 settings made for x
  1 settings made for y
  1 settings made for z
Setting up cg style minimization ...
  Unit style    : metal
  Current step  : 923
Per MPI rank memory allocation (min/avg/max) = 5.465 | 6.344 | 6.728 Mbytes
Step PotEng KinEng TotEng v_fx v_fy v_fz 
     923     -1152449            0     -1152449   0.03458591  0.034106093 -0.00097543152 
    1000     -1152449            0     -1152449 0.00013001573 1.2814215e-05 -1.4643788e-06 
    1085     -1152449            0     -1152449 4.067613e-06 7.7012691e-07 -5.2860935e-08 
Loop time of 3.53823 on 52 procs for 162 steps with 288751 atoms

99.9% CPU use with 52 MPI tasks x 1 OpenMP threads

Minimization stats:
  Stopping criterion = linesearch alpha is zero
  Energy initial, next-to-last, final = 
     -1152448.96331199  -1152448.96592374  -1152448.96592374
  Force two-norm initial, final = 0.19159839 5.8720032e-05
  Force max component initial, final = 0.082630503 1.4512274e-05
  Final line search alpha, max atom move = 0.5 7.2561368e-06
  Iterations, force evaluations = 162 325

MPI task timing breakdown:
Section |  min time  |  avg time  |  max time  |%varavg| %total
---------------------------------------------------------------
Pair    | 0.92249    | 2.5832     | 3.3915     |  44.4 | 73.01
Neigh   | 0          | 0          | 0          |   0.0 |  0.00
Comm    | 0.044087   | 0.56785    | 1.8026     |  68.3 | 16.05
Output  | 0.00020194 | 0.00020644 | 0.00036023 |   0.0 |  0.01
Modify  | 4.9721e-05 | 0.0054335  | 0.011454   |   3.4 |  0.15
Other   |            | 0.3816     |            |       | 10.78

Nlocal:        5552.90 ave        7902 max           0 min
Histogram: 4 2 2 0 2 6 4 0 15 17
Nghost:        6213.73 ave        8768 max         412 min
Histogram: 4 0 4 0 8 0 4 5 7 20
Neighs:       158427.0 ave      230248 max           0 min
Histogram: 4 2 2 0 5 3 4 4 12 16

Total # of neighbors = 8238212
Ave neighs/atom = 28.530506
Neighbor list builds = 0
Dangerous builds = 0
The dot product: -6.13198096296247e-08
Setting atom values ...
  1 settings made for x
  1 settings made for y
  1 settings made for z
Setting up cg style minimization ...
  Unit style    : metal
  Current step  : 1085
Per MPI rank memory allocation (min/avg/max) = 5.465 | 6.344 | 6.728 Mbytes
Step PotEng KinEng TotEng v_fx v_fy v_fz 
    1085     -1152449            0     -1152449  0.047359748  0.032180652 0.0060201309 
    1228     -1152449            0     -1152449 -8.2241829e-05 -4.6894773e-06 -1.1875569e-05 
Loop time of 3.08573 on 52 procs for 143 steps with 288751 atoms

99.9% CPU use with 52 MPI tasks x 1 OpenMP threads

Minimization stats:
  Stopping criterion = energy tolerance
  Energy initial, next-to-last, final = 
     -1152448.96135135  -1152448.96445986  -1152448.96445986
  Force two-norm initial, final = 0.2049935 0.00041820917
  Force max component initial, final = 0.098986329 0.00010335049
  Final line search alpha, max atom move = 1.0000000 0.00010335049
  Iterations, force evaluations = 143 286

MPI task timing breakdown:
Section |  min time  |  avg time  |  max time  |%varavg| %total
---------------------------------------------------------------
Pair    | 0.81309    | 2.2696     | 2.9644     |  41.7 | 73.55
Neigh   | 0          | 0          | 0          |   0.0 |  0.00
Comm    | 0.037153   | 0.49668    | 1.5945     |  64.5 | 16.10
Output  | 0          | 0          | 0          |   0.0 |  0.00
Modify  | 4.1968e-05 | 0.0047783  | 0.010291   |   3.2 |  0.15
Other   |            | 0.3147     |            |       | 10.20

Nlocal:        5552.90 ave        7903 max           0 min
Histogram: 4 2 2 0 2 6 4 0 15 17
Nghost:        6213.73 ave        8768 max         412 min
Histogram: 4 0 4 0 8 0 4 5 7 20
Neighs:       158427.0 ave      230303 max           0 min
Histogram: 4 2 2 0 5 3 4 4 12 16

Total # of neighbors = 8238215
Ave neighs/atom = 28.530516
Neighbor list builds = 0
Dangerous builds = 0
The dot product: 1.01912419815621e-06
Setting atom values ...
  1 settings made for x
  1 settings made for y
  1 settings made for z
Setting up cg style minimization ...
  Unit style    : metal
  Current step  : 1228
Per MPI rank memory allocation (min/avg/max) = 5.465 | 6.344 | 6.728 Mbytes
Step PotEng KinEng TotEng v_fx v_fy v_fz 
    1228     -1152449            0     -1152449  0.052689691  0.030252274  0.012593624 
    1370     -1152449            0     -1152449 1.1090825e-05 -1.8913332e-07 2.8045175e-06 
Loop time of 3.08721 on 52 procs for 142 steps with 288751 atoms

99.9% CPU use with 52 MPI tasks x 1 OpenMP threads

Minimization stats:
  Stopping criterion = linesearch alpha is zero
  Energy initial, next-to-last, final = 
     -1152448.96033453  -1152448.96295154  -1152448.96295154
  Force two-norm initial, final = 0.21442833 0.00014930694
  Force max component initial, final = 0.10951158 2.2033404e-05
  Final line search alpha, max atom move = 0.5 1.1016702e-05
  Iterations, force evaluations = 142 285

MPI task timing breakdown:
Section |  min time  |  avg time  |  max time  |%varavg| %total
---------------------------------------------------------------
Pair    | 0.80757    | 2.266      | 2.9665     |  41.6 | 73.40
Neigh   | 0          | 0          | 0          |   0.0 |  0.00
Comm    | 0.037334   | 0.49602    | 1.5813     |  64.4 | 16.07
Output  | 0          | 0          | 0          |   0.0 |  0.00
Modify  | 5.5898e-05 | 0.0047511  | 0.010071   |   3.2 |  0.15
Other   |            | 0.3204     |            |       | 10.38

Nlocal:        5552.90 ave        7903 max           0 min
Histogram: 4 2 2 0 2 6 4 0 15 17
Nghost:        6213.69 ave        8769 max         412 min
Histogram: 4 0 4 0 8 0 4 5 7 20
Neighs:       158427.0 ave      230298 max           0 min
Histogram: 4 2 2 0 5 3 4 4 12 16

Total # of neighbors = 8238214
Ave neighs/atom = 28.530512
Neighbor list builds = 0
Dangerous builds = 0
The dot product: 7.47557319724268e-09
Setting atom values ...
  1 settings made for x
  1 settings made for y
  1 settings made for z
Setting up cg style minimization ...
  Unit style    : metal
  Current step  : 1370
Per MPI rank memory allocation (min/avg/max) = 5.465 | 6.344 | 6.728 Mbytes
Step PotEng KinEng TotEng v_fx v_fy v_fz 
    1370     -1152449            0     -1152449    0.0621155   0.03257861  0.014303355 
    1560     -1152449            0     -1152449 -2.7444066e-05 -1.7289089e-06 -6.7318256e-06 
Loop time of 4.14178 on 52 procs for 190 steps with 288751 atoms

99.9% CPU use with 52 MPI tasks x 1 OpenMP threads

Minimization stats:
  Stopping criterion = linesearch alpha is zero
  Energy initial, next-to-last, final = 
     -1152448.95831934  -1152448.96078952  -1152448.96078952
  Force two-norm initial, final = 0.21718932 0.00014952668
  Force max component initial, final = 0.11003185 3.7231323e-05
  Final line search alpha, max atom move = 0.5 1.8615662e-05
  Iterations, force evaluations = 190 383

MPI task timing breakdown:
Section |  min time  |  avg time  |  max time  |%varavg| %total
---------------------------------------------------------------
Pair    | 1.09       | 3.0394     | 3.9793     |  48.1 | 73.38
Neigh   | 0          | 0          | 0          |   0.0 |  0.00
Comm    | 0.050502   | 0.66486    | 2.1333     |  74.6 | 16.05
Output  | 0          | 0          | 0          |   0.0 |  0.00
Modify  | 5.3903e-05 | 0.0063877  | 0.013491   |   3.7 |  0.15
Other   |            | 0.4312     |            |       | 10.41

Nlocal:        5552.90 ave        7905 max           0 min
Histogram: 4 2 2 0 2 6 4 0 15 17
Nghost:        6213.69 ave        8769 max         412 min
Histogram: 4 0 4 0 8 0 4 5 7 20
Neighs:       158427.0 ave      230355 max           0 min
Histogram: 4 2 2 0 5 3 4 4 12 16

Total # of neighbors = 8238212
Ave neighs/atom = 28.530506
Neighbor list builds = 0
Dangerous builds = 0
The dot product: -1.4529920781519e-07
Setting atom values ...
  1 settings made for x
  1 settings made for y
  1 settings made for z
Setting up cg style minimization ...
  Unit style    : metal
  Current step  : 1560
Per MPI rank memory allocation (min/avg/max) = 5.465 | 6.344 | 6.728 Mbytes
Step PotEng KinEng TotEng v_fx v_fy v_fz 
    1560     -1152449            0     -1152449  0.069417216  0.034997747  0.013291398 
    1724     -1152449            0     -1152449 2.6539381e-05 2.4737605e-06 5.5739996e-06 
Loop time of 3.56584 on 52 procs for 164 steps with 288751 atoms

99.9% CPU use with 52 MPI tasks x 1 OpenMP threads

Minimization stats:
  Stopping criterion = linesearch alpha is zero
  Energy initial, next-to-last, final = 
     -1152448.95556493  -1152448.95816535  -1152448.95816535
  Force two-norm initial, final = 0.21711971 0.00013204152
  Force max component initial, final = 0.10758816 4.1590548e-05
  Final line search alpha, max atom move = 0.5 2.0795274e-05
  Iterations, force evaluations = 164 329

MPI task timing breakdown:
Section |  min time  |  avg time  |  max time  |%varavg| %total
---------------------------------------------------------------
Pair    | 0.93302    | 2.6214     | 3.4258     |  44.8 | 73.52
Neigh   | 0          | 0          | 0          |   0.0 |  0.00
Comm    | 0.042946   | 0.57965    | 1.8578     |  69.3 | 16.26
Output  | 0          | 0          | 0          |   0.0 |  0.00
Modify  | 5.0753e-05 | 0.0054854  | 0.011593   |   3.5 |  0.15
Other   |            | 0.3593     |            |       | 10.07

Nlocal:        5552.90 ave        7906 max           0 min
Histogram: 4 2 2 0 2 6 4 0 15 17
Nghost:        6213.69 ave        8769 max         412 min
Histogram: 4 0 4 0 8 0 4 5 7 20
Neighs:       158427.0 ave      230386 max           0 min
Histogram: 4 2 2 0 5 3 4 4 12 16

Total # of neighbors = 8238208
Ave neighs/atom = 28.530492
Neighbor list builds = 0
Dangerous builds = 0
The dot product: 1.19005791079883e-07
Setting atom values ...
  1 settings made for x
  1 settings made for y
  1 settings made for z
Setting up cg style minimization ...
  Unit style    : metal
  Current step  : 1724
Per MPI rank memory allocation (min/avg/max) = 5.465 | 6.344 | 6.728 Mbytes
Step PotEng KinEng TotEng v_fx v_fy v_fz 
    1724     -1152449            0     -1152449  0.072399735  0.036783269  0.011628661 
    1948     -1152449            0     -1152449 1.0767219e-07 -4.171054e-07 4.4592151e-08 
Loop time of 4.87185 on 52 procs for 224 steps with 288751 atoms

99.9% CPU use with 52 MPI tasks x 1 OpenMP threads

Minimization stats:
  Stopping criterion = linesearch alpha is zero
  Energy initial, next-to-last, final = 
     -1152448.95265271  -1152448.95496507  -1152448.95496507
  Force two-norm initial, final = 0.21636076 5.3381674e-05
  Force max component initial, final = 0.10565504 6.8830119e-06
  Final line search alpha, max atom move = 0.5 3.4415059e-06
  Iterations, force evaluations = 224 449

MPI task timing breakdown:
Section |  min time  |  avg time  |  max time  |%varavg| %total
---------------------------------------------------------------
Pair    | 1.2721     | 3.5691     | 4.6712     |  52.3 | 73.26
Neigh   | 0          | 0          | 0          |   0.0 |  0.00
Comm    | 0.059467   | 0.78276    | 2.5129     |  80.5 | 16.07
Output  | 0          | 0          | 0          |   0.0 |  0.00
Modify  | 6.4011e-05 | 0.0074662  | 0.015768   |   4.0 |  0.15
Other   |            | 0.5125     |            |       | 10.52

Nlocal:        5552.90 ave        7906 max           0 min
Histogram: 4 2 2 0 2 6 4 0 15 17
Nghost:        6213.73 ave        8769 max         412 min
Histogram: 4 0 4 0 8 0 4 5 7 20
Neighs:       158427.0 ave      230395 max           0 min
Histogram: 4 2 2 0 5 3 4 4 12 16

Total # of neighbors = 8238204
Ave neighs/atom = 28.530478
Neighbor list builds = 0
Dangerous builds = 0
The dot product: -4.6128589722109e-10
Setting atom values ...
  1 settings made for x
  1 settings made for y
  1 settings made for z
Setting up cg style minimization ...
  Unit style    : metal
  Current step  : 1948
Per MPI rank memory allocation (min/avg/max) = 5.465 | 6.344 | 6.728 Mbytes
Step PotEng KinEng TotEng v_fx v_fy v_fz 
    1948   -1152448.9            0   -1152448.9  0.077418483   0.03879717 0.0094567125 
    2000     -1152449            0     -1152449 9.8968594e-06 3.6528286e-06 1.3026215e-06 
    2118     -1152449            0     -1152449 7.9979962e-06 7.1768037e-07 1.2129165e-06 
Loop time of 3.72807 on 52 procs for 170 steps with 288751 atoms

99.9% CPU use with 52 MPI tasks x 1 OpenMP threads

Minimization stats:
  Stopping criterion = linesearch alpha is zero
  Energy initial, next-to-last, final = 
     -1152448.94873145  -1152448.95097165  -1152448.95097165
  Force two-norm initial, final = 0.21541783 0.00018010406
  Force max component initial, final = 0.10256436 2.7757174e-05
  Final line search alpha, max atom move = 0.25 6.9392934e-06
  Iterations, force evaluations = 170 343

MPI task timing breakdown:
Section |  min time  |  avg time  |  max time  |%varavg| %total
---------------------------------------------------------------
Pair    | 0.97331    | 2.727      | 3.57       |  45.7 | 73.15
Neigh   | 0          | 0          | 0          |   0.0 |  0.00
Comm    | 0.045681   | 0.60077    | 1.9161     |  70.3 | 16.11
Output  | 0.00011961 | 0.00012374 | 0.00026885 |   0.0 |  0.00
Modify  | 6.4099e-05 | 0.0057208  | 0.012086   |   3.5 |  0.15
Other   |            | 0.3944     |            |       | 10.58

Nlocal:        5552.90 ave        7907 max           0 min
Histogram: 4 2 2 0 2 6 4 0 15 17
Nghost:        6213.65 ave        8769 max         412 min
Histogram: 4 0 4 0 8 0 4 5 7 20
Neighs:       158427.0 ave      230440 max           0 min
Histogram: 4 2 2 0 5 3 4 4 12 16

Total # of neighbors = 8238200
Ave neighs/atom = 28.530464
Neighbor list builds = 0
Dangerous builds = 0
The dot product: 6.33644841820501e-08
Setting atom values ...
  1 settings made for x
  1 settings made for y
  1 settings made for z
Setting up cg style minimization ...
  Unit style    : metal
  Current step  : 2118
Per MPI rank memory allocation (min/avg/max) = 5.465 | 6.344 | 6.728 Mbytes
Step PotEng KinEng TotEng v_fx v_fy v_fz 
    2118   -1152448.9            0   -1152448.9   0.08162757  0.040050537 0.0066340466 
    2275   -1152448.9            0   -1152448.9 2.614064e-05 3.0894353e-06 2.950276e-06 
Loop time of 3.39143 on 52 procs for 157 steps with 288751 atoms

99.9% CPU use with 52 MPI tasks x 1 OpenMP threads

Minimization stats:
  Stopping criterion = energy tolerance
  Energy initial, next-to-last, final = 
     -1152448.94402509  -1152448.94623435  -1152448.94623435
  Force two-norm initial, final = 0.21381282 0.00022756946
  Force max component initial, final = 0.098658084 6.0384143e-05
  Final line search alpha, max atom move = 1.0000000 6.0384143e-05
  Iterations, force evaluations = 157 314

MPI task timing breakdown:
Section |  min time  |  avg time  |  max time  |%varavg| %total
---------------------------------------------------------------
Pair    | 0.88884    | 2.4909     | 3.2566     |  43.7 | 73.45
Neigh   | 0          | 0          | 0          |   0.0 |  0.00
Comm    | 0.040874   | 0.5463     | 1.7566     |  67.6 | 16.11
Output  | 0          | 0          | 0          |   0.0 |  0.00
Modify  | 4.4277e-05 | 0.0052318  | 0.011163   |   3.4 |  0.15
Other   |            | 0.349      |            |       | 10.29

Nlocal:        5552.90 ave        7907 max           0 min
Histogram: 4 2 2 0 2 6 4 0 15 17
Nghost:        6213.65 ave        8769 max         412 min
Histogram: 4 0 4 0 8 0 4 5 7 20
Neighs:       158427.0 ave      230466 max           0 min
Histogram: 4 2 2 0 5 3 4 4 12 16

Total # of neighbors = 8238209
Ave neighs/atom = 28.530495
Neighbor list builds = 0
Dangerous builds = 0
The dot product: 2.25917925897529e-07
Setting atom values ...
  1 settings made for x
  1 settings made for y
  1 settings made for z
Setting up cg style minimization ...
  Unit style    : metal
  Current step  : 2275
Per MPI rank memory allocation (min/avg/max) = 5.465 | 6.344 | 6.728 Mbytes
Step PotEng KinEng TotEng v_fx v_fy v_fz 
    2275   -1152448.9            0   -1152448.9  0.084377012  0.040786268  0.003470262 
    2420   -1152448.9            0   -1152448.9 7.6385568e-05 9.4901415e-06 5.8060433e-06 
Loop time of 3.17931 on 52 procs for 145 steps with 288751 atoms

99.8% CPU use with 52 MPI tasks x 1 OpenMP threads

Minimization stats:
  Stopping criterion = energy tolerance
  Energy initial, next-to-last, final = 
     -1152448.93862628  -1152448.94071897  -1152448.94071897
  Force two-norm initial, final = 0.21167142 0.00029710761
  Force max component initial, final = 0.094286084 0.00011269027
  Final line search alpha, max atom move = 1.0000000 0.00011269027
  Iterations, force evaluations = 145 290

MPI task timing breakdown:
Section |  min time  |  avg time  |  max time  |%varavg| %total
---------------------------------------------------------------
Pair    | 0.82512    | 2.3105     | 3.0365     |  42.1 | 72.67
Neigh   | 0          | 0          | 0          |   0.0 |  0.00
Comm    | 0.037921   | 0.50756    | 1.6135     |  64.8 | 15.96
Output  | 0          | 0          | 0          |   0.0 |  0.00
Modify  | 4.1044e-05 | 0.0048273  | 0.010215   |   3.2 |  0.15
Other   |            | 0.3564     |            |       | 11.21

Nlocal:        5552.90 ave        7908 max           0 min
Histogram: 4 2 2 0 2 6 4 0 15 17
Nghost:        6213.69 ave        8769 max         412 min
Histogram: 4 0 4 0 8 0 4 5 7 20
Neighs:       158427.0 ave      230498 max           0 min
Histogram: 4 2 2 0 5 3 4 4 12 16

Total # of neighbors = 8238204
Ave neighs/atom = 28.530478
Neighbor list builds = 0
Dangerous builds = 0
The dot product: 5.87366755194553e-07
Setting atom values ...
  1 settings made for x
  1 settings made for y
  1 settings made for z
Setting up cg style minimization ...
  Unit style    : metal
  Current step  : 2420
Per MPI rank memory allocation (min/avg/max) = 5.465 | 6.344 | 6.728 Mbytes
Step PotEng KinEng TotEng v_fx v_fy v_fz 
    2420   -1152448.9            0   -1152448.9  0.084474316  0.041841509 0.0004329614 
    2584   -1152448.9            0   -1152448.9 -7.2844366e-06 -3.3952257e-07 -3.9963003e-07 
Loop time of 3.53952 on 52 procs for 164 steps with 288751 atoms

99.9% CPU use with 52 MPI tasks x 1 OpenMP threads

Minimization stats:
  Stopping criterion = energy tolerance
  Energy initial, next-to-last, final = 
     -1152448.93236347   -1152448.9343699   -1152448.9343699
  Force two-norm initial, final = 0.20935692 0.00014884179
  Force max component initial, final = 0.09044749 9.2572073e-06
  Final line search alpha, max atom move = 1.0000000 9.2572073e-06
  Iterations, force evaluations = 164 328

MPI task timing breakdown:
Section |  min time  |  avg time  |  max time  |%varavg| %total
---------------------------------------------------------------
Pair    | 0.92949    | 2.6006     | 3.4        |  44.6 | 73.47
Neigh   | 0          | 0          | 0          |   0.0 |  0.00
Comm    | 0.043432   | 0.56864    | 1.8295     |  69.1 | 16.07
Output  | 0          | 0          | 0          |   0.0 |  0.00
Modify  | 4.3622e-05 | 0.005467   | 0.01158    |   3.4 |  0.15
Other   |            | 0.3648     |            |       | 10.31

Nlocal:        5552.90 ave        7908 max           0 min
Histogram: 4 2 2 0 2 6 4 0 15 17
Nghost:        6213.69 ave        8769 max         412 min
Histogram: 4 0 4 0 8 0 4 5 7 20
Neighs:       158427.0 ave      230499 max           0 min
Histogram: 4 2 2 0 5 3 4 4 12 16

Total # of neighbors = 8238201
Ave neighs/atom = 28.530467
Neighbor list builds = 0
Dangerous builds = 0
The dot product: -4.70377136005304e-08
Setting atom values ...
  1 settings made for x
  1 settings made for y
  1 settings made for z
Setting up cg style minimization ...
  Unit style    : metal
  Current step  : 2584
Per MPI rank memory allocation (min/avg/max) = 5.465 | 6.344 | 6.728 Mbytes
Step PotEng KinEng TotEng v_fx v_fy v_fz 
    2584   -1152448.9            0   -1152448.9  0.083579388  0.038338353 -0.0016896902 
    2736   -1152448.9            0   -1152448.9 -6.3939981e-05 -1.031126e-05 -1.1009899e-06 
Loop time of 3.29683 on 52 procs for 152 steps with 288751 atoms

99.9% CPU use with 52 MPI tasks x 1 OpenMP threads

Minimization stats:
  Stopping criterion = energy tolerance
  Energy initial, next-to-last, final = 
     -1152448.92517023  -1152448.92707623  -1152448.92707623
  Force two-norm initial, final = 0.2059765 0.00021293602
  Force max component initial, final = 0.086895788 6.3939981e-05
  Final line search alpha, max atom move = 1.0000000 6.3939981e-05
  Iterations, force evaluations = 152 304

MPI task timing breakdown:
Section |  min time  |  avg time  |  max time  |%varavg| %total
---------------------------------------------------------------
Pair    | 0.86176    | 2.4138     | 3.168      |  43.0 | 73.21
Neigh   | 0          | 0          | 0          |   0.0 |  0.00
Comm    | 0.039809   | 0.52968    | 1.6845     |  66.2 | 16.07
Output  | 0          | 0          | 0          |   0.0 |  0.00
Modify  | 4.6742e-05 | 0.0050682  | 0.010723   |   3.3 |  0.15
Other   |            | 0.3483     |            |       | 10.57

Nlocal:        5552.90 ave        7909 max           0 min
Histogram: 4 2 2 0 2 6 4 0 15 17
Nghost:        6213.69 ave        8769 max         412 min
Histogram: 4 0 4 0 8 0 4 5 7 20
Neighs:       158427.0 ave      230537 max           0 min
Histogram: 4 2 2 0 5 3 4 4 12 16

Total # of neighbors = 8238200
Ave neighs/atom = 28.530464
Neighbor list builds = 0
Dangerous builds = 0
The dot product: -3.91002019170504e-07
Setting atom values ...
  1 settings made for x
  1 settings made for y
  1 settings made for z
Setting up cg style minimization ...
  Unit style    : metal
  Current step  : 2736
Per MPI rank memory allocation (min/avg/max) = 5.465 | 6.344 | 6.728 Mbytes
Step PotEng KinEng TotEng v_fx v_fy v_fz 
    2736   -1152448.9            0   -1152448.9  0.082820177  0.028232052 -0.0023091565 
    2928   -1152448.9            0   -1152448.9 -5.6046873e-06 -1.5571641e-07 -8.3758816e-08 
Loop time of 4.16704 on 52 procs for 192 steps with 288751 atoms

99.9% CPU use with 52 MPI tasks x 1 OpenMP threads

Minimization stats:
  Stopping criterion = energy tolerance
  Energy initial, next-to-last, final = 
     -1152448.91671326  -1152448.91858484  -1152448.91858484
  Force two-norm initial, final = 0.20248626 7.1234745e-05
  Force max component initial, final = 0.084175588 2.2046353e-05
  Final line search alpha, max atom move = 1.0000000 2.2046353e-05
  Iterations, force evaluations = 192 384

MPI task timing breakdown:
Section |  min time  |  avg time  |  max time  |%varavg| %total
---------------------------------------------------------------
Pair    | 1.0915     | 3.0497     | 3.9958     |  48.3 | 73.19
Neigh   | 0          | 0          | 0          |   0.0 |  0.00
Comm    | 0.052173   | 0.66955    | 2.143      |  74.3 | 16.07
Output  | 0          | 0          | 0          |   0.0 |  0.00
Modify  | 5.7659e-05 | 0.00642    | 0.013585   |   3.7 |  0.15
Other   |            | 0.4414     |            |       | 10.59

Nlocal:        5552.90 ave        7909 max           0 min
Histogram: 4 2 2 0 2 6 4 0 15 17
Nghost:        6213.69 ave        8769 max         412 min
Histogram: 4 0 4 0 8 0 4 5 7 20
Neighs:       158427.0 ave      230538 max           0 min
Histogram: 4 2 2 0 5 3 4 4 12 16

Total # of neighbors = 8238198
Ave neighs/atom = 28.530457
Neighbor list builds = 0
Dangerous builds = 0
The dot product: -2.76929548566938e-08
Setting atom values ...
  1 settings made for x
  1 settings made for y
  1 settings made for z
Setting up cg style minimization ...
  Unit style    : metal
  Current step  : 2928
Per MPI rank memory allocation (min/avg/max) = 5.465 | 6.344 | 6.728 Mbytes
Step PotEng KinEng TotEng v_fx v_fy v_fz 
    2928   -1152448.9            0   -1152448.9  0.082457398  0.021484816 -0.0027561362 
    3000   -1152448.9            0   -1152448.9 -0.00049223676 -8.921957e-05 1.0950824e-05 
    3077   -1152448.9            0   -1152448.9 6.1987371e-05 1.2335488e-05 -1.5340935e-06 
Loop time of 3.23106 on 52 procs for 149 steps with 288751 atoms

99.9% CPU use with 52 MPI tasks x 1 OpenMP threads

Minimization stats:
  Stopping criterion = energy tolerance
  Energy initial, next-to-last, final = 
     -1152448.90688516  -1152448.90875031  -1152448.90875031
  Force two-norm initial, final = 0.20077309 0.00025230944
  Force max component initial, final = 0.082823883 6.1987371e-05
  Final line search alpha, max atom move = 1.0000000 6.1987371e-05
  Iterations, force evaluations = 149 298

MPI task timing breakdown:
Section |  min time  |  avg time  |  max time  |%varavg| %total
---------------------------------------------------------------
Pair    | 0.84613    | 2.3738     | 3.1038     |  42.6 | 73.47
Neigh   | 0          | 0          | 0          |   0.0 |  0.00
Comm    | 0.03895    | 0.52282    | 1.6742     |  65.9 | 16.18
Output  | 0.00019945 | 0.00020389 | 0.00035064 |   0.0 |  0.01
Modify  | 4.1124e-05 | 0.0049634  | 0.010479   |   3.3 |  0.15
Other   |            | 0.3293     |            |       | 10.19

Nlocal:        5552.90 ave        7909 max           0 min
Histogram: 4 2 2 0 2 6 4 0 15 17
Nghost:        6213.69 ave        8769 max         412 min
Histogram: 4 0 4 0 8 0 4 5 7 20
Neighs:       158427.0 ave      230543 max           0 min
Histogram: 4 2 2 0 5 3 4 4 12 16

Total # of neighbors = 8238198
Ave neighs/atom = 28.530457
Neighbor list builds = 0
Dangerous builds = 0
The dot product: 2.70036205340003e-07
Setting atom values ...
  1 settings made for x
  1 settings made for y
  1 settings made for z
Setting up cg style minimization ...
  Unit style    : metal
  Current step  : 3077
Per MPI rank memory allocation (min/avg/max) = 5.465 | 6.344 | 6.728 Mbytes
Step PotEng KinEng TotEng v_fx v_fy v_fz 
    3077   -1152448.9            0   -1152448.9  0.082145729  0.017765891 -0.0032944827 
    3238   -1152448.9            0   -1152448.9 -9.9035303e-06 -3.2158437e-06 5.4911383e-07 
Loop time of 3.52647 on 52 procs for 161 steps with 288751 atoms

99.9% CPU use with 52 MPI tasks x 1 OpenMP threads

Minimization stats:
  Stopping criterion = linesearch alpha is zero
  Energy initial, next-to-last, final = 
     -1152448.89569379  -1152448.89756152  -1152448.89756152
  Force two-norm initial, final = 0.1997655 0.00019458364
  Force max component initial, final = 0.083762516 6.9502399e-05
  Final line search alpha, max atom move = 0.25 1.7375600e-05
  Iterations, force evaluations = 161 325

MPI task timing breakdown:
Section |  min time  |  avg time  |  max time  |%varavg| %total
---------------------------------------------------------------
Pair    | 0.92032    | 2.5798     | 3.3813     |  44.4 | 73.15
Neigh   | 0          | 0          | 0          |   0.0 |  0.00
Comm    | 0.043129   | 0.56681    | 1.8148     |  68.5 | 16.07
Output  | 0          | 0          | 0          |   0.0 |  0.00
Modify  | 4.7642e-05 | 0.0054234  | 0.011477   |   3.4 |  0.15
Other   |            | 0.3745     |            |       | 10.62

Nlocal:        5552.90 ave        7910 max           0 min
Histogram: 4 2 2 0 2 6 4 0 15 17
Nghost:        6213.67 ave        8769 max         412 min
Histogram: 4 0 4 0 8 0 4 5 7 20
Neighs:       158427.0 ave      230580 max           0 min
Histogram: 4 2 2 0 5 3 4 4 12 16

Total # of neighbors = 8238200
Ave neighs/atom = 28.530464
Neighbor list builds = 0
Dangerous builds = 0
The dot product: -3.28419059697261e-08
Setting atom values ...
  1 settings made for x
  1 settings made for y
  1 settings made for z
Setting up cg style minimization ...
  Unit style    : metal
  Current step  : 3238
Per MPI rank memory allocation (min/avg/max) = 5.465 | 6.344 | 6.728 Mbytes
Step PotEng KinEng TotEng v_fx v_fy v_fz 
    3238   -1152448.9            0   -1152448.9  0.080977266   0.01503577 -0.0036584137 
    3408   -1152448.9            0   -1152448.9 2.6069541e-05 7.5311072e-06 -1.5561469e-06 
Loop time of 3.68849 on 52 procs for 170 steps with 288751 atoms

99.9% CPU use with 52 MPI tasks x 1 OpenMP threads

Minimization stats:
  Stopping criterion = energy tolerance
  Energy initial, next-to-last, final = 
     -1152448.88317191  -1152448.88509012  -1152448.88509012
  Force two-norm initial, final = 0.19881374 0.00020672447
  Force max component initial, final = 0.085325799 5.3571138e-05
  Final line search alpha, max atom move = 1.0000000 5.3571138e-05
  Iterations, force evaluations = 170 340

MPI task timing breakdown:
Section |  min time  |  avg time  |  max time  |%varavg| %total
---------------------------------------------------------------
Pair    | 0.96336    | 2.7072     | 3.5439     |  45.5 | 73.40
Neigh   | 0          | 0          | 0          |   0.0 |  0.00
Comm    | 0.044364   | 0.59808    | 1.9156     |  70.3 | 16.21
Output  | 0          | 0          | 0          |   0.0 |  0.00
Modify  | 5.5704e-05 | 0.0056573  | 0.011944   |   3.5 |  0.15
Other   |            | 0.3776     |            |       | 10.24

Nlocal:        5552.90 ave        7910 max           0 min
Histogram: 4 2 2 0 2 6 4 0 15 17
Nghost:        6213.60 ave        8769 max         412 min
Histogram: 4 0 4 0 8 0 4 5 7 20
Neighs:       158427.0 ave      230583 max           0 min
Histogram: 4 2 2 0 5 3 4 4 12 16

Total # of neighbors = 8238197
Ave neighs/atom = 28.530454
Neighbor list builds = 0
Dangerous builds = 0
The dot product: -1.59155644951031e-09
Setting atom values ...
  1 settings made for x
  1 settings made for y
  1 settings made for z
Setting up cg style minimization ...
  Unit style    : metal
  Current step  : 3408
Per MPI rank memory allocation (min/avg/max) = 5.465 | 6.344 | 6.728 Mbytes
Step PotEng KinEng TotEng v_fx v_fy v_fz 
    3408   -1152448.9            0   -1152448.9  0.075942351   0.01337383 -0.0033276593 
    3561   -1152448.9            0   -1152448.9 -9.9458758e-06 -2.7581909e-06 5.760553e-07 
Loop time of 3.33063 on 52 procs for 153 steps with 288751 atoms

99.9% CPU use with 52 MPI tasks x 1 OpenMP threads

Minimization stats:
  Stopping criterion = energy tolerance
  Energy initial, next-to-last, final = 
     -1152448.86955837  -1152448.87211318  -1152448.87211318
  Force two-norm initial, final = 0.19728662 0.00010053079
  Force max component initial, final = 0.08591161 1.3781126e-05
  Final line search alpha, max atom move = 1.0000000 1.3781126e-05
  Iterations, force evaluations = 153 306

MPI task timing breakdown:
Section |  min time  |  avg time  |  max time  |%varavg| %total
---------------------------------------------------------------
Pair    | 0.86941    | 2.4363     | 3.1819     |  43.0 | 73.15
Neigh   | 0          | 0          | 0          |   0.0 |  0.00
Comm    | 0.040317   | 0.53483    | 1.7118     |  66.7 | 16.06
Output  | 0          | 0          | 0          |   0.0 |  0.00
Modify  | 4.55e-05   | 0.0050996  | 0.010791   |   3.3 |  0.15
Other   |            | 0.3544     |            |       | 10.64

Nlocal:        5552.90 ave        7911 max           0 min
Histogram: 4 2 2 0 2 6 4 0 15 17
Nghost:        6213.67 ave        8770 max         412 min
Histogram: 4 0 4 0 8 0 4 5 7 20
Neighs:       158427.0 ave      230623 max           0 min
Histogram: 4 2 2 0 5 3 4 4 12 16

Total # of neighbors = 8238194
Ave neighs/atom = 28.530443
Neighbor list builds = 0
Dangerous builds = 0
The dot product: 1.75905191790597e-07
Setting atom values ...
  1 settings made for x
  1 settings made for y
  1 settings made for z
Setting up cg style minimization ...
  Unit style    : metal
  Current step  : 3561
Per MPI rank memory allocation (min/avg/max) = 5.465 | 6.344 | 6.728 Mbytes
Step PotEng KinEng TotEng v_fx v_fy v_fz 
    3561   -1152448.9            0   -1152448.9  0.049973562  0.013572723 -0.00063056511 
    3750   -1152448.9            0   -1152448.9 3.8660381e-05 6.5492146e-06 5.3378662e-08 
Loop time of 4.10412 on 52 procs for 189 steps with 288751 atoms

99.9% CPU use with 52 MPI tasks x 1 OpenMP threads

Minimization stats:
  Stopping criterion = energy tolerance
  Energy initial, next-to-last, final = 
     -1152448.85638822  -1152448.85869055  -1152448.85869055
  Force two-norm initial, final = 0.19283731 0.00014849724
  Force max component initial, final = 0.085566599 4.6589147e-05
  Final line search alpha, max atom move = 1.0000000 4.6589147e-05
  Iterations, force evaluations = 189 378

MPI task timing breakdown:
Section |  min time  |  avg time  |  max time  |%varavg| %total
---------------------------------------------------------------
Pair    | 1.0721     | 3.0002     | 3.9436     |  47.9 | 73.10
Neigh   | 0          | 0          | 0          |   0.0 |  0.00
Comm    | 0.049255   | 0.66007    | 2.0939     |  73.6 | 16.08
Output  | 0          | 0          | 0          |   0.0 |  0.00
Modify  | 6.2099e-05 | 0.006292   | 0.01332    |   3.7 |  0.15
Other   |            | 0.4376     |            |       | 10.66

Nlocal:        5552.90 ave        7912 max           0 min
Histogram: 4 2 2 0 2 6 4 0 15 17
Nghost:        6213.62 ave        8769 max         412 min
Histogram: 4 0 4 0 8 0 4 5 7 20
Neighs:       158427.0 ave      230659 max           0 min
Histogram: 4 2 2 0 5 3 4 4 12 16

Total # of neighbors = 8238193
Ave neighs/atom = 28.530440
Neighbor list builds = 0
Dangerous builds = 0
The dot product: -5.47912178265009e-07
Setting atom values ...
  1 settings made for x
  1 settings made for y
  1 settings made for z
Setting up cg style minimization ...
  Unit style    : metal
  Current step  : 3750
Per MPI rank memory allocation (min/avg/max) = 5.465 | 6.344 | 6.728 Mbytes
Step PotEng KinEng TotEng v_fx v_fy v_fz 
    3750   -1152448.8            0   -1152448.8  0.055795576  0.011944382  0.001641305 
    3959   -1152448.8            0   -1152448.8 5.5579101e-06 -9.3201567e-07 4.4627513e-07 
Loop time of 4.5282 on 52 procs for 209 steps with 288751 atoms

99.9% CPU use with 52 MPI tasks x 1 OpenMP threads

Minimization stats:
  Stopping criterion = linesearch alpha is zero
  Energy initial, next-to-last, final = 
     -1152448.84177723  -1152448.84384683  -1152448.84384683
  Force two-norm initial, final = 0.19720955 8.4781606e-05
  Force max component initial, final = 0.089932652 1.3357093e-05
  Final line search alpha, max atom move = 0.5 6.6785467e-06
  Iterations, force evaluations = 209 419

MPI task timing breakdown:
Section |  min time  |  avg time  |  max time  |%varavg| %total
---------------------------------------------------------------
Pair    | 1.1872     | 3.3209     | 4.35       |  50.4 | 73.34
Neigh   | 0          | 0          | 0          |   0.0 |  0.00
Comm    | 0.054561   | 0.72662    | 2.3361     |  78.1 | 16.05
Output  | 0          | 0          | 0          |   0.0 |  0.00
Modify  | 5.6555e-05 | 0.0069766  | 0.014737   |   3.9 |  0.15
Other   |            | 0.4737     |            |       | 10.46

Nlocal:        5552.90 ave        7913 max           0 min
Histogram: 4 2 2 0 2 6 4 1 14 17
Nghost:        6213.73 ave        8770 max         412 min
Histogram: 4 0 4 0 8 0 4 5 7 20
Neighs:       158427.0 ave      230697 max           0 min
Histogram: 4 2 2 0 5 3 4 4 12 16

Total # of neighbors = 8238192
Ave neighs/atom = 28.530436
Neighbor list builds = 0
Dangerous builds = 0
The dot product: -5.61492928791272e-08
Setting atom values ...
  1 settings made for x
  1 settings made for y
  1 settings made for z
Setting up cg style minimization ...
  Unit style    : metal
  Current step  : 3959
Per MPI rank memory allocation (min/avg/max) = 5.465 | 6.344 | 6.728 Mbytes
Step PotEng KinEng TotEng v_fx v_fy v_fz 
    3959   -1152448.8            0   -1152448.8  0.061026811 0.0093586223 0.0038083378 
    4000   -1152448.8            0   -1152448.8 -0.00084947838 -0.00016746904 -4.8256211e-05 
    4130   -1152448.8            0   -1152448.8 5.1846181e-05 1.2398964e-05 2.6668422e-06 
Loop time of 3.75895 on 52 procs for 171 steps with 288751 atoms

99.9% CPU use with 52 MPI tasks x 1 OpenMP threads

Minimization stats:
  Stopping criterion = linesearch alpha is zero
  Energy initial, next-to-last, final = 
      -1152448.8255818  -1152448.82773752  -1152448.82773752
  Force two-norm initial, final = 0.20061916 0.00021453426
  Force max component initial, final = 0.094288641 5.1846181e-05
  Final line search alpha, max atom move = 0.25 1.2961545e-05
  Iterations, force evaluations = 171 345

MPI task timing breakdown:
Section |  min time  |  avg time  |  max time  |%varavg| %total
---------------------------------------------------------------
Pair    | 0.98006    | 2.7463     | 3.6021     |  45.9 | 73.06
Neigh   | 0          | 0          | 0          |   0.0 |  0.00
Comm    | 0.047964   | 0.6031     | 1.915      |  70.8 | 16.04
Output  | 0.00011831 | 0.00012207 | 0.0002677  |   0.0 |  0.00
Modify  | 5.5984e-05 | 0.0057461  | 0.012145   |   3.5 |  0.15
Other   |            | 0.4037     |            |       | 10.74

Nlocal:        5552.90 ave        7914 max           0 min
Histogram: 4 2 2 0 2 6 4 1 14 17
Nghost:        6213.73 ave        8770 max         412 min
Histogram: 4 0 4 0 8 0 4 5 7 20
Neighs:       158427.0 ave      230715 max           0 min
Histogram: 4 2 2 0 5 3 4 4 12 16

Total # of neighbors = 8238191
Ave neighs/atom = 28.530433
Neighbor list builds = 0
Dangerous builds = 0
The dot product: -5.0787472450904e-07
Setting atom values ...
  1 settings made for x
  1 settings made for y
  1 settings made for z
Setting up cg style minimization ...
  Unit style    : metal
  Current step  : 4130
Per MPI rank memory allocation (min/avg/max) = 5.465 | 6.344 | 6.728 Mbytes
Step PotEng KinEng TotEng v_fx v_fy v_fz 
    4130   -1152448.8            0   -1152448.8  0.063842728 0.0079449576 0.0055483936 
    4289   -1152448.8            0   -1152448.8 5.8850719e-05 9.5220122e-06 4.8466095e-06 
Loop time of 3.50241 on 52 procs for 159 steps with 288751 atoms

99.9% CPU use with 52 MPI tasks x 1 OpenMP threads

Minimization stats:
  Stopping criterion = linesearch alpha is zero
  Energy initial, next-to-last, final = 
     -1152448.80819414  -1152448.81021314  -1152448.81021314
  Force two-norm initial, final = 0.20314361 0.00023293578
  Force max component initial, final = 0.098065394 7.6669253e-05
  Final line search alpha, max atom move = 0.125 9.5836566e-06
  Iterations, force evaluations = 159 323

MPI task timing breakdown:
Section |  min time  |  avg time  |  max time  |%varavg| %total
---------------------------------------------------------------
Pair    | 0.91616    | 2.5633     | 3.366      |  44.3 | 73.19
Neigh   | 0          | 0          | 0          |   0.0 |  0.00
Comm    | 0.041903   | 0.56253    | 1.8037     |  68.4 | 16.06
Output  | 0          | 0          | 0          |   0.0 |  0.00
Modify  | 4.525e-05  | 0.0053782  | 0.011365   |   3.4 |  0.15
Other   |            | 0.3712     |            |       | 10.60

Nlocal:        5552.90 ave        7917 max           0 min
Histogram: 4 2 2 0 2 6 4 1 14 17
Nghost:        6213.73 ave        8770 max         412 min
Histogram: 4 0 4 0 8 0 4 5 7 20
Neighs:       158427.0 ave      230792 max           0 min
Histogram: 4 2 2 0 5 3 4 4 12 16

Total # of neighbors = 8238192
Ave neighs/atom = 28.530436
Neighbor list builds = 0
Dangerous builds = 0
The dot product: -3.0438764623236e-07
Setting atom values ...
  1 settings made for x
  1 settings made for y
  1 settings made for z
Setting up cg style minimization ...
  Unit style    : metal
  Current step  : 4289
Per MPI rank memory allocation (min/avg/max) = 5.465 | 6.344 | 6.728 Mbytes
Step PotEng KinEng TotEng v_fx v_fy v_fz 
    4289   -1152448.8            0   -1152448.8   0.07213377 0.0084641004 0.0071023632 
    4452   -1152448.8            0   -1152448.8 5.2122115e-05 1.2966318e-05 4.3267297e-06 
Loop time of 3.57 on 52 procs for 163 steps with 288751 atoms

99.9% CPU use with 52 MPI tasks x 1 OpenMP threads

Minimization stats:
  Stopping criterion = linesearch alpha is zero
  Energy initial, next-to-last, final = 
     -1152448.78928187  -1152448.79125529  -1152448.79125529
  Force two-norm initial, final = 0.20668954 0.00016452457
  Force max component initial, final = 0.10003352 5.2122115e-05
  Final line search alpha, max atom move = 0.25 1.3030529e-05
  Iterations, force evaluations = 163 329

MPI task timing breakdown:
Section |  min time  |  avg time  |  max time  |%varavg| %total
---------------------------------------------------------------
Pair    | 0.93236    | 2.6207     | 3.4299     |  44.9 | 73.41
Neigh   | 0          | 0          | 0          |   0.0 |  0.00
Comm    | 0.042664   | 0.57763    | 1.8469     |  69.2 | 16.18
Output  | 0          | 0          | 0          |   0.0 |  0.00
Modify  | 5.212e-05  | 0.0054715  | 0.011647   |   3.5 |  0.15
Other   |            | 0.3662     |            |       | 10.26

Nlocal:        5552.90 ave        7917 max           0 min
Histogram: 4 2 2 0 2 6 4 1 14 17
Nghost:        6213.63 ave        8769 max         412 min
Histogram: 4 0 4 0 8 0 4 5 7 20
Neighs:       158427.0 ave      230791 max           0 min
Histogram: 4 2 2 0 5 3 4 4 12 16

Total # of neighbors = 8238191
Ave neighs/atom = 28.530433
Neighbor list builds = 0
Dangerous builds = 0
The dot product: -9.71964961445848e-08
Setting atom values ...
  1 settings made for x
  1 settings made for y
  1 settings made for z
Setting up cg style minimization ...
  Unit style    : metal
  Current step  : 4452
Per MPI rank memory allocation (min/avg/max) = 5.465 | 6.344 | 6.728 Mbytes
Step PotEng KinEng TotEng v_fx v_fy v_fz 
    4452   -1152448.8            0   -1152448.8  0.078861287 0.0086178552 0.0080971885 
    4647   -1152448.8            0   -1152448.8 -1.1429125e-06 -6.6075174e-07 -5.6273579e-08 
Loop time of 4.23581 on 52 procs for 195 steps with 288751 atoms

99.9% CPU use with 52 MPI tasks x 1 OpenMP threads

Minimization stats:
  Stopping criterion = linesearch alpha is zero
  Energy initial, next-to-last, final = 
     -1152448.76890009  -1152448.77078727  -1152448.77078727
  Force two-norm initial, final = 0.20913032 5.7847093e-05
  Force max component initial, final = 0.10057391 1.4516028e-05
  Final line search alpha, max atom move = 0.5 7.2580139e-06
  Iterations, force evaluations = 195 391

MPI task timing breakdown:
Section |  min time  |  avg time  |  max time  |%varavg| %total
---------------------------------------------------------------
Pair    | 1.1088     | 3.1032     | 4.0682     |  48.8 | 73.26
Neigh   | 0          | 0          | 0          |   0.0 |  0.00
Comm    | 0.051201   | 0.68101    | 2.1858     |  75.2 | 16.08
Output  | 0          | 0          | 0          |   0.0 |  0.00
Modify  | 6.4582e-05 | 0.0065157  | 0.013803   |   3.8 |  0.15
Other   |            | 0.4451     |            |       | 10.51

Nlocal:        5552.90 ave        7917 max           0 min
Histogram: 4 2 2 0 2 6 4 1 14 17
Nghost:        6213.58 ave        8768 max         412 min
Histogram: 4 0 4 0 8 0 4 5 7 20
Neighs:       158427.0 ave      230782 max           0 min
Histogram: 4 2 2 0 5 3 4 4 12 16

Total # of neighbors = 8238188
Ave neighs/atom = 28.530422
Neighbor list builds = 0
Dangerous builds = 0
The dot product: -1.10061523529793e-09
Setting atom values ...
  1 settings made for x
  1 settings made for y
  1 settings made for z
Setting up cg style minimization ...
  Unit style    : metal
  Current step  : 4647
Per MPI rank memory allocation (min/avg/max) = 5.465 | 6.344 | 6.728 Mbytes
Step PotEng KinEng TotEng v_fx v_fy v_fz 
    4647   -1152448.7            0   -1152448.7  0.085336265 0.0082859119 0.0085727129 
    4827   -1152448.7            0   -1152448.7 -1.6762218e-05 -3.3749318e-06 -1.4910492e-06 
Loop time of 3.93352 on 52 procs for 180 steps with 288751 atoms

99.9% CPU use with 52 MPI tasks x 1 OpenMP threads

Minimization stats:
  Stopping criterion = linesearch alpha is zero
  Energy initial, next-to-last, final = 
      -1152448.7469311  -1152448.74879111  -1152448.74879111
  Force two-norm initial, final = 0.21088751 6.4615915e-05
  Force max component initial, final = 0.099801374 1.8565092e-05
  Final line search alpha, max atom move = 0.5 9.2825458e-06
  Iterations, force evaluations = 180 361

MPI task timing breakdown:
Section |  min time  |  avg time  |  max time  |%varavg| %total
---------------------------------------------------------------
Pair    | 1.0246     | 2.8768     | 3.7707     |  47.0 | 73.13
Neigh   | 0          | 0          | 0          |   0.0 |  0.00
Comm    | 0.048928   | 0.6399     | 2.0428     |  72.3 | 16.27
Output  | 0          | 0          | 0          |   0.0 |  0.00
Modify  | 6.0081e-05 | 0.0060253  | 0.012744   |   3.6 |  0.15
Other   |            | 0.4108     |            |       | 10.44

Nlocal:        5552.90 ave        7917 max           0 min
Histogram: 4 2 2 0 2 6 4 1 14 17
Nghost:        6213.62 ave        8768 max         412 min
Histogram: 4 0 4 0 8 0 4 5 7 20
Neighs:       158427.0 ave      230775 max           0 min
Histogram: 4 2 2 0 5 3 4 4 12 16

Total # of neighbors = 8238188
Ave neighs/atom = 28.530422
Neighbor list builds = 0
Dangerous builds = 0
The dot product: -6.44553481843444e-08
Setting atom values ...
  1 settings made for x
  1 settings made for y
  1 settings made for z
Setting up cg style minimization ...
  Unit style    : metal
  Current step  : 4827
Per MPI rank memory allocation (min/avg/max) = 5.465 | 6.344 | 6.728 Mbytes
Step PotEng KinEng TotEng v_fx v_fy v_fz 
    4827   -1152448.7            0   -1152448.7  0.089273396 0.0082787616 0.0083344099 
    4979   -1152448.7            0   -1152448.7 3.9554688e-05 5.7517939e-06 3.4705415e-06 
Loop time of 3.31387 on 52 procs for 152 steps with 288751 atoms

99.9% CPU use with 52 MPI tasks x 1 OpenMP threads

Minimization stats:
  Stopping criterion = energy tolerance
  Energy initial, next-to-last, final = 
     -1152448.72343871  -1152448.72527585  -1152448.72527585
  Force two-norm initial, final = 0.21132616 0.00018400325
  Force max component initial, final = 0.098168709 7.7847670e-05
  Final line search alpha, max atom move = 1.0000000 7.7847670e-05
  Iterations, force evaluations = 152 306

MPI task timing breakdown:
Section |  min time  |  avg time  |  max time  |%varavg| %total
---------------------------------------------------------------
Pair    | 0.86796    | 2.4331     | 3.183      |  43.1 | 73.42
Neigh   | 0          | 0          | 0          |   0.0 |  0.00
Comm    | 0.039676   | 0.53302    | 1.708      |  66.6 | 16.08
Output  | 0          | 0          | 0          |   0.0 |  0.00
Modify  | 4.7816e-05 | 0.0050984  | 0.01076    |   3.3 |  0.15
Other   |            | 0.3426     |            |       | 10.34

Nlocal:        5552.90 ave        7917 max           0 min
Histogram: 4 2 2 0 2 6 4 1 14 17
Nghost:        6213.54 ave        8768 max         412 min
Histogram: 4 0 4 0 8 0 4 5 7 20
Neighs:       158427.0 ave      230777 max           0 min
Histogram: 4 2 2 0 5 3 4 4 12 16

Total # of neighbors = 8238186
Ave neighs/atom = 28.530415
Neighbor list builds = 0
Dangerous builds = 0
The dot product: 2.10491166371158e-07
Setting atom values ...
  1 settings made for x
  1 settings made for y
  1 settings made for z
Setting up cg style minimization ...
  Unit style    : metal
  Current step  : 4979
Per MPI rank memory allocation (min/avg/max) = 5.465 | 6.344 | 6.728 Mbytes
Step PotEng KinEng TotEng v_fx v_fy v_fz 
    4979   -1152448.7            0   -1152448.7  0.091381037 0.0089826038 0.0075869712 
    5000   -1152448.7            0   -1152448.7 -0.00037424271 -0.00010023931 -2.453926e-05 
    5135   -1152448.7            0   -1152448.7 4.6815148e-05 7.6129164e-06 3.5768639e-06 
Loop time of 3.39275 on 52 procs for 156 steps with 288751 atoms

99.9% CPU use with 52 MPI tasks x 1 OpenMP threads

Minimization stats:
  Stopping criterion = energy tolerance
  Energy initial, next-to-last, final = 
     -1152448.69844899  -1152448.70025766  -1152448.70025766
  Force two-norm initial, final = 0.21087605 0.00016484979
  Force max component initial, final = 0.096109075 7.3505883e-05
  Final line search alpha, max atom move = 1.0000000 7.3505883e-05
  Iterations, force evaluations = 156 312

MPI task timing breakdown:
Section |  min time  |  avg time  |  max time  |%varavg| %total
---------------------------------------------------------------
Pair    | 0.88559    | 2.4824     | 3.2572     |  43.6 | 73.17
Neigh   | 0          | 0          | 0          |   0.0 |  0.00
Comm    | 0.040743   | 0.54523    | 1.7323     |  67.2 | 16.07
Output  | 0.00011519 | 0.00011903 | 0.00026011 |   0.0 |  0.00
Modify  | 4.7863e-05 | 0.0052034  | 0.01104    |   3.4 |  0.15
Other   |            | 0.3598     |            |       | 10.60

Nlocal:        5552.90 ave        7917 max           0 min
Histogram: 4 2 2 0 2 6 4 1 14 17
Nghost:        6213.50 ave        8768 max         412 min
Histogram: 4 0 4 0 8 0 4 5 7 20
Neighs:       158427.0 ave      230768 max           0 min
Histogram: 4 2 2 0 5 3 4 4 12 16

Total # of neighbors = 8238188
Ave neighs/atom = 28.530422
Neighbor list builds = 0
Dangerous builds = 0
The dot product: 2.89465629739352e-07
Setting atom values ...
  1 settings made for x
  1 settings made for y
  1 settings made for z
Setting up cg style minimization ...
  Unit style    : metal
  Current step  : 5135
Per MPI rank memory allocation (min/avg/max) = 5.465 | 6.344 | 6.728 Mbytes
Step PotEng KinEng TotEng v_fx v_fy v_fz 
    5135   -1152448.7            0   -1152448.7  0.092042437  0.010575858 0.0064828825 
    5318   -1152448.7            0   -1152448.7 -2.1015999e-05 -3.007897e-06 -1.4212286e-06 
Loop time of 3.98297 on 52 procs for 183 steps with 288751 atoms

99.9% CPU use with 52 MPI tasks x 1 OpenMP threads

Minimization stats:
  Stopping criterion = linesearch alpha is zero
  Energy initial, next-to-last, final = 
     -1152448.67198622  -1152448.67375888  -1152448.67375888
  Force two-norm initial, final = 0.20971051 5.8999448e-05
  Force max component initial, final = 0.093554037 2.3138281e-05
  Final line search alpha, max atom move = 0.5 1.1569140e-05
  Iterations, force evaluations = 183 367

MPI task timing breakdown:
Section |  min time  |  avg time  |  max time  |%varavg| %total
---------------------------------------------------------------
Pair    | 1.0406     | 2.9121     | 3.8186     |  47.2 | 73.11
Neigh   | 0          | 0          | 0          |   0.0 |  0.00
Comm    | 0.049084   | 0.63899    | 2.0445     |  72.9 | 16.04
Output  | 0          | 0          | 0          |   0.0 |  0.00
Modify  | 5.2422e-05 | 0.0061133  | 0.012903   |   3.6 |  0.15
Other   |            | 0.4258     |            |       | 10.69

Nlocal:        5552.90 ave        7917 max           0 min
Histogram: 4 2 2 0 2 6 4 1 14 17
Nghost:        6213.52 ave        8768 max         412 min
Histogram: 4 0 4 0 8 0 4 5 7 20
Neighs:       158427.0 ave      230768 max           0 min
Histogram: 4 2 2 0 5 3 4 4 12 16

Total # of neighbors = 8238186
Ave neighs/atom = 28.530415
Neighbor list builds = 0
Dangerous builds = 0
The dot product: -1.43973978136512e-07
Setting atom values ...
  1 settings made for x
  1 settings made for y
  1 settings made for z
Setting up cg style minimization ...
  Unit style    : metal
  Current step  : 5318
Per MPI rank memory allocation (min/avg/max) = 5.465 | 6.344 | 6.728 Mbytes
Step PotEng KinEng TotEng v_fx v_fy v_fz 
    5318   -1152448.6            0   -1152448.6  0.091429187  0.013228889 0.0051209404 
    5491   -1152448.6            0   -1152448.6 -9.8725525e-06 -2.2294365e-06 -4.7568187e-07 
Loop time of 3.77394 on 52 procs for 173 steps with 288751 atoms

99.9% CPU use with 52 MPI tasks x 1 OpenMP threads

Minimization stats:
  Stopping criterion = linesearch alpha is zero
  Energy initial, next-to-last, final = 
     -1152448.64407772  -1152448.64580788  -1152448.64580788
  Force two-norm initial, final = 0.20802712 9.3676436e-05
  Force max component initial, final = 0.091429187 2.5997394e-05
  Final line search alpha, max atom move = 0.5 1.2998697e-05
  Iterations, force evaluations = 173 347

MPI task timing breakdown:
Section |  min time  |  avg time  |  max time  |%varavg| %total
---------------------------------------------------------------
Pair    | 0.98624    | 2.7598     | 3.6261     |  45.9 | 73.13
Neigh   | 0          | 0          | 0          |   0.0 |  0.00
Comm    | 0.045832   | 0.60654    | 1.9205     |  70.6 | 16.07
Output  | 0          | 0          | 0          |   0.0 |  0.00
Modify  | 7.0623e-05 | 0.0057986  | 0.012276   |   3.5 |  0.15
Other   |            | 0.4018     |            |       | 10.65

Nlocal:        5552.90 ave        7917 max           0 min
Histogram: 4 2 2 0 2 6 4 1 14 17
Nghost:        6213.52 ave        8768 max         412 min
Histogram: 4 0 4 0 8 0 4 5 7 20
Neighs:       158427.0 ave      230749 max           0 min
Histogram: 4 2 2 0 5 3 4 4 12 16

Total # of neighbors = 8238188
Ave neighs/atom = 28.530422
Neighbor list builds = 0
Dangerous builds = 0
The dot product: -7.12206694592842e-08
Setting atom values ...
  1 settings made for x
  1 settings made for y
  1 settings made for z
Setting up cg style minimization ...
  Unit style    : metal
  Current step  : 5491
Per MPI rank memory allocation (min/avg/max) = 5.465 | 6.344 | 6.728 Mbytes
Step PotEng KinEng TotEng v_fx v_fy v_fz 
    5491   -1152448.6            0   -1152448.6  0.089736757  0.017249873 0.0035605639 
    5644   -1152448.6            0   -1152448.6 -1.5889034e-06 2.9244183e-06 -3.6763833e-07 
Loop time of 3.34822 on 52 procs for 153 steps with 288751 atoms

99.9% CPU use with 52 MPI tasks x 1 OpenMP threads

Minimization stats:
  Stopping criterion = linesearch alpha is zero
  Energy initial, next-to-last, final = 
     -1152448.61475534   -1152448.6164414   -1152448.6164414
  Force two-norm initial, final = 0.20617953 0.00018737755
  Force max component initial, final = 0.089736757 4.3648152e-05
  Final line search alpha, max atom move = 0.25 1.0912038e-05
  Iterations, force evaluations = 153 309

MPI task timing breakdown:
Section |  min time  |  avg time  |  max time  |%varavg| %total
---------------------------------------------------------------
Pair    | 0.87487    | 2.4525     | 3.217      |  43.4 | 73.25
Neigh   | 0          | 0          | 0          |   0.0 |  0.00
Comm    | 0.040435   | 0.53801    | 1.7224     |  66.8 | 16.07
Output  | 0          | 0          | 0          |   0.0 |  0.00
Modify  | 4.3128e-05 | 0.0051451  | 0.010913   |   3.3 |  0.15
Other   |            | 0.3525     |            |       | 10.53

Nlocal:        5552.90 ave        7917 max           0 min
Histogram: 4 2 2 0 2 6 4 1 14 17
Nghost:        6213.52 ave        8768 max         412 min
Histogram: 4 0 4 0 8 0 4 5 7 20
Neighs:       158427.0 ave      230755 max           0 min
Histogram: 4 2 2 0 5 3 4 4 12 16

Total # of neighbors = 8238188
Ave neighs/atom = 28.530422
Neighbor list builds = 0
Dangerous builds = 0
The dot product: -1.39111883183862e-08
Setting atom values ...
  1 settings made for x
  1 settings made for y
  1 settings made for z
Setting up cg style minimization ...
  Unit style    : metal
  Current step  : 5644
Per MPI rank memory allocation (min/avg/max) = 5.465 | 6.344 | 6.728 Mbytes
Step PotEng KinEng TotEng v_fx v_fy v_fz 
    5644   -1152448.6            0   -1152448.6  0.086973709  0.022380253 0.0018700175 
    5812   -1152448.6            0   -1152448.6 -1.3003547e-05 -7.3455572e-09 -5.9178558e-07 
Loop time of 3.66228 on 52 procs for 168 steps with 288751 atoms

99.9% CPU use with 52 MPI tasks x 1 OpenMP threads

Minimization stats:
  Stopping criterion = linesearch alpha is zero
  Energy initial, next-to-last, final = 
      -1152448.5840677  -1152448.58571159  -1152448.58571159
  Force two-norm initial, final = 0.20424915 0.00011024692
  Force max component initial, final = 0.086973709 2.2238737e-05
  Final line search alpha, max atom move = 0.5 1.1119369e-05
  Iterations, force evaluations = 168 337

MPI task timing breakdown:
Section |  min time  |  avg time  |  max time  |%varavg| %total
---------------------------------------------------------------
Pair    | 0.95666    | 2.6864     | 3.5185     |  45.4 | 73.35
Neigh   | 0          | 0          | 0          |   0.0 |  0.00
Comm    | 0.044089   | 0.59247    | 1.8908     |  70.1 | 16.18
Output  | 0          | 0          | 0          |   0.0 |  0.00
Modify  | 5.0967e-05 | 0.0056268  | 0.011947   |   3.5 |  0.15
Other   |            | 0.3778     |            |       | 10.32

Nlocal:        5552.90 ave        7917 max           0 min
Histogram: 4 2 2 0 2 6 4 1 14 17
Nghost:        6213.56 ave        8768 max         412 min
Histogram: 4 0 4 0 8 0 4 5 7 20
Neighs:       158427.0 ave      230757 max           0 min
Histogram: 4 2 2 0 5 3 4 4 12 16

Total # of neighbors = 8238187
Ave neighs/atom = 28.530419
Neighbor list builds = 0
Dangerous builds = 0
The dot product: -1.05000304210967e-07
Setting atom values ...
  1 settings made for x
  1 settings made for y
  1 settings made for z
Setting up cg style minimization ...
  Unit style    : metal
  Current step  : 5812
Per MPI rank memory allocation (min/avg/max) = 5.465 | 6.344 | 6.728 Mbytes
Step PotEng KinEng TotEng v_fx v_fy v_fz 
    5812   -1152448.6            0   -1152448.6   0.08312204  0.029198773 -7.2925046e-06 
    5958   -1152448.6            0   -1152448.6 -4.9787806e-05 -3.3743126e-06 -1.3373039e-06 
Loop time of 3.16482 on 52 procs for 146 steps with 288751 atoms

99.9% CPU use with 52 MPI tasks x 1 OpenMP threads

Minimization stats:
  Stopping criterion = energy tolerance
  Energy initial, next-to-last, final = 
     -1152448.55213322  -1152448.55375255  -1152448.55375255
  Force two-norm initial, final = 0.20222545 0.00022431806
  Force max component initial, final = 0.087952769 5.0338299e-05
  Final line search alpha, max atom move = 1.0000000 5.0338299e-05
  Iterations, force evaluations = 146 292

MPI task timing breakdown:
Section |  min time  |  avg time  |  max time  |%varavg| %total
---------------------------------------------------------------
Pair    | 0.82944    | 2.3194     | 3.0403     |  42.1 | 73.29
Neigh   | 0          | 0          | 0          |   0.0 |  0.00
Comm    | 0.038352   | 0.50795    | 1.6359     |  65.1 | 16.05
Output  | 0          | 0          | 0          |   0.0 |  0.00
Modify  | 4.7769e-05 | 0.0048642  | 0.010308   |   3.3 |  0.15
Other   |            | 0.3326     |            |       | 10.51

Nlocal:        5552.90 ave        7917 max           0 min
Histogram: 4 2 2 0 2 6 4 1 14 17
Nghost:        6213.56 ave        8768 max         412 min
Histogram: 4 0 4 0 8 0 4 5 7 20
Neighs:       158427.0 ave      230763 max           0 min
Histogram: 4 2 2 0 5 3 4 4 12 16

Total # of neighbors = 8238193
Ave neighs/atom = 28.530440
Neighbor list builds = 0
Dangerous builds = 0
The dot product: -4.63140936561728e-07
Setting atom values ...
  1 settings made for x
  1 settings made for y
  1 settings made for z
Setting up cg style minimization ...
  Unit style    : metal
  Current step  : 5958
Per MPI rank memory allocation (min/avg/max) = 5.465 | 6.344 | 6.728 Mbytes
Step PotEng KinEng TotEng v_fx v_fy v_fz 
    5958   -1152448.5            0   -1152448.5  0.078995099  0.053312405 -0.0039488465 
    6000   -1152448.6            0   -1152448.6  0.007334423 0.00033005502 0.00011377058 
    6225   -1152448.6            0   -1152448.6 -2.1564439e-05 -4.288666e-06 1.0554598e-08 
Loop time of 5.86508 on 52 procs for 267 steps with 288751 atoms

99.9% CPU use with 52 MPI tasks x 1 OpenMP threads

Minimization stats:
  Stopping criterion = linesearch alpha is zero
  Energy initial, next-to-last, final = 
      -1152448.5193346  -1152448.61344964  -1152448.61344964
  Force two-norm initial, final = 0.20528595 0.0001476297
  Force max component initial, final = 0.089618417 4.7148161e-05
  Final line search alpha, max atom move = 0.5 2.3574080e-05
  Iterations, force evaluations = 267 536

MPI task timing breakdown:
Section |  min time  |  avg time  |  max time  |%varavg| %total
---------------------------------------------------------------
Pair    | 1.5341     | 4.2696     | 5.5869     |  56.9 | 72.80
Neigh   | 4.1693e-05 | 0.011422   | 0.016828   |   4.5 |  0.19
Comm    | 0.071568   | 0.94447    | 2.9973     |  87.7 | 16.10
Output  | 0.0001205  | 0.00012449 | 0.00027571 |   0.0 |  0.00
Modify  | 9.1371e-05 | 0.0089276  | 0.018872   |   4.4 |  0.15
Other   |            | 0.6306     |            |       | 10.75

Nlocal:        5552.90 ave        7915 max           0 min
Histogram: 4 2 2 0 2 6 4 1 14 17
Nghost:        6213.54 ave        8768 max         412 min
Histogram: 4 0 4 0 8 0 4 5 7 20
Neighs:       158427.0 ave      230714 max           0 min
Histogram: 4 2 2 0 5 3 4 4 12 16

Total # of neighbors = 8238205
Ave neighs/atom = 28.530481
Neighbor list builds = 2
Dangerous builds = 0
The dot product: -2.2322125673734e-06
Setting atom values ...
  1 settings made for x
  1 settings made for y
  1 settings made for z
Setting up cg style minimization ...
  Unit style    : metal
  Current step  : 6225
Per MPI rank memory allocation (min/avg/max) = 5.465 | 6.344 | 6.728 Mbytes
Step PotEng KinEng TotEng v_fx v_fy v_fz 
    6225   -1152448.6            0   -1152448.6    0.0855094   0.13435979 -0.082055682 
    6515     -1152449            0     -1152449 -2.9761906e-06 1.3804046e-05 -7.9660193e-06 
Loop time of 6.33825 on 52 procs for 290 steps with 288751 atoms

99.9% CPU use with 52 MPI tasks x 1 OpenMP threads

Minimization stats:
  Stopping criterion = linesearch alpha is zero
  Energy initial, next-to-last, final = 
     -1152448.60700482   -1152449.0002468   -1152449.0002468
  Force two-norm initial, final = 0.22909134 0.0001260811
  Force max component initial, final = 0.13435979 1.9089810e-05
  Final line search alpha, max atom move = 0.5 9.5449049e-06
  Iterations, force evaluations = 290 582

MPI task timing breakdown:
Section |  min time  |  avg time  |  max time  |%varavg| %total
---------------------------------------------------------------
Pair    | 1.6948     | 4.6241     | 6.0355     |  58.7 | 72.96
Neigh   | 0.00011349 | 0.034338   | 0.050881   |   7.8 |  0.54
Comm    | 0.079098   | 1.0135     | 3.2422     |  91.5 | 15.99
Output  | 0          | 0          | 0          |   0.0 |  0.00
Modify  | 8.622e-05  | 0.0096939  | 0.020593   |   4.6 |  0.15
Other   |            | 0.6567     |            |       | 10.36

Nlocal:        5552.90 ave        7900 max           0 min
Histogram: 4 2 2 0 2 6 4 0 14 18
Nghost:        6213.73 ave        8769 max         412 min
Histogram: 4 0 4 0 8 0 4 5 7 20
Neighs:       158427.0 ave      230231 max           0 min
Histogram: 4 2 2 0 5 3 4 4 12 16

Total # of neighbors = 8238209
Ave neighs/atom = 28.530495
Neighbor list builds = 6
Dangerous builds = 0
The dot product: 4.78036984843083e-06
Setting atom values ...
  1 settings made for x
  1 settings made for y
  1 settings made for z
Setting up cg style minimization ...
  Unit style    : metal
  Current step  : 6515
Per MPI rank memory allocation (min/avg/max) = 5.465 | 6.344 | 6.728 Mbytes
Step PotEng KinEng TotEng v_fx v_fy v_fz 
    6515     -1152449            0     -1152449  -0.58126306  -0.11162923   0.80610251 
    6790   -1152449.2            0   -1152449.2 -1.826658e-05 2.2650558e-05 -1.5130396e-05 
Loop time of 5.94733 on 52 procs for 275 steps with 288751 atoms

99.9% CPU use with 52 MPI tasks x 1 OpenMP threads

Minimization stats:
  Stopping criterion = energy tolerance
  Energy initial, next-to-last, final = 
     -1152449.02385537  -1152449.18190878  -1152449.18190878
  Force two-norm initial, final = 1.0117955 9.5648402e-05
  Force max component initial, final = 0.80610251 2.2650558e-05
  Final line search alpha, max atom move = 1.0000000 2.2650558e-05
  Iterations, force evaluations = 275 550

MPI task timing breakdown:
Section |  min time  |  avg time  |  max time  |%varavg| %total
---------------------------------------------------------------
Pair    | 1.571      | 4.3669     | 5.6979     |  57.5 | 73.43
Neigh   | 3.8504e-05 | 0.011432   | 0.016912   |   4.5 |  0.19
Comm    | 0.072802   | 0.95576    | 3.0537     |  89.4 | 16.07
Output  | 0          | 0          | 0          |   0.0 |  0.00
Modify  | 8.7515e-05 | 0.0091854  | 0.019396   |   4.5 |  0.15
Other   |            | 0.6041     |            |       | 10.16

Nlocal:        5552.90 ave        7871 max           0 min
Histogram: 4 2 2 0 2 6 4 0 14 18
Nghost:        6213.73 ave        8770 max         412 min
Histogram: 4 0 4 0 8 0 4 5 7 20
Neighs:       158427.0 ave      229266 max           0 min
Histogram: 4 2 2 0 4 4 4 4 10 18

Total # of neighbors = 8238205
Ave neighs/atom = 28.530481
Neighbor list builds = 2
Dangerous builds = 0
The dot product: 6.20193103874421e-07
Setting atom values ...
  1 settings made for x
  1 settings made for y
  1 settings made for z
Setting up cg style minimization ...
  Unit style    : metal
  Current step  : 6790
Per MPI rank memory allocation (min/avg/max) = 5.465 | 6.344 | 6.728 Mbytes
Step PotEng KinEng TotEng v_fx v_fy v_fz 
    6790   -1152449.2            0   -1152449.2    0.3591456  0.089009004  -0.24550079 
    7000   -1152449.2            0   -1152449.2 -2.1197117e-05 2.9558961e-05 -2.1997825e-05 
    7023   -1152449.2            0   -1152449.2 -6.8756034e-06 1.7670644e-05 -1.5607015e-05 
Loop time of 5.04313 on 52 procs for 233 steps with 288751 atoms

99.9% CPU use with 52 MPI tasks x 1 OpenMP threads

Minimization stats:
  Stopping criterion = linesearch alpha is zero
  Energy initial, next-to-last, final = 
     -1152449.20588197  -1152449.23148993  -1152449.23148993
  Force two-norm initial, final = 0.47491178 0.00012120314
  Force max component initial, final = 0.3591456 3.1249607e-05
  Final line search alpha, max atom move = 0.5 1.5624803e-05
  Iterations, force evaluations = 233 467

MPI task timing breakdown:
Section |  min time  |  avg time  |  max time  |%varavg| %total
---------------------------------------------------------------
Pair    | 1.331      | 3.7042     | 4.8362     |  53.1 | 73.45
Neigh   | 1.9213e-05 | 0.0057198  | 0.0083923  |   3.2 |  0.11
Comm    | 0.061772   | 0.81057    | 2.5974     |  82.2 | 16.07
Output  | 0.00012158 | 0.00012601 | 0.00027843 |   0.0 |  0.00
Modify  | 6.1016e-05 | 0.0077738  | 0.016556   |   4.1 |  0.15
Other   |            | 0.5147     |            |       | 10.21

Nlocal:        5552.90 ave        7864 max           0 min
Histogram: 4 2 2 0 2 6 4 0 13 19
Nghost:        6213.69 ave        8771 max         412 min
Histogram: 4 0 4 0 8 0 4 5 7 20
Neighs:       158427.0 ave      229041 max           0 min
Histogram: 4 2 2 0 4 4 4 4 10 18

Total # of neighbors = 8238196
Ave neighs/atom = 28.530450
Neighbor list builds = 1
Dangerous builds = 0
The dot product: 4.74741452134477e-07
Setting atom values ...
  1 settings made for x
  1 settings made for y
  1 settings made for z
Setting up cg style minimization ...
  Unit style    : metal
  Current step  : 7023
Per MPI rank memory allocation (min/avg/max) = 5.465 | 6.344 | 6.728 Mbytes
Step PotEng KinEng TotEng v_fx v_fy v_fz 
    7023   -1152449.3            0   -1152449.3 -0.081633754 -0.0021492547  0.052670578 
    7243   -1152449.3            0   -1152449.3 -3.1118439e-06 -5.7692495e-06 8.619587e-06 
Loop time of 4.74785 on 52 procs for 220 steps with 288751 atoms

99.9% CPU use with 52 MPI tasks x 1 OpenMP threads

Minimization stats:
  Stopping criterion = energy tolerance
  Energy initial, next-to-last, final = 
      -1152449.2529554  -1152449.25736736  -1152449.25736736
  Force two-norm initial, final = 0.18604347 8.1095817e-05
  Force max component initial, final = 0.088039695 1.5758873e-05
  Final line search alpha, max atom move = 1.0000000 1.5758873e-05
  Iterations, force evaluations = 220 440

MPI task timing breakdown:
Section |  min time  |  avg time  |  max time  |%varavg| %total
---------------------------------------------------------------
Pair    | 1.2468     | 3.4959     | 4.5615     |  51.7 | 73.63
Neigh   | 0          | 0          | 0          |   0.0 |  0.00
Comm    | 0.057481   | 0.76464    | 2.4427     |  80.2 | 16.10
Output  | 0          | 0          | 0          |   0.0 |  0.00
Modify  | 6.4425e-05 | 0.0073192  | 0.015411   |   4.0 |  0.15
Other   |            | 0.4799     |            |       | 10.11

Nlocal:        5552.90 ave        7866 max           0 min
Histogram: 4 2 2 0 2 6 4 0 13 19
Nghost:        6213.69 ave        8771 max         412 min
Histogram: 4 0 4 0 8 0 4 5 7 20
Neighs:       158427.0 ave      229108 max           0 min
Histogram: 4 2 2 0 4 4 4 4 10 18

Total # of neighbors = 8238205
Ave neighs/atom = 28.530481
Neighbor list builds = 0
Dangerous builds = 0
The dot product: 3.02358549925378e-07
Setting atom values ...
  1 settings made for x
  1 settings made for y
  1 settings made for z
Setting up cg style minimization ...
  Unit style    : metal
  Current step  : 7243
Per MPI rank memory allocation (min/avg/max) = 5.465 | 6.344 | 6.728 Mbytes
Step PotEng KinEng TotEng v_fx v_fy v_fz 
    7243   -1152449.3            0   -1152449.3  0.063954681 0.0071836734 -0.042868874 
    7438   -1152449.3            0   -1152449.3 1.2365339e-05 1.2183538e-06 -8.0964042e-06 
Loop time of 4.26011 on 52 procs for 195 steps with 288751 atoms

99.9% CPU use with 52 MPI tasks x 1 OpenMP threads

Minimization stats:
  Stopping criterion = linesearch alpha is zero
[...]
Nghost:        6214.06 ave        8769 max         412 min
Histogram: 4 0 4 0 8 0 4 5 7 20
Neighs:       158427.0 ave      228482 max           0 min
Histogram: 4 2 2 0 4 4 4 4 9 19

Total # of neighbors = 8238195
Ave neighs/atom = 28.530447
Neighbor list builds = 0
Dangerous builds = 0
The dot product: 1.28365443065204e-08
Setting atom values ...
  1 settings made for x
  1 settings made for y
  1 settings made for z
Setting up cg style minimization ...
  Unit style    : metal
  Current step  : 26620
Per MPI rank memory allocation (min/avg/max) = 5.465 | 6.344 | 6.728 Mbytes
Step PotEng KinEng TotEng v_fx v_fy v_fz 
   26620   -1152449.4            0   -1152449.4 -2.0966664e-05 -0.030204616  0.031559398 
   26828   -1152449.4            0   -1152449.4 1.9694824e-05 -3.8261753e-06 -8.9888153e-06 
Loop time of 4.49041 on 52 procs for 208 steps with 288751 atoms

99.9% CPU use with 52 MPI tasks x 1 OpenMP threads

Minimization stats:
  Stopping criterion = linesearch alpha is zero
  Energy initial, next-to-last, final = 
     -1152449.41258335   -1152449.4140952   -1152449.4140952
  Force two-norm initial, final = 0.1777794 6.8331959e-05
  Force max component initial, final = 0.081541706 1.9694824e-05
  Final line search alpha, max atom move = 0.5 9.8474120e-06
  Iterations, force evaluations = 208 417

MPI task timing breakdown:
Section |  min time  |  avg time  |  max time  |%varavg| %total
---------------------------------------------------------------
Pair    | 1.1865     | 3.3116     | 4.3033     |  50.1 | 73.75
Neigh   | 0          | 0          | 0          |   0.0 |  0.00
Comm    | 0.055794   | 0.72716    | 2.2951     |  77.8 | 16.19
Output  | 0          | 0          | 0          |   0.0 |  0.00
Modify  | 6.6632e-05 | 0.0069427  | 0.014835   |   3.9 |  0.15
Other   |            | 0.4447     |            |       |  9.90

Nlocal:        5552.90 ave        7860 max           0 min
Histogram: 4 2 2 0 2 6 4 0 12 20
Nghost:        6214.06 ave        8769 max         412 min
Histogram: 4 0 4 0 8 0 4 5 7 20
Neighs:       158427.0 ave      228482 max           0 min
Histogram: 4 2 2 0 4 4 4 4 9 19

Total # of neighbors = 8238199
Ave neighs/atom = 28.530461
Neighbor list builds = 0
Dangerous builds = 0
The dot product: 1.05292405495528e-09
Setting atom values ...
  1 settings made for x
  1 settings made for y
  1 settings made for z
Setting up cg style minimization ...
  Unit style    : metal
  Current step  : 26828
Per MPI rank memory allocation (min/avg/max) = 5.465 | 6.344 | 6.728 Mbytes
Step PotEng KinEng TotEng v_fx v_fy v_fz 
   26828   -1152449.4            0   -1152449.4 -0.009081543  -0.03060271  0.037982597 
   27000   -1152449.4            0   -1152449.4 -9.5970818e-06 1.1841119e-05 -6.0501842e-06 
   27059   -1152449.4            0   -1152449.4 -1.9535933e-06 1.3392625e-06 -1.1177348e-07 
Loop time of 4.97534 on 52 procs for 231 steps with 288751 atoms

99.9% CPU use with 52 MPI tasks x 1 OpenMP threads

Minimization stats:
  Stopping criterion = linesearch alpha is zero
  Energy initial, next-to-last, final = 
     -1152449.41344457  -1152449.41498209  -1152449.41498209
  Force two-norm initial, final = 0.17944239 2.3732700e-05
  Force max component initial, final = 0.080902855 2.5556985e-06
  Final line search alpha, max atom move = 0.5 1.2778492e-06
  Iterations, force evaluations = 231 463

MPI task timing breakdown:
Section |  min time  |  avg time  |  max time  |%varavg| %total
---------------------------------------------------------------
Pair    | 1.3002     | 3.6683     | 4.7798     |  53.2 | 73.73
Neigh   | 0          | 0          | 0          |   0.0 |  0.00
Comm    | 0.062808   | 0.80879    | 2.5679     |  81.8 | 16.26
Output  | 0.00011923 | 0.00012481 | 0.00035395 |   0.0 |  0.00
Modify  | 6.3791e-05 | 0.0076973  | 0.016407   |   4.1 |  0.15
Other   |            | 0.4904     |            |       |  9.86

Nlocal:        5552.90 ave        7858 max           0 min
Histogram: 4 2 2 0 2 6 4 0 12 20
Nghost:        6214.10 ave        8769 max         412 min
Histogram: 4 0 4 0 8 0 4 5 7 20
Neighs:       158427.0 ave      228411 max           0 min
Histogram: 4 2 2 0 4 4 4 4 9 19

Total # of neighbors = 8238196
Ave neighs/atom = 28.530450
Neighbor list builds = 0
Dangerous builds = 0
The dot product: 5.23754647200054e-10
Setting atom values ...
  1 settings made for x
  1 settings made for y
  1 settings made for z
Setting up cg style minimization ...
  Unit style    : metal
  Current step  : 27059
Per MPI rank memory allocation (min/avg/max) = 5.465 | 6.345 | 6.729 Mbytes
Step PotEng KinEng TotEng v_fx v_fy v_fz 
   27059   -1152449.4            0   -1152449.4 -0.015004183 -0.031923611  0.043336729 
   27233   -1152449.4            0   -1152449.4 -1.1858358e-05 2.0010779e-05 -1.3116582e-05 
Loop time of 3.76489 on 52 procs for 174 steps with 288751 atoms

99.9% CPU use with 52 MPI tasks x 1 OpenMP threads

Minimization stats:
  Stopping criterion = linesearch alpha is zero
  Energy initial, next-to-last, final = 
     -1152449.41254863   -1152449.4141113   -1152449.4141113
  Force two-norm initial, final = 0.18131435 0.00020466174
  Force max component initial, final = 0.080069 2.1916078e-05
  Final line search alpha, max atom move = 0.25 5.4790194e-06
  Iterations, force evaluations = 174 351

MPI task timing breakdown:
Section |  min time  |  avg time  |  max time  |%varavg| %total
---------------------------------------------------------------
Pair    | 0.98867    | 2.7839     | 3.6171     |  46.2 | 73.94
Neigh   | 0          | 0          | 0          |   0.0 |  0.00
Comm    | 0.047539   | 0.60882    | 1.9342     |  71.6 | 16.17
Output  | 0          | 0          | 0          |   0.0 |  0.00
Modify  | 5.5401e-05 | 0.0058726  | 0.012521   |   3.6 |  0.16
Other   |            | 0.3663     |            |       |  9.73

Nlocal:        5552.90 ave        7858 max           0 min
Histogram: 4 2 2 0 2 6 4 1 11 20
Nghost:        6214.10 ave        8769 max         412 min
Histogram: 4 0 4 0 8 0 4 5 7 20
Neighs:       158427.0 ave      228412 max           0 min
Histogram: 4 2 2 0 4 4 4 4 9 19

Total # of neighbors = 8238199
Ave neighs/atom = 28.530461
Neighbor list builds = 0
Dangerous builds = 0
The dot product: -3.86064613243412e-08
Setting atom values ...
  1 settings made for x
  1 settings made for y
  1 settings made for z
Setting up cg style minimization ...
  Unit style    : metal
  Current step  : 27233
Per MPI rank memory allocation (min/avg/max) = 5.465 | 6.345 | 6.729 Mbytes
Step PotEng KinEng TotEng v_fx v_fy v_fz 
   27233   -1152449.4            0   -1152449.4 -0.013763796 -0.032572656  0.043303173 
   27418   -1152449.4            0   -1152449.4 1.3335656e-05 5.7410164e-06 -1.486452e-05 
Loop time of 3.98287 on 52 procs for 185 steps with 288751 atoms

99.9% CPU use with 52 MPI tasks x 1 OpenMP threads

Minimization stats:
  Stopping criterion = energy tolerance
  Energy initial, next-to-last, final = 
     -1152449.41003035  -1152449.41157085  -1152449.41157085
  Force two-norm initial, final = 0.180067 0.00013121858
  Force max component initial, final = 0.079096717 2.1786758e-05
  Final line search alpha, max atom move = 1.0000000 2.1786758e-05
  Iterations, force evaluations = 185 370

MPI task timing breakdown:
Section |  min time  |  avg time  |  max time  |%varavg| %total
---------------------------------------------------------------
Pair    | 1.0411     | 2.9337     | 3.8274     |  47.6 | 73.66
Neigh   | 0          | 0          | 0          |   0.0 |  0.00
Comm    | 0.050221   | 0.6477     | 2.0461     |  73.1 | 16.26
Output  | 0          | 0          | 0          |   0.0 |  0.00
Modify  | 4.9528e-05 | 0.0061497  | 0.013036   |   3.7 |  0.15
Other   |            | 0.3953     |            |       |  9.93

Nlocal:        5552.90 ave        7858 max           0 min
Histogram: 4 2 2 0 2 6 4 1 11 20
Nghost:        6214.10 ave        8769 max         412 min
Histogram: 4 0 4 0 8 0 4 5 7 20
Neighs:       158427.0 ave      228414 max           0 min
Histogram: 4 2 2 0 4 4 4 4 9 19

Total # of neighbors = 8238202
Ave neighs/atom = 28.530471
Neighbor list builds = 0
Dangerous builds = 0
The dot product: -8.28213542387731e-08
Setting atom values ...
  1 settings made for x
  1 settings made for y
  1 settings made for z
Setting up cg style minimization ...
  Unit style    : metal
  Current step  : 27418
Per MPI rank memory allocation (min/avg/max) = 5.465 | 6.345 | 6.729 Mbytes
Step PotEng KinEng TotEng v_fx v_fy v_fz 
   27418   -1152449.4            0   -1152449.4 -0.010687913 -0.033320353  0.042150483 
   27641   -1152449.4            0   -1152449.4 -2.5379417e-07 -5.1727997e-06 5.6088753e-06 
Loop time of 4.81476 on 52 procs for 223 steps with 288751 atoms

99.9% CPU use with 52 MPI tasks x 1 OpenMP threads

Minimization stats:
  Stopping criterion = linesearch alpha is zero
  Energy initial, next-to-last, final = 
     -1152449.40584928   -1152449.4073498   -1152449.4073498
  Force two-norm initial, final = 0.17784261 3.1032943e-05
  Force max component initial, final = 0.078123101 5.6088753e-06
  Final line search alpha, max atom move = 0.5 2.8044377e-06
  Iterations, force evaluations = 223 447

MPI task timing breakdown:
Section |  min time  |  avg time  |  max time  |%varavg| %total
---------------------------------------------------------------
Pair    | 1.2601     | 3.5462     | 4.6103     |  52.1 | 73.65
Neigh   | 0          | 0          | 0          |   0.0 |  0.00
Comm    | 0.061202   | 0.77748    | 2.4652     |  80.7 | 16.15
Output  | 0          | 0          | 0          |   0.0 |  0.00
Modify  | 6.9924e-05 | 0.0074546  | 0.0158     |   4.0 |  0.15
Other   |            | 0.4836     |            |       | 10.04

Nlocal:        5552.90 ave        7858 max           0 min
Histogram: 4 2 2 0 2 6 4 1 11 20
Nghost:        6214.21 ave        8769 max         412 min
Histogram: 4 0 4 0 8 0 4 5 7 20
Neighs:       158427.0 ave      228409 max           0 min
Histogram: 4 2 2 0 4 4 4 4 9 19

Total # of neighbors = 8238202
Ave neighs/atom = 28.530471
Neighbor list builds = 0
Dangerous builds = 0
The dot product: 2.41857050497537e-08
Setting atom values ...
  1 settings made for x
  1 settings made for y
  1 settings made for z
Setting up cg style minimization ...
  Unit style    : metal
  Current step  : 27641
Per MPI rank memory allocation (min/avg/max) = 5.465 | 6.345 | 6.729 Mbytes
Step PotEng KinEng TotEng v_fx v_fy v_fz 
   27641   -1152449.4            0   -1152449.4 -0.0067340486 -0.034388324  0.040736052 
   27816   -1152449.4            0   -1152449.4 3.7675407e-05 -1.0238028e-05 -1.4340429e-05 
Loop time of 3.77855 on 52 procs for 175 steps with 288751 atoms

99.9% CPU use with 52 MPI tasks x 1 OpenMP threads

Minimization stats:
  Stopping criterion = energy tolerance
  Energy initial, next-to-last, final = 
     -1152449.40000504  -1152449.40145681  -1152449.40145681
  Force two-norm initial, final = 0.17532988 0.00019685512
  Force max component initial, final = 0.077133282 3.7675407e-05
  Final line search alpha, max atom move = 1.0000000 3.7675407e-05
  Iterations, force evaluations = 175 350

MPI task timing breakdown:
Section |  min time  |  avg time  |  max time  |%varavg| %total
---------------------------------------------------------------
Pair    | 0.98581    | 2.7776     | 3.62       |  46.3 | 73.51
Neigh   | 0          | 0          | 0          |   0.0 |  0.00
Comm    | 0.047452   | 0.61231    | 1.9401     |  71.2 | 16.20
Output  | 0          | 0          | 0          |   0.0 |  0.00
Modify  | 5.2138e-05 | 0.005827   | 0.012362   |   3.6 |  0.15
Other   |            | 0.3829     |            |       | 10.13

Nlocal:        5552.90 ave        7858 max           0 min
Histogram: 4 2 2 0 2 6 4 1 11 20
Nghost:        6214.23 ave        8768 max         412 min
Histogram: 4 0 4 0 8 0 4 5 7 20
Neighs:       158427.0 ave      228393 max           0 min
Histogram: 4 2 2 0 4 4 4 4 9 19

Total # of neighbors = 8238201
Ave neighs/atom = 28.530467
Neighbor list builds = 0
Dangerous builds = 0
The dot product: -7.92721861096297e-08
Setting atom values ...
  1 settings made for x
  1 settings made for y
  1 settings made for z
Setting up cg style minimization ...
  Unit style    : metal
  Current step  : 27816
Per MPI rank memory allocation (min/avg/max) = 5.465 | 6.345 | 6.729 Mbytes
Step PotEng KinEng TotEng v_fx v_fy v_fz 
   27816   -1152449.4            0   -1152449.4 -0.0018552161 -0.035764373  0.039016761 
   28000   -1152449.4            0   -1152449.4 -1.1161186e-05 5.6080713e-06 1.5403063e-06 
   28016   -1152449.4            0   -1152449.4 -2.7200308e-05 2.2209684e-06 1.5843793e-05 
Loop time of 4.29372 on 52 procs for 200 steps with 288751 atoms

99.9% CPU use with 52 MPI tasks x 1 OpenMP threads

Minimization stats:
  Stopping criterion = energy tolerance
  Energy initial, next-to-last, final = 
     -1152449.39253502  -1152449.39393263  -1152449.39393263
  Force two-norm initial, final = 0.17288524 9.4593935e-05
  Force max component initial, final = 0.076552936 2.7200308e-05
  Final line search alpha, max atom move = 1.0000000 2.7200308e-05
  Iterations, force evaluations = 200 400

MPI task timing breakdown:
Section |  min time  |  avg time  |  max time  |%varavg| %total
---------------------------------------------------------------
Pair    | 1.1234     | 3.1708     | 4.1258     |  49.4 | 73.85
Neigh   | 0          | 0          | 0          |   0.0 |  0.00
Comm    | 0.054207   | 0.69729    | 2.2182     |  76.2 | 16.24
Output  | 0.00012139 | 0.00012705 | 0.00036004 |   0.0 |  0.00
Modify  | 6.396e-05  | 0.0066633  | 0.01416    |   3.8 |  0.16
Other   |            | 0.4189     |            |       |  9.76

Nlocal:        5552.90 ave        7857 max           0 min
Histogram: 4 2 2 0 2 6 4 1 11 20
Nghost:        6214.23 ave        8768 max         412 min
Histogram: 4 0 4 0 8 0 4 5 7 20
Neighs:       158427.0 ave      228369 max           0 min
Histogram: 4 2 2 0 4 4 4 4 9 19

Total # of neighbors = 8238201
Ave neighs/atom = 28.530467
Neighbor list builds = 0
Dangerous builds = 0
The dot product: 6.25563920473782e-08
Setting atom values ...
  1 settings made for x
  1 settings made for y
  1 settings made for z
Setting up cg style minimization ...
  Unit style    : metal
  Current step  : 28016
Per MPI rank memory allocation (min/avg/max) = 5.465 | 6.345 | 6.729 Mbytes
Step PotEng KinEng TotEng v_fx v_fy v_fz 
   28016   -1152449.4            0   -1152449.4 0.0046278484 -0.037704059  0.036809863 
   28221   -1152449.4            0   -1152449.4 -2.4011138e-06 2.1248086e-06 -6.4023067e-07 
Loop time of 4.42257 on 52 procs for 205 steps with 288751 atoms

99.9% CPU use with 52 MPI tasks x 1 OpenMP threads

Minimization stats:
  Stopping criterion = linesearch alpha is zero
  Energy initial, next-to-last, final = 
     -1152449.38351807  -1152449.38485953  -1152449.38485953
  Force two-norm initial, final = 0.17080473 7.2704038e-05
  Force max component initial, final = 0.077000605 6.7237370e-06
  Final line search alpha, max atom move = 0.5 3.3618685e-06
  Iterations, force evaluations = 205 411

MPI task timing breakdown:
Section |  min time  |  avg time  |  max time  |%varavg| %total
---------------------------------------------------------------
Pair    | 1.1569     | 3.2598     | 4.2504     |  50.2 | 73.71
Neigh   | 0          | 0          | 0          |   0.0 |  0.00
Comm    | 0.055802   | 0.71771    | 2.2863     |  77.4 | 16.23
Output  | 0          | 0          | 0          |   0.0 |  0.00
Modify  | 5.6438e-05 | 0.0068305  | 0.014557   |   3.9 |  0.15
Other   |            | 0.4382     |            |       |  9.91

Nlocal:        5552.90 ave        7857 max           0 min
Histogram: 4 2 2 0 2 6 4 1 11 20
Nghost:        6214.27 ave        8768 max         412 min
Histogram: 4 0 4 0 8 0 4 5 7 20
Neighs:       158427.0 ave      228369 max           0 min
Histogram: 4 2 2 0 4 4 4 4 9 19

Total # of neighbors = 8238199
Ave neighs/atom = 28.530461
Neighbor list builds = 0
Dangerous builds = 0
The dot product: -5.88844290942563e-09
Setting atom values ...
  1 settings made for x
  1 settings made for y
  1 settings made for z
Setting up cg style minimization ...
  Unit style    : metal
  Current step  : 28221
Per MPI rank memory allocation (min/avg/max) = 5.465 | 6.345 | 6.729 Mbytes
Step PotEng KinEng TotEng v_fx v_fy v_fz 
   28221   -1152449.4            0   -1152449.4  0.014477142 -0.040680909  0.033445508 
   28353   -1152449.4            0   -1152449.4 8.3036279e-05 9.4762861e-06 -6.576739e-05 
Loop time of 2.91447 on 52 procs for 132 steps with 288751 atoms

99.9% CPU use with 52 MPI tasks x 1 OpenMP threads

Minimization stats:
  Stopping criterion = linesearch alpha is zero
  Energy initial, next-to-last, final = 
     -1152449.37315492  -1152449.37448131  -1152449.37448131
  Force two-norm initial, final = 0.17044934 0.00036303226
  Force max component initial, final = 0.077280538 8.3036279e-05
  Final line search alpha, max atom move = 0.0625 5.1897674e-06
  Iterations, force evaluations = 132 271

MPI task timing breakdown:
Section |  min time  |  avg time  |  max time  |%varavg| %total
---------------------------------------------------------------
Pair    | 0.76299    | 2.1532     | 2.8014     |  40.8 | 73.88
Neigh   | 0          | 0          | 0          |   0.0 |  0.00
Comm    | 0.03699    | 0.47398    | 1.4937     |  62.7 | 16.26
Output  | 0          | 0          | 0          |   0.0 |  0.00
Modify  | 5.5843e-05 | 0.0045256  | 0.0095502  |   3.1 |  0.16
Other   |            | 0.2827     |            |       |  9.70

Nlocal:        5552.90 ave        7857 max           0 min
Histogram: 4 2 2 0 2 6 4 1 11 20
Nghost:        6214.27 ave        8768 max         412 min
Histogram: 4 0 4 0 8 0 4 5 7 20
Neighs:       158427.0 ave      228389 max           0 min
Histogram: 4 2 2 0 4 4 4 4 9 19

Total # of neighbors = 8238197
Ave neighs/atom = 28.530454
Neighbor list builds = 0
Dangerous builds = 0
The dot product: 1.2588046505315e-08
Setting atom values ...
  1 settings made for x
  1 settings made for y
  1 settings made for z
Setting up cg style minimization ...
  Unit style    : metal
  Current step  : 28353
Per MPI rank memory allocation (min/avg/max) = 5.465 | 6.345 | 6.729 Mbytes
Step PotEng KinEng TotEng v_fx v_fy v_fz 
   28353   -1152449.4            0   -1152449.4  0.026106786 -0.044201596  0.029514456 
   28420   -1152449.4            0   -1152449.4 2.1131763e-05 3.5779709e-05 -5.223155e-05 
Loop time of 1.44432 on 52 procs for 67 steps with 288751 atoms

99.9% CPU use with 52 MPI tasks x 1 OpenMP threads

Minimization stats:
  Stopping criterion = energy tolerance
  Energy initial, next-to-last, final = 
     -1152449.36195389  -1152449.36359919  -1152449.36359919
  Force two-norm initial, final = 0.17372573 0.00031904756
  Force max component initial, final = 0.077099203 8.3274494e-05
  Final line search alpha, max atom move = 1.0000000 8.3274494e-05
  Iterations, force evaluations = 67 134

MPI task timing breakdown:
Section |  min time  |  avg time  |  max time  |%varavg| %total
---------------------------------------------------------------
Pair    | 0.37783    | 1.0656     | 1.3878     |  28.7 | 73.78
Neigh   | 0          | 0          | 0          |   0.0 |  0.00
Comm    | 0.018028   | 0.23466    | 0.74449    |  44.1 | 16.25
Output  | 0          | 0          | 0          |   0.0 |  0.00
Modify  | 1.6318e-05 | 0.0022399  | 0.0047448  |   2.2 |  0.16
Other   |            | 0.1418     |            |       |  9.82

Nlocal:        5552.90 ave        7856 max           0 min
Histogram: 4 2 2 0 2 6 4 1 11 20
Nghost:        6214.23 ave        8768 max         412 min
Histogram: 4 0 4 0 8 0 4 5 7 20
Neighs:       158427.0 ave      228355 max           0 min
Histogram: 4 2 2 0 4 4 4 4 9 19

Total # of neighbors = 8238198
Ave neighs/atom = 28.530457
Neighbor list builds = 0
Dangerous builds = 0
The dot product: -1.33851083209367e-07
