LAMMPS (29 Oct 2020)
OMP_NUM_THREADS environment is not set. Defaulting to 1 thread. (../comm.cpp:94)
  using 1 OpenMP thread(s) per MPI task
Reading data file ...
  orthogonal box = (-122.39241 -121.13707 -37.090501) to (122.39241 121.13707 37.090501)
  13 by 4 by 1 MPI processor grid
  reading atoms ...
  288751 atoms
  read_data CPU = 0.442 seconds
199981 atoms in group inner
88770 atoms in group outer
1 atoms in group carbon
Neighbor list info ...
  update every 1 steps, delay 0 steps, check yes
  max neighbors/atom: 2000, page size: 100000
  master list distance cutoff = 5.6
  ghost atom cutoff = 5.6
  binsize = 2.8, bins = 88 87 27
  1 neighbor lists, perpetual/occasional/extra = 1 0 0
  (1) pair eam/alloy, perpetual
      attributes: half, newton on
      pair build: half/bin/atomonly/newton
      stencil: half/bin/3d/newton
      bin: standard
Setting up cg style minimization ...
  Unit style    : metal
  Current step  : 0
Per MPI rank memory allocation (min/avg/max) = 5.465 | 6.344 | 6.728 Mbytes
Step v_fx v_fy v_fz PotEng KinEng TotEng 
       0    25.620275  -0.40219946   -13.099192   -1152441.9            0   -1152441.9 
     212 7.3775385e-05 -7.2688819e-06 -8.0860883e-05     -1152449            0     -1152449 
Loop time of 4.66039 on 52 procs for 212 steps with 288751 atoms

99.8% CPU use with 52 MPI tasks x 1 OpenMP threads

Minimization stats:
  Stopping criterion = energy tolerance
  Energy initial, next-to-last, final = 
     -1152441.85511929  -1152448.97218888  -1152448.97218888
  Force two-norm initial, final = 47.011785 0.00031693915
  Force max component initial, final = 32.652655 0.00010963912
  Final line search alpha, max atom move = 1.0000000 0.00010963912
  Iterations, force evaluations = 212 420

MPI task timing breakdown:
Section |  min time  |  avg time  |  max time  |%varavg| %total
---------------------------------------------------------------
Pair    | 1.2569     | 3.3731     | 4.3982     |  49.6 | 72.38
Neigh   | 0.00015372 | 0.042756   | 0.063022   |   8.8 |  0.92
Comm    | 0.067111   | 0.75234    | 2.3757     |  77.3 | 16.14
Output  | 0          | 0          | 0          |   0.0 |  0.00
Modify  | 6.1856e-05 | 0.0046135  | 0.0117     |   4.2 |  0.10
Other   |            | 0.4876     |            |       | 10.46

Nlocal:        5552.90 ave        7897 max           0 min
Histogram: 4 2 2 0 2 6 4 0 14 18
Nghost:        6213.60 ave        8769 max         412 min
Histogram: 4 0 4 0 8 0 4 5 7 20
Neighs:       158427.0 ave      230119 max           0 min
Histogram: 4 2 2 0 5 3 4 4 12 16

Total # of neighbors = 8238212
Ave neighs/atom = 28.530506
Neighbor list builds = 7
Dangerous builds = 0
3.4 -0.01 36.57 3.40234921421963 -0.0107046563203357 36.5742887281736
Total wall time: 0:00:05
